Title
81359
    1CHL1    C3    1   5.522   1.016  10.362 -0.0966 -0.6113 -0.1114
    1CHL1    H3    2   5.605   1.060  10.303  2.9274 -0.9974  3.4933
    1CHL1    O3    3   5.544   1.024  10.505 -0.0029  0.5572  0.5363
    1CHL1   H3'    4   5.636   1.048  10.518 -0.5169  2.5993  0.7620
    1CHL1    C4    5   5.380   1.075  10.325  0.1472 -0.1898 -0.2660
    1CHL1   H4A    6   5.312   1.039  10.406 -0.4450  1.4204 -0.0195
    1CHL1   H4B    7   5.382   1.183  10.349 -0.5224 -0.9536  4.1094
    1CHL1    C5    8   5.328   1.051  10.182 -0.2714 -0.2722 -0.5707
    1CHL1    C6    9   5.302   1.156  10.102 -0.1039  0.6275 -0.0314
    1CHL1    H6   10   5.306   1.257  10.143 -1.0674  0.4605  0.4838
    1CHL1    C7   11   5.269   1.148   9.955 -0.7347 -0.4392  0.8475
    1CHL1   H7A   12   5.186   1.221   9.944  0.8523  1.1063 -1.6503
    1CHL1   H7B   13   5.357   1.176   9.893 -1.1843  2.3069  1.3234
    1CHL1    C8   14   5.254   1.004   9.906 -0.7491 -0.0418  0.0416
    1CHL1    H8   15   5.153   0.969   9.936  0.3559 -4.5150 -0.8727
    1CHL1   C14   16   5.269   0.997   9.760  0.3730 -0.4593  0.7432
    1CHL1   H14   17   5.371   1.036   9.737  0.3607 -0.0220  1.4299
    1CHL1   C15   18   5.182   1.088   9.681  0.5677  0.3344  0.0724
    1CHL1  H15A   19   5.076   1.071   9.711 -0.0042  3.6025  0.2840
    1CHL1  H15B   20   5.192   1.197   9.701  0.7387  0.7616 -2.1197
    1CHL1   C16   21   5.200   1.051   9.539  0.0417 -0.1919  0.3670
    1CHL1  H16A   22   5.099   1.041   9.493 -1.4535 -1.1817  3.5408
    1CHL1  H16B   23   5.257   1.116   9.470 -2.1197  0.7438 -0.6234
    1CHL1   C17   24   5.243   0.903   9.547  0.5681  0.2406  0.3338
    1CHL1   H17   25   5.347   0.882   9.514  0.2193  0.2677 -0.8130
    1CHL1   C13   26   5.245   0.861   9.695 -0.4232  0.5727 -0.2623
    1CHL1   C18   27   5.109   0.802   9.739 -0.2847  0.2313 -0.0390
    1CHL1  H18A   28   5.096   0.697   9.706 -1.2479  0.1161  0.6682
    1CHL1  H18B   29   5.098   0.802   9.850  1.7708  0.3086  0.2003
    1CHL1  H18C   30   5.024   0.862   9.700 -0.1027 -0.0543 -0.8942
    1CHL1   C12   31   5.353   0.765   9.750  0.2828  0.1393 -0.5350
    1CHL1  H12A   32   5.342   0.663   9.708  1.9396  1.5578 -4.9910
    1CHL1  H12B   33   5.447   0.812   9.715  0.7657 -0.4946 -0.0986
    1CHL1   C11   34   5.350   0.764   9.904 -1.1192 -0.9979  0.7559
    1CHL1  H11A   35   5.254   0.717   9.934 -0.5702 -2.4461  0.3674
    1CHL1  H11B   36   5.430   0.702   9.948  0.0169 -0.4902 -0.5223
    1CHL1    C9   37   5.355   0.915   9.970 -0.7040  0.6112 -0.8175
    1CHL1    H9   38   5.460   0.945   9.947 -1.0435  1.7578 -0.9582
    1CHL1   C10   39   5.348   0.902  10.129 -0.2424 -0.4975 -0.0695
    1CHL1   C19   40   5.236   0.808  10.173  0.6776 -0.0806 -0.7092
    1CHL1  H19A   41   5.256   0.702  10.148 -1.4405 -0.9390  0.8324
    1CHL1  H19B   42   5.218   0.811  10.283  0.5547 -0.9540 -0.6919
    1CHL1  H19C   43   5.145   0.835  10.115 -0.1620  0.6536  0.8674
    1CHL1    C1   44   5.480   0.841  10.189 -0.6121  0.5390 -0.3075
    1CHL1   H1A   45   5.488   0.734  10.161 -0.1548  0.2229  0.9769
    1CHL1   H1B   46   5.560   0.898  10.137 -1.8534  1.5271 -1.2104
    1CHL1    C2   47   5.508   0.861  10.342  0.2586  0.1318 -0.0815
    1CHL1   H2A   48   5.593   0.801  10.380 -1.0014 -2.5172 -1.2000
    1CHL1   H2B   49   5.415   0.837  10.399 -1.3190  1.6902 -1.8535
    1CHL1   C20   50   5.175   0.810   9.439 -0.8518 -0.4415 -0.4840
    1CHL1   H20   51   5.068   0.806   9.469 -0.4536  0.9303  1.3135
    1CHL1   C21   52   5.233   0.673   9.437 -0.0961  0.1093  0.3916
    1CHL1  H21A   53   5.187   0.600   9.507 -1.1294  0.6958  0.3432
    1CHL1  H21B   54   5.343   0.658   9.444 -0.5919 -4.5360  1.6736
    1CHL1  H21C   55   5.211   0.635   9.335 -0.9607 -1.8459  1.2611
    1CHL1   C22   56   5.173   0.862   9.296 -0.3290 -0.7148 -0.2922
    1CHL1  H22A   57   5.127   0.787   9.228  0.4159 -0.0991 -1.5087
    1CHL1  H22B   58   5.109   0.953   9.297 -0.2556 -0.6566  0.7001
    1CHL1   C23   59   5.319   0.906   9.237  0.6779  0.6670  0.2023
    1CHL1  H23A   60   5.376   0.960   9.314 -0.6877  0.1300  1.6558
    1CHL1  H23B   61   5.372   0.809   9.234  0.9750  0.8364 -0.0100
    1CHL1   C24   62   5.307   0.954   9.093 -0.7334 -0.3498  0.0943
    1CHL1  H24A   63   5.267   1.057   9.095  3.9260  1.8088 -1.7117
    1CHL1  H24B   64   5.414   0.969   9.064 -0.9781  1.6433  0.1173
    1CHL1   C25   65   5.250   0.863   8.986  0.0854 -0.3651  0.1644
    1CHL1   H25   66   5.142   0.846   9.009  0.3518 -0.8502  1.0941
    1CHL1   C26   67   5.271   0.937   8.853  0.4381 -0.3919 -0.5785
    1CHL1  H26A   68   5.208   0.898   8.770 -1.8376  1.3188  0.2407
    1CHL1  H26B   69   5.256   1.046   8.865  2.1571 -0.2982  1.2703
    1CHL1  H26C   70   5.375   0.923   8.815 -0.2081 -0.7348 -2.2984
    1CHL1   C27   71   5.306   0.719   8.983 -0.2534  0.5354  0.1639
    1CHL1  H27A   72   5.272   0.670   9.077 -1.3167 -0.9974 -0.9723
    1CHL1  H27B   73   5.271   0.658   8.897  2.3151 -0.1913 -0.4580
    1CHL1  H27C   74   5.417   0.727   8.983 -0.2978  1.2748 -0.3794
    2CHL1    C3   75   4.595   3.833   9.933  0.2275 -0.1489 -0.2885
    2CHL1    H3   76   4.604   3.937   9.895  1.4174 -0.4841 -0.9798
    2CHL1    O3   77   4.578   3.838  10.074  0.6265  0.0464  0.7756
    2CHL1   H3'   78   4.585   3.748  10.106  0.3259 -0.6582 -1.0315
    2CHL1    C4   79   4.467   3.772   9.868 -0.0864 -0.0907 -0.8751
    2CHL1   H4A   80   4.437   3.675   9.912  0.7172 -1.1039 -2.4537
    2CHL1   H4B   81   4.379   3.835   9.896 -0.7564 -1.0777 -0.7061
    2CHL1    C5   82   4.492   3.769   9.720 -0.5993  0.1284 -0.2902
    2CHL1    C6   83   4.417   3.844   9.636 -0.5011  0.8624  0.0289
    2CHL1    H6   84   4.330   3.901   9.673 -0.9212 -0.4850  1.2146
    2CHL1    C7   85   4.426   3.826   9.486  0.4851  0.0044 -0.3477
    2CHL1   H7A   86   4.321   3.826   9.450  0.0727  3.2168  0.5958
    2CHL1   H7B   87   4.478   3.917   9.449 -0.6514  0.5114 -0.7265
    2CHL1    C8   88   4.501   3.701   9.437 -0.0783 -0.4019  0.1866
    2CHL1    H8   89   4.423   3.623   9.450 -0.9385  0.1223 -1.4384
    2CHL1   C14   90   4.536   3.704   9.285 -0.2547 -0.4854 -0.0369
    2CHL1   H14   91   4.597   3.795   9.269 -2.1038  0.4184 -2.6499
    2CHL1   C15   92   4.425   3.720   9.182  0.0051  0.8172  0.0049
    2CHL1  H15A   93   4.352   3.636   9.186  0.0436  0.6870 -1.3451
    2CHL1  H15B   94   4.376   3.820   9.189  0.2826  0.8457  1.8205
    2CHL1   C16   95   4.499   3.704   9.052 -0.0887  0.1283 -0.6735
    2CHL1  H16A   96   4.458   3.623   8.987  1.7330  1.0291 -3.1295
    2CHL1  H16B   97   4.496   3.797   8.991 -0.5336  1.4383  1.2626
    2CHL1   C17   98   4.636   3.647   9.091  0.4178  0.3652 -0.1013
    2CHL1   H17   99   4.709   3.730   9.106  1.4195 -0.8387  2.2751
    2CHL1   C13  100   4.620   3.594   9.231  0.3460 -0.3354 -0.1483
    2CHL1   C18  101   4.539   3.454   9.238  0.1055  0.4525 -0.5005
    2CHL1  H18A  102   4.609   3.373   9.208 -0.2664 -0.6347  1.4141
    2CHL1  H18B  103   4.508   3.430   9.342 -0.3898 -2.8768 -1.3224
    2CHL1  H18C  104   4.455   3.464   9.166  2.9711 -0.2688 -4.2271
    2CHL1   C12  105   4.747   3.592   9.316  0.3452  0.0398 -0.5349
    2CHL1  H12A  106   4.802   3.499   9.294  1.4404  0.1693  1.4266
    2CHL1  H12B  107   4.789   3.692   9.291 -0.7125  0.0139 -2.6817
    2CHL1   C11  108   4.729   3.577   9.471  0.0855  0.2054  0.8750
    2CHL1  H11A  109   4.675   3.482   9.491 -2.7153  1.5180 -0.0022
    2CHL1  H11B  110   4.822   3.577   9.532 -0.3554  0.5068  1.5631
    2CHL1    C9  111   4.629   3.688   9.521  0.8377  0.5157  0.6795
    2CHL1    H9  112   4.681   3.783   9.499 -0.9815  1.3383 -0.3162
    2CHL1   C10  113   4.604   3.674   9.673 -0.0059  0.1822  0.4166
    2CHL1   C19  114   4.571   3.528   9.722  0.2143 -0.5535  0.1138
    2CHL1  H19A  115   4.556   3.527   9.832 -0.3054 -3.6410  0.1286
    2CHL1  H19B  116   4.481   3.497   9.663  0.0039  2.8066 -1.5338
    2CHL1  H19C  117   4.650   3.454   9.694 -0.5743 -1.5305  0.4066
    2CHL1    C1  118   4.727   3.734   9.740 -0.6994  0.2266  0.3332
    2CHL1   H1A  119   4.809   3.660   9.734 -1.2875 -0.3968 -0.2874
    2CHL1   H1B  120   4.750   3.831   9.690 -0.6327 -0.0852 -0.2479
    2CHL1    C2  121   4.719   3.756   9.895 -0.2311  0.0397 -0.3664
    2CHL1   H2A  122   4.811   3.808   9.928 -1.1436  2.4790 -1.5058
    2CHL1   H2B  123   4.703   3.655   9.939 -1.3782  0.2726 -0.2030
    2CHL1   C20  124   4.695   3.555   8.979 -0.0016  0.0710  0.3797
    2CHL1   H20  125   4.623   3.475   8.951 -1.1336  1.6039 -1.2496
    2CHL1   C21  126   4.832   3.499   9.017 -0.8717 -0.7576 -0.6008
    2CHL1  H21A  127   4.831   3.413   9.088  0.1406  0.7644  1.3493
    2CHL1  H21B  128   4.887   3.578   9.072  0.7705 -2.2093 -0.0776
    2CHL1  H21C  129   4.900   3.484   8.931 -0.7692 -0.1787 -0.6243
    2CHL1   C22  130   4.713   3.645   8.846 -0.7289 -0.4179 -0.4094
    2CHL1  H22A  131   4.741   3.568   8.771 -3.2577 -1.1720 -0.6628
    2CHL1  H22B  132   4.619   3.691   8.808 -1.0271 -0.7192 -0.0488
    2CHL1   C23  133   4.823   3.750   8.847 -0.7769  0.0687  0.5237
    2CHL1  H23A  134   4.787   3.830   8.916 -2.6235 -1.5055  1.4783
    2CHL1  H23B  135   4.921   3.703   8.871  0.1730  1.2790 -0.7655
    2CHL1   C24  136   4.845   3.820   8.712  0.0009 -0.0590 -0.1240
    2CHL1  H24A  137   4.744   3.858   8.683  0.7797  1.7676 -0.5984
    2CHL1  H24B  138   4.901   3.912   8.740 -1.0694  1.2008 -1.8781
    2CHL1   C25  139   4.905   3.727   8.606 -0.2735  0.1456 -0.3947
    2CHL1   H25  140   4.833   3.642   8.605  1.1772 -1.3182  2.7569
    2CHL1   C26  141   4.906   3.809   8.474 -0.0640 -0.8461 -0.1785
    2CHL1  H26A  142   4.801   3.825   8.441 -0.0442  0.4139  0.3280
    2CHL1  H26B  143   4.959   3.906   8.488  0.8161 -1.0830 -1.6652
    2CHL1  H26C  144   4.978   3.759   8.406 -1.2601 -1.1069 -1.2902
    2CHL1   C27  145   5.043   3.677   8.632 -0.2444 -0.0693  0.8538
    2CHL1  H27A  146   5.076   3.611   8.549  1.9726 -0.5200  2.0117
    2CHL1  H27B  147   5.119   3.754   8.659  0.5286 -1.7207  3.7438
    2CHL1  H27C  148   5.050   3.608   8.718  1.0950 -0.6733  0.2904
    3CHL1    C3  149   6.060   5.422  10.305 -0.1298 -0.5577 -0.2791
    3CHL1    H3  150   6.159   5.379  10.279 -0.4906 -1.6681  0.1338
    3CHL1    O3  151   6.089   5.463  10.438 -0.1473  0.1243  0.0988
    3CHL1   H3'  152   6.123   5.390  10.489  2.3234  0.4939 -0.8687
    3CHL1    C4  153   6.022   5.545  10.224  0.3349  0.2774  0.4624
    3CHL1   H4A  154   5.929   5.587  10.267  1.3180  3.0100  0.1314
    3CHL1   H4B  155   6.099   5.622  10.246 -0.2150  0.2808  2.4867
    3CHL1    C5  156   6.015   5.517  10.075 -0.3400  0.0614 -0.4840
    3CHL1    C6  157   6.094   5.575   9.985  0.2166 -0.3613 -0.2836
    3CHL1    H6  158   6.157   5.660  10.017  1.4418 -1.0437 -0.8301
    3CHL1    C7  159   6.086   5.560   9.836  0.6574  0.7929  0.8973
    3CHL1   H7A  160   6.076   5.659   9.787  3.1069  0.2927 -0.7491
    3CHL1   H7B  161   6.177   5.514   9.793 -1.5460 -0.4511 -2.8424
    3CHL1    C8  162   5.972   5.469   9.797  0.5276 -0.3337  0.6808
    3CHL1    H8  163   5.873   5.522   9.798  1.4209  1.4199  1.6655
    3CHL1   C14  164   6.000   5.417   9.658 -0.1475 -0.6080 -0.0940
    3CHL1   H14  165   6.086   5.347   9.670  0.7492  0.8190  2.5679
    3CHL1   C15  166   6.041   5.520   9.547  1.0642 -0.1953  0.7828
    3CHL1  H15A  167   5.978   5.612   9.543 -0.2091 -1.0879 -1.4371
    3CHL1  H15B  168   6.148   5.545   9.565  1.2983  1.8190 -2.6067
    3CHL1   C16  169   6.021   5.429   9.420 -0.2047  0.7786  0.1994
    3CHL1  H16A  170   5.957   5.491   9.354 -1.9440 -0.4883  0.6286
    3CHL1  H16B  171   6.121   5.417   9.373  0.4466  0.1421  1.6599
    3CHL1   C17  172   5.964   5.292   9.461 -0.2004 -0.7645 -0.2116
    3CHL1   H17  173   6.052   5.229   9.489  0.2982  0.8838  2.3325
    3CHL1   C13  174   5.901   5.326   9.597 -0.0185 -0.8594 -0.2305
    3CHL1   C18  175   5.772   5.405   9.578 -0.3987  0.4510 -0.8685
    3CHL1  H18A  176   5.787   5.493   9.513  3.0490  0.5916 -0.0914
    3CHL1  H18B  177   5.700   5.331   9.537 -0.6151  1.2488 -1.9872
    3CHL1  H18C  178   5.728   5.442   9.674  2.6755  0.3604  0.6888
    3CHL1   C12  179   5.890   5.202   9.682 -0.3508 -0.0753  0.2394
    3CHL1  H12A  180   5.810   5.133   9.647 -0.1627 -1.1830  1.8805
    3CHL1  H12B  181   5.988   5.150   9.692 -1.8025 -2.5919  3.2241
    3CHL1   C11  182   5.862   5.238   9.833 -0.1671  0.4994  0.8280
    3CHL1  H11A  183   5.754   5.262   9.840 -0.5356 -1.0989  1.0688
    3CHL1  H11B  184   5.872   5.145   9.894  1.0331  0.8238  1.1624
    3CHL1    C9  185   5.957   5.351   9.890  0.3825  0.3231  0.5835
    3CHL1    H9  186   6.059   5.307   9.879  0.9667  2.1712 -3.1082
    3CHL1   C10  187   5.926   5.403  10.037  0.6574 -0.1379  0.9180
    3CHL1   C19  188   5.782   5.454  10.053  0.2497 -0.1828 -0.6232
    3CHL1  H19A  189   5.772   5.492  10.157  1.8304  0.1029 -0.5580
    3CHL1  H19B  190   5.784   5.541   9.984  0.4935 -2.3382 -3.5333
    3CHL1  H19C  191   5.697   5.388  10.024 -0.7131  0.7467 -0.0344
    3CHL1    C1  192   5.943   5.275  10.135  0.1654 -0.4598  0.1429
    3CHL1   H1A  193   5.851   5.214  10.121 -0.5982  0.7323 -0.1305
    3CHL1   H1B  194   6.033   5.225  10.094  1.7795  3.2040 -1.1703
    3CHL1    C2  195   5.950   5.314  10.289  0.5345 -0.1648 -0.0369
    3CHL1   H2A  196   5.970   5.220  10.344  1.9363  1.4782  2.5080
    3CHL1   H2B  197   5.851   5.340  10.333 -1.1439 -4.4990 -0.8095
    3CHL1   C20  198   5.888   5.228   9.350 -0.4440  0.2280 -0.4393
    3CHL1   H20  199   5.782   5.264   9.350 -1.4500 -2.4611 -1.7791
    3CHL1   C21  200   5.904   5.075   9.368 -0.0663  0.3135 -0.3314
    3CHL1  H21A  201   5.885   5.043   9.473  0.3859 -2.2532 -0.9541
    3CHL1  H21B  202   5.998   5.027   9.335  0.5025 -0.9287  2.7036
    3CHL1  H21C  203   5.820   5.028   9.313  0.3941  0.3163 -1.0527
    3CHL1   C22  204   5.941   5.261   9.209  0.1029  0.0191  0.1055
    3CHL1  H22A  205   5.893   5.358   9.185 -1.4513  0.3221  3.7246
    3CHL1  H22B  206   6.051   5.261   9.198  0.1248 -3.3691 -0.9433
    3CHL1   C23  207   5.894   5.165   9.096 -0.1290  0.3971  0.3591
    3CHL1  H23A  208   5.949   5.068   9.092  0.0920  0.5231  0.3101
    3CHL1  H23B  209   5.788   5.143   9.121 -0.5576  0.9353 -0.9107
    3CHL1   C24  210   5.920   5.230   8.959  0.1184  0.0527 -0.2945
    3CHL1  H24A  211   5.880   5.333   8.960  1.6162  0.6570  0.5785
    3CHL1  H24B  212   6.030   5.240   8.960  0.3075 -1.6630 -0.2377
    3CHL1   C25  213   5.875   5.149   8.837  0.1050 -0.4101 -0.4321
    3CHL1   H25  214   5.766   5.127   8.845  0.0024  0.3942  0.7658
    3CHL1   C26  215   5.906   5.230   8.704  0.3715 -0.1152 -0.1675
    3CHL1  H26A  216   5.876   5.173   8.613 -0.2415  1.2519 -0.8470
    3CHL1  H26B  217   5.843   5.321   8.707 -0.4040 -0.6437  0.1208
    3CHL1  H26C  218   6.009   5.271   8.699  0.9736 -1.0740  2.3611
    3CHL1   C27  219   5.947   5.014   8.843  0.5803  0.3940  0.2270
    3CHL1  H27A  220   5.918   4.966   8.939  2.7138 -1.0675  0.1914
    3CHL1  H27B  221   5.930   4.942   8.760  2.0976  1.1898 -0.8199
    3CHL1  H27C  222   6.054   5.042   8.849  0.4529  1.4504 -1.7207
    4CHL1    C3  223   2.480   0.071  10.208  0.0494 -0.7478  0.2992
    4CHL1    H3  224   2.528  -0.028  10.226  2.2160 -0.3499 -2.5573
    4CHL1    O3  225   2.433   0.129  10.329  0.2313  0.4917 -0.3226
    4CHL1   H3'  226   2.449   0.224  10.323  0.8770  0.3551 -0.8675
    4CHL1    C4  227   2.577   0.167  10.136 -0.6895  0.1746 -0.5175
    4CHL1   H4A  228   2.531   0.268  10.124  1.3273  1.5292  2.0359
    4CHL1   H4B  229   2.666   0.198  10.195  0.2642 -1.5044 -1.0097
    4CHL1    C5  230   2.617   0.115   9.995 -0.5718 -0.9604 -0.6472
    4CHL1    C6  231   2.745   0.092   9.966 -0.6497  1.1749  0.2000
    4CHL1    H6  232   2.817   0.103  10.048  0.4640  0.3904 -0.6456
    4CHL1    C7  233   2.789   0.039   9.826  0.1733  0.0290  0.2403
    4CHL1   H7A  234   2.883   0.082   9.783 -0.9664  0.2959 -2.1117
    4CHL1   H7B  235   2.796  -0.070   9.842 -0.9137 -0.4113 -1.9259
    4CHL1    C8  236   2.682   0.052   9.712 -0.0725  0.3433 -0.4946
    4CHL1    H8  237   2.671   0.160   9.693 -2.1406  0.3298  0.3954
    4CHL1   C14  238   2.722  -0.033   9.587  0.1721 -0.2875 -0.9066
    4CHL1   H14  239   2.717  -0.137   9.626 -1.9604 -0.5662 -1.7946
    4CHL1   C15  240   2.860  -0.017   9.532 -0.0856 -0.3689 -0.1167
    4CHL1  H15A  241   2.873   0.093   9.524 -2.1350  0.0229  1.1448
    4CHL1  H15B  242   2.947  -0.048   9.594  0.9509 -0.5285 -1.6209
    4CHL1   C16  243   2.853  -0.072   9.394 -0.2153  0.0763  0.0064
    4CHL1  H16A  244   2.872   0.011   9.323 -1.7460  1.4977  1.1708
    4CHL1  H16B  245   2.919  -0.157   9.365 -0.2351  0.1493 -0.2491
    4CHL1   C17  246   2.700  -0.114   9.381  0.0980  0.6440 -0.0109
    4CHL1   H17  247   2.696  -0.219   9.419 -1.1067  1.2475  1.6311
    4CHL1   C13  248   2.615  -0.026   9.481 -0.6749 -0.1104  0.6939
    4CHL1   C18  249   2.601   0.109   9.417  0.1364  1.1834  0.4108
    4CHL1  H18A  250   2.609   0.188   9.494  3.1568  1.3477  0.0603
    4CHL1  H18B  251   2.685   0.128   9.347 -0.8561 -1.2554 -1.6156
    4CHL1  H18C  252   2.512   0.120   9.351 -1.6970 -2.0041  2.0774
    4CHL1   C12  253   2.486  -0.087   9.546 -0.1342  0.2550  0.0848
    4CHL1  H12A  254   2.409  -0.104   9.468 -0.8870 -2.0175  1.2384
    4CHL1  H12B  255   2.516  -0.184   9.591  3.6351  0.9238 -0.6319
    4CHL1   C11  256   2.440  -0.002   9.660 -0.5986  0.9027  0.4830
    4CHL1  H11A  257   2.411   0.101   9.631  1.4033  1.6709  1.0191
    4CHL1  H11B  258   2.348  -0.045   9.704 -1.7267  1.1125 -1.5598
    4CHL1    C9  259   2.546   0.003   9.766 -0.4487 -0.6173 -0.0128
    4CHL1    H9  260   2.564  -0.098   9.807  1.5906  0.6528  2.4266
    4CHL1   C10  261   2.501   0.084   9.894 -0.1685  0.2246  0.2171
    4CHL1   C19  262   2.437   0.221   9.860 -0.3528 -0.4247 -0.1795
    4CHL1  H19A  263   2.341   0.213   9.805  0.6786 -1.2101 -1.9449
    4CHL1  H19B  264   2.419   0.287   9.948 -0.4121  1.4160 -1.5185
    4CHL1  H19C  265   2.504   0.274   9.789 -0.1231  0.5959  0.7680
    4CHL1    C1  266   2.396   0.007   9.974 -0.0551 -0.2473 -0.0560
    4CHL1   H1A  267   2.295   0.012   9.927 -0.8885 -1.1420  1.5420
    4CHL1   H1B  268   2.422  -0.101   9.982  2.2500 -0.0083 -2.8301
    4CHL1    C2  269   2.357   0.052  10.117  0.1945  0.2945  0.3896
    4CHL1   H2A  270   2.287  -0.019  10.166 -0.5348  1.6906  1.4509
    4CHL1   H2B  271   2.298   0.146  10.117  1.0618  0.8525  0.3433
    4CHL1   C20  272   2.656  -0.121   9.231 -0.0673  0.4747  0.5047
    4CHL1   H20  273   2.639  -0.028   9.173 -1.4944 -2.1532 -3.7872
    4CHL1   C21  274   2.522  -0.199   9.220  0.2587 -0.1538 -0.5171
    4CHL1  H21A  275   2.431  -0.152   9.263 -0.3525  0.4271 -2.3787
    4CHL1  H21B  276   2.544  -0.302   9.256  1.8350  0.6247  0.9198
    4CHL1  H21C  277   2.501  -0.201   9.111 -1.1296  1.4370 -0.3081
    4CHL1   C22  278   2.766  -0.188   9.139  0.2915  0.1784  0.3898
    4CHL1  H22A  279   2.853  -0.119   9.138  0.3742  0.0699  0.0087
    4CHL1  H22B  280   2.793  -0.288   9.180 -0.7664  0.9926  3.3578
    4CHL1   C23  281   2.717  -0.204   8.992 -0.4439  0.4107  0.0728
    4CHL1  H23A  282   2.628  -0.270   8.983  0.9139 -1.3417 -1.2742
    4CHL1  H23B  283   2.695  -0.109   8.939  1.0775 -0.0075 -1.4014
    4CHL1   C24  284   2.829  -0.276   8.913 -0.0970 -0.1921  0.0058
    4CHL1  H24A  285   2.919  -0.211   8.905  0.6093 -1.3084 -2.1806
    4CHL1  H24B  286   2.867  -0.372   8.954 -0.1995 -0.8463 -1.3636
    4CHL1   C25  287   2.774  -0.303   8.769 -0.0739 -0.0673 -0.4697
    4CHL1   H25  288   2.675  -0.351   8.761 -0.1652  0.0425 -0.0009
    4CHL1   C26  289   2.767  -0.172   8.685  0.6690  0.4759  0.5636
    4CHL1  H26A  290   2.867  -0.124   8.683  0.8666  0.0670 -1.5149
    4CHL1  H26B  291   2.746  -0.195   8.578  0.1286  0.8847  0.5790
    4CHL1  H26C  292   2.691  -0.101   8.723  0.9831  1.8436 -1.1939
    4CHL1   C27  293   2.875  -0.398   8.699  0.7618  0.4980  0.3873
    4CHL1  H27A  294   2.821  -0.435   8.609  0.8393  2.8787 -0.7008
    4CHL1  H27B  295   2.976  -0.353   8.687  1.5355 -0.8523  1.4262
    4CHL1  H27C  296   2.891  -0.489   8.761 -1.1136 -1.9483 -2.4074
    5CHL1    C3  297   4.667   4.487  10.362  0.6833 -0.4327 -0.9985
    5CHL1    H3  298   4.776   4.468  10.377  0.7962  1.3502  0.8597
    5CHL1    O3  299   4.625   4.530  10.488  0.2289 -0.1419  0.5383
    5CHL1   H3'  300   4.559   4.466  10.517  0.6174  0.2188  2.3540
    5CHL1    C4  301   4.657   4.604  10.259 -0.0767  0.2040  0.2570
    5CHL1   H4A  302   4.549   4.629  10.263 -0.6163 -1.6667 -1.0578
    5CHL1   H4B  303   4.717   4.692  10.290  0.1399 -0.7231  2.6448
    5CHL1    C5  304   4.684   4.566  10.113  0.7078  0.0736  0.0330
    5CHL1    C6  305   4.779   4.624  10.037 -0.4196 -0.3221 -0.4438
    5CHL1    H6  306   4.825   4.713  10.083  1.2642 -1.8897  1.0125
    5CHL1    C7  307   4.817   4.577   9.899 -0.7482  0.2011 -0.2628
    5CHL1   H7A  308   4.840   4.664   9.834  1.1914  1.2788  1.7422
    5CHL1   H7B  309   4.910   4.519   9.920 -0.5955  0.6673  0.4026
    5CHL1    C8  310   4.703   4.490   9.837 -0.1098 -0.0758  0.4159
    5CHL1    H8  311   4.616   4.553   9.808 -0.4175 -0.8608 -0.4361
    5CHL1   C14  312   4.748   4.435   9.702 -0.1848 -0.8249 -0.2533
    5CHL1   H14  313   4.827   4.363   9.732 -0.8524 -0.7057  1.9761
    5CHL1   C15  314   4.813   4.529   9.600  0.0807  0.3302 -0.7780
    5CHL1  H15A  315   4.750   4.620   9.606  1.1224  1.0296  0.2798
    5CHL1  H15B  316   4.914   4.565   9.631  0.0752 -1.3266  1.4042
    5CHL1   C16  317   4.806   4.453   9.470 -0.6321 -0.2762  0.1349
    5CHL1  H16A  318   4.733   4.500   9.401 -0.7635 -2.6582 -1.4743
    5CHL1  H16B  319   4.911   4.449   9.434 -0.1094  0.7587  1.4657
    5CHL1   C17  320   4.758   4.316   9.505 -0.0767 -0.3197  0.2086
    5CHL1   H17  321   4.853   4.267   9.536  0.2295 -1.3298 -2.0929
    5CHL1   C13  322   4.666   4.339   9.624  0.0438 -0.2369  0.3612
    5CHL1   C18  323   4.530   4.406   9.579  0.0138  0.3618  0.0471
    5CHL1  H18A  324   4.532   4.464   9.485 -1.3655 -0.9713 -0.8615
    5CHL1  H18B  325   4.454   4.325   9.565 -2.2364  2.2519  0.7077
    5CHL1  H18C  326   4.481   4.472   9.653 -0.1135  0.7647 -0.3910
    5CHL1   C12  327   4.631   4.221   9.721 -0.0524  0.1932  0.6214
    5CHL1  H12A  328   4.571   4.142   9.670  0.0500 -0.3394  1.3075
    5CHL1  H12B  329   4.723   4.176   9.763 -0.0222  0.1805  0.5415
    5CHL1   C11  330   4.573   4.270   9.861 -0.4234 -0.2606  0.2526
    5CHL1  H11A  331   4.473   4.310   9.836 -0.9579 -1.3313  0.6293
    5CHL1  H11B  332   4.559   4.182   9.927  0.5506 -0.3464  0.3610
    5CHL1    C9  333   4.666   4.370   9.937 -0.5939 -0.2257 -0.1462
    5CHL1    H9  334   4.763   4.318   9.945  0.7667  1.7737 -2.4434
    5CHL1   C10  335   4.614   4.431  10.070 -0.5930 -0.5191 -0.1266
    5CHL1   C19  336   4.463   4.465  10.049  0.7205  0.7480 -0.3284
    5CHL1  H19A  337   4.417   4.524  10.130  0.0331 -0.7005  0.3806
    5CHL1  H19B  338   4.452   4.527   9.957 -0.9183 -1.1941 -1.5421
    5CHL1  H19C  339   4.388   4.384  10.033 -2.0588  2.8075  1.3933
    5CHL1    C1  340   4.625   4.321  10.178 -0.3102  0.4478 -0.4003
    5CHL1   H1A  341   4.567   4.231  10.149 -1.3223  1.0932 -0.4184
    5CHL1   H1B  342   4.733   4.300  10.192 -0.9052 -1.9823  1.0147
    5CHL1    C2  343   4.585   4.366  10.322 -0.2524  0.1619 -0.2623
    5CHL1   H2A  344   4.599   4.285  10.397  0.6561  1.9541  1.6057
    5CHL1   H2B  345   4.476   4.388  10.324 -0.5024 -0.9626 -0.7063
    5CHL1   C20  346   4.706   4.219   9.393 -0.2279 -0.1611 -0.3330
    5CHL1   H20  347   4.597   4.238   9.386 -0.2120  0.6194  1.1770
    5CHL1   C21  348   4.733   4.069   9.433 -0.7374 -0.5075  0.0500
    5CHL1  H21A  349   4.691   3.989   9.369  1.0361 -0.2802 -1.4784
    5CHL1  H21B  350   4.688   4.051   9.533  2.7895 -1.6033  1.6080
    5CHL1  H21C  351   4.843   4.055   9.443 -0.4069 -0.4041 -2.6958
    5CHL1   C22  352   4.762   4.238   9.256  0.0582 -0.4547  0.0300
    5CHL1  H22A  353   4.732   4.340   9.222 -0.2798 -0.4067  0.4590
    5CHL1  H22B  354   4.873   4.235   9.266  0.1273  0.8207 -0.1916
    5CHL1   C23  355   4.701   4.146   9.149 -0.2850 -0.1941  0.1351
    5CHL1  H23A  356   4.766   4.056   9.144  0.2785  0.2714 -2.5586
    5CHL1  H23B  357   4.594   4.122   9.171 -1.1807  1.8384 -1.5916
    5CHL1   C24  358   4.701   4.210   9.007 -0.0018 -0.9028 -0.5659
    5CHL1  H24A  359   4.635   4.299   9.011  0.0106 -0.9234  0.3487
    5CHL1  H24B  360   4.802   4.253   8.986 -0.2170 -0.4143 -0.6053
    5CHL1   C25  361   4.680   4.114   8.885  0.4006  0.2765  0.2277
    5CHL1   H25  362   4.760   4.037   8.892 -1.1341 -1.4235  0.0418
    5CHL1   C26  363   4.541   4.038   8.887  0.1843  0.0735  0.1376
    5CHL1  H26A  364   4.518   4.023   8.994 -0.8021 -1.0282 -0.2156
    5CHL1  H26B  365   4.462   4.094   8.833  1.5106  1.8260 -0.1028
    5CHL1  H26C  366   4.536   3.936   8.844  0.1517 -0.5111  1.4918
    5CHL1   C27  367   4.704   4.179   8.756  0.0777 -0.2991  0.4198
    5CHL1  H27A  368   4.673   4.285   8.745  3.5409  0.6395 -1.6381
    5CHL1  H27B  369   4.813   4.198   8.752 -0.2371  1.5482 -1.4186
    5CHL1  H27C  370   4.671   4.123   8.665 -1.5094  0.7999  0.2686
    6CHL1    C3  371   3.739   1.336  10.196 -0.5731  0.1539  0.0391
    6CHL1    H3  372   3.657   1.405  10.168 -0.3156  0.8635  0.9905
    6CHL1    O3  373   3.768   1.346  10.331 -0.3490 -0.3120 -0.6147
    6CHL1   H3'  374   3.829   1.420  10.335 -0.5049 -0.1759 -0.7877
    6CHL1    C4  375   3.712   1.193  10.163  0.3309  0.2955  0.0487
    6CHL1   H4A  376   3.799   1.137  10.203 -0.2480  1.8908  4.0668
    6CHL1   H4B  377   3.619   1.163  10.216 -0.0564 -0.0884 -0.8190
    6CHL1    C5  378   3.690   1.172  10.014  0.2728  0.7229  0.4312
    6CHL1    C6  379   3.583   1.112   9.953 -0.5801  0.3751 -0.8332
    6CHL1    H6  380   3.514   1.064  10.024  1.2055 -0.2203  0.5901
    6CHL1    C7  381   3.557   1.081   9.808  0.5017 -0.3464  0.3896
    6CHL1   H7A  382   3.535   0.974   9.792 -0.8304  0.2830 -2.9645
    6CHL1   H7B  383   3.476   1.140   9.760  0.6129 -0.7348 -0.2841
    6CHL1    C8  384   3.689   1.112   9.726  0.1721 -1.0361  0.1424
    6CHL1    H8  385   3.753   1.023   9.738 -0.6388 -1.3822  2.5496
    6CHL1   C14  386   3.661   1.140   9.579 -0.7541 -0.3552  0.2148
    6CHL1   H14  387   3.594   1.228   9.569  0.6207  0.6724 -0.3976
    6CHL1   C15  388   3.571   1.040   9.503  0.2846  0.9417  0.0622
    6CHL1  H15A  389   3.601   0.936   9.527  3.2294  1.1638 -2.1933
    6CHL1  H15B  390   3.462   1.044   9.524  0.4297 -1.2253  1.6325
    6CHL1   C16  391   3.592   1.055   9.352 -0.5422 -0.1776 -0.8374
    6CHL1  H16A  392   3.636   0.961   9.311 -0.1861 -0.5942  0.4371
    6CHL1  H16B  393   3.503   1.084   9.293 -2.0966 -1.1957  0.9207
    6CHL1   C17  394   3.697   1.177   9.347  0.4208  1.1578  0.0588
    6CHL1   H17  395   3.626   1.263   9.351  1.1160  1.8549 -1.8354
    6CHL1   C13  396   3.778   1.177   9.483 -0.5711 -0.2137  0.0647
    6CHL1   C18  397   3.885   1.072   9.482  0.0749 -0.1245 -0.3211
    6CHL1  H18A  398   3.859   0.973   9.440  3.0314 -2.0998  2.0527
    6CHL1  H18B  399   3.977   1.097   9.424  0.3692  0.7839  0.5114
    6CHL1  H18C  400   3.909   1.042   9.586 -0.3863 -1.7807 -0.6682
    6CHL1   C12  401   3.845   1.309   9.539 -0.4087 -0.2260 -0.0039
    6CHL1  H12A  402   3.939   1.340   9.490 -0.2913  0.9050  0.8992
    6CHL1  H12B  403   3.763   1.384   9.543 -0.6015 -0.4544  0.3294
    6CHL1   C11  404   3.877   1.288   9.684  0.1645  1.1004  0.2170
    6CHL1  H11A  405   3.974   1.234   9.690 -0.2205  0.2106 -1.0813
    6CHL1  H11B  406   3.906   1.387   9.725 -1.0950  1.3792  0.4905
    6CHL1    C9  407   3.764   1.237   9.776 -0.0558  0.4243  0.2457
    6CHL1    H9  408   3.695   1.323   9.767  0.3254  0.9090  1.5853
    6CHL1   C10  409   3.799   1.227   9.926 -0.1865 -0.2605  0.3053
    6CHL1   C19  410   3.922   1.137   9.942 -0.3430 -0.3945  0.7128
    6CHL1  H19A  411   3.944   1.107  10.047  0.9809  2.5784  1.3769
    6CHL1  H19B  412   3.911   1.046   9.879 -1.8781  1.0980 -1.3190
    6CHL1  H19C  413   4.006   1.199   9.904 -2.0969  2.0488  0.5691
    6CHL1    C1  414   3.823   1.369   9.970  0.3431  0.2819 -0.2244
    6CHL1   H1A  415   3.913   1.413   9.921 -0.3867  2.0942 -0.0103
    6CHL1   H1B  416   3.738   1.438   9.952  0.3632  0.6643  1.0942
    6CHL1    C2  417   3.861   1.384  10.123  0.2237  0.0472 -0.1405
    6CHL1   H2A  418   3.899   1.487  10.142  0.5293  0.1352 -1.1620
    6CHL1   H2B  419   3.951   1.326  10.149  0.1551  0.9266  2.3481
    6CHL1   C20  420   3.769   1.175   9.213  0.0539  0.0663 -0.2190
    6CHL1   H20  421   3.850   1.099   9.205  0.5865  0.6728 -0.6859
    6CHL1   C21  422   3.843   1.311   9.206 -0.3339 -0.5531 -0.2181
    6CHL1  H21A  423   3.922   1.308   9.284  0.8543 -1.9290 -1.4339
    6CHL1  H21B  424   3.761   1.382   9.232 -1.4237 -1.8670  0.0401
    6CHL1  H21C  425   3.886   1.347   9.110 -0.1168 -0.5797 -0.1301
    6CHL1   C22  426   3.680   1.160   9.084  0.2279  0.0190  0.0434
    6CHL1  H22A  427   3.614   1.071   9.098  0.6491 -0.7191 -2.1948
    6CHL1  H22B  428   3.612   1.248   9.087 -1.5146 -1.2831  2.2605
    6CHL1   C23  429   3.766   1.139   8.956 -0.0056  0.1211  0.0961
    6CHL1  H23A  430   3.840   1.222   8.956  1.0429 -0.7583 -2.1331
    6CHL1  H23B  431   3.810   1.041   8.984 -2.7413 -0.3729  3.4415
    6CHL1   C24  432   3.687   1.145   8.825  0.8612 -0.2753 -0.7580
    6CHL1  H24A  433   3.602   1.073   8.820  0.8400 -0.1970 -1.5362
    6CHL1  H24B  434   3.638   1.245   8.817  0.0208 -0.4204  1.5216
    6CHL1   C25  435   3.764   1.138   8.701  0.4740 -0.1760 -0.3133
    6CHL1   H25  436   3.839   1.220   8.712  0.7623 -0.5470  0.6740
    6CHL1   C26  437   3.848   1.015   8.693 -0.7597 -1.1513  0.4338
    6CHL1  H26A  438   3.878   1.002   8.586  0.2828 -4.4372  1.0253
    6CHL1  H26B  439   3.938   0.997   8.755 -1.1400 -1.5889  0.8614
    6CHL1  H26C  440   3.785   0.925   8.711 -1.0287 -0.9544  0.4782
    6CHL1   C27  441   3.683   1.151   8.568 -1.0305 -0.7102 -0.2187
    6CHL1  H27A  442   3.643   1.055   8.531  0.5874 -1.6500  0.3775
    6CHL1  H27B  443   3.625   1.246   8.571  1.2977  0.8205 -0.9511
    6CHL1  H27C  444   3.755   1.184   8.490 -1.2430 -0.6492 -0.3914
    7CHL1    C3  445   6.085   3.892  10.327 -0.0667 -0.2824  0.0836
    7CHL1    H3  446   6.001   3.960  10.302  1.5010  1.1874 -1.4344
    7CHL1    O3  447   6.084   3.885  10.468 -0.1499  0.1894 -0.5701
    7CHL1   H3'  448   6.155   3.826  10.495 -1.6716 -0.4014  2.6458
    7CHL1    C4  449   6.053   3.759  10.265  0.4086  0.1911  0.0238
    7CHL1   H4A  450   6.125   3.681  10.296 -0.3273 -1.2108 -1.6064
    7CHL1   H4B  451   5.949   3.735  10.299  0.3799 -2.4727 -1.6334
    7CHL1    C5  452   6.043   3.772  10.115 -0.6726  0.7645  0.8267
    7CHL1    C6  453   5.928   3.736  10.047 -0.8911  0.4339 -0.9513
    7CHL1    H6  454   5.845   3.698  10.108 -0.8892  0.4477 -0.9399
    7CHL1    C7  455   5.914   3.730   9.896 -0.5606  0.0805 -0.1473
    7CHL1   H7A  456   5.892   3.633   9.847  2.1852 -0.4010 -0.6253
    7CHL1   H7B  457   5.849   3.811   9.856  2.6400  1.5337 -2.8587
    7CHL1    C8  458   6.054   3.755   9.832 -0.1529  0.7983  0.4392
    7CHL1    H8  459   6.113   3.661   9.841 -1.1249  0.1293 -0.0532
    7CHL1   C14  460   6.039   3.784   9.686 -0.6875  0.0416 -0.4261
    7CHL1   H14  461   5.992   3.885   9.686  1.2136  0.9784  0.7865
    7CHL1   C15  462   5.948   3.696   9.606  1.1790  0.5665 -0.6065
    7CHL1  H15A  463   5.966   3.589   9.630  1.0684  1.3503  3.8506
    7CHL1  H15B  464   5.840   3.710   9.629  1.3598  0.4968  0.3377
    7CHL1   C16  465   5.985   3.726   9.463  0.3396 -0.4599 -0.0972
    7CHL1  H16A  466   5.993   3.629   9.409 -3.4833 -0.6470 -0.6377
    7CHL1  H16B  467   5.911   3.781   9.400 -0.4780 -1.5989 -0.1645
    7CHL1   C17  468   6.118   3.822   9.464  0.0359 -0.4473 -0.2459
    7CHL1   H17  469   6.078   3.925   9.456  0.7185 -0.3356 -3.0701
    7CHL1   C13  470   6.171   3.804   9.607  0.6478 -0.5746  0.4117
    7CHL1   C18  471   6.259   3.679   9.618  0.1703 -0.5374 -0.3581
    7CHL1  H18A  472   6.202   3.592   9.581  1.7297 -2.1454  0.8114
    7CHL1  H18B  473   6.355   3.688   9.563  1.2480 -0.4774  1.4319
    7CHL1  H18C  474   6.300   3.656   9.719  0.6743  0.5922 -0.2899
    7CHL1   C12  475   6.243   3.928   9.661  0.6557 -0.9187 -0.5779
    7CHL1  H12A  476   6.335   3.948   9.604 -1.5718  1.3552 -3.7094
    7CHL1  H12B  477   6.177   4.017   9.653 -0.7668 -1.6021  2.1810
    7CHL1   C11  478   6.268   3.909   9.814 -0.3229 -0.0232 -0.2997
    7CHL1  H11A  479   6.346   3.830   9.824  2.9794  2.6583 -2.6952
    7CHL1  H11B  480   6.303   4.008   9.848 -2.8313  0.8984 -0.1746
    7CHL1    C9  481   6.140   3.866   9.897  0.3623  0.3967 -0.2194
    7CHL1    H9  482   6.073   3.954   9.896 -0.8582 -0.5058 -1.8489
    7CHL1   C10  483   6.166   3.832  10.044  0.3085 -0.8192  0.1304
    7CHL1   C19  484   6.285   3.735  10.064 -0.5565  0.6542 -0.7060
    7CHL1  H19A  485   6.269   3.646  10.001 -2.5123  1.1442 -0.9723
    7CHL1  H19B  486   6.384   3.771  10.028 -0.7966  1.7430 -0.3252
    7CHL1  H19C  487   6.297   3.694  10.167  4.4604  2.3918 -0.3080
    7CHL1    C1  488   6.201   3.964  10.111  0.2217 -0.5783  0.1953
    7CHL1   H1A  489   6.300   4.004  10.081  0.6286  0.8798  3.1049
    7CHL1   H1B  490   6.121   4.038  10.090  0.0545 -0.6515  0.5572
    7CHL1    C2  491   6.213   3.956  10.271 -0.2103 -0.5100 -0.1987
    7CHL1   H2A  492   6.212   4.062  10.303  0.6686  0.0522 -1.9547
    7CHL1   H2B  493   6.295   3.894  10.313  0.8427  1.7990  1.3829
    7CHL1   C20  494   6.202   3.795   9.345  0.4095 -0.1075  0.9864
    7CHL1   H20  495   6.217   3.686   9.330 -2.2336 -0.5230  0.8413
    7CHL1   C21  496   6.338   3.871   9.355  0.5073  0.1972 -0.3566
    7CHL1  H21A  497   6.404   3.840   9.439  0.1441 -0.4420 -0.3038
    7CHL1  H21B  498   6.331   3.982   9.367  2.4473  0.2516  0.5713
    7CHL1  H21C  499   6.397   3.859   9.261  0.0726  1.4336 -0.8122
    7CHL1   C22  500   6.126   3.855   9.214 -0.3846 -0.0645 -0.2691
    7CHL1  H22A  501   6.043   3.784   9.195  0.0237 -0.8135  0.7072
    7CHL1  H22B  502   6.089   3.958   9.233  1.0369  0.7975 -1.7942
    7CHL1   C23  503   6.220   3.875   9.092  0.1670 -0.4285 -0.7519
    7CHL1  H23A  504   6.290   3.957   9.121 -0.4375 -0.8232  2.1870
    7CHL1  H23B  505   6.280   3.783   9.073  1.8037  0.6001 -0.7674
    7CHL1   C24  506   6.157   3.913   8.960 -0.0886  0.3044 -0.1444
    7CHL1  H24A  507   6.073   3.845   8.933  0.7612 -1.7339  1.9952
    7CHL1  H24B  508   6.109   4.013   8.974  0.8171  1.1937 -2.7751
    7CHL1   C25  509   6.255   3.934   8.838 -0.0192  0.9425  0.1885
    7CHL1   H25  510   6.337   4.005   8.863 -0.9516  2.3809 -0.6542
    7CHL1   C26  511   6.304   3.806   8.779 -0.2365  0.0622 -0.3189
    7CHL1  H26A  512   6.221   3.747   8.735  0.4732 -1.0598 -0.2015
    7CHL1  H26B  513   6.377   3.818   8.696  1.2610  1.1492  1.0833
    7CHL1  H26C  514   6.362   3.746   8.853 -1.3419 -0.4540  0.1498
    7CHL1   C27  515   6.166   4.000   8.721 -0.6729 -0.3448 -0.4668
    7CHL1  H27A  516   6.087   3.933   8.679 -0.5724 -0.0577 -1.1344
    7CHL1  H27B  517   6.129   4.099   8.756 -0.9762 -1.2268  1.8524
    7CHL1  H27C  518   6.241   4.028   8.644 -1.8526  2.3120 -0.7648
    8CHL1    C3  519   1.112   5.076  10.187  0.4202 -0.3947 -0.6464
    8CHL1    H3  520   1.201   5.010  10.199  1.6504  1.1827 -0.8532
    8CHL1    O3  521   1.074   5.129  10.311 -0.2563 -0.8314  0.3431
    8CHL1   H3'  522   0.984   5.158  10.291 -0.4519  0.2859  2.5601
    8CHL1    C4  523   1.131   5.179  10.078  0.3225 -0.5776  0.6522
    8CHL1   H4A  524   1.049   5.252  10.065  0.3653 -0.8547 -1.3991
    8CHL1   H4B  525   1.214   5.245  10.111  1.3585 -1.8787  0.7346
    8CHL1    C5  526   1.156   5.126   9.939  0.5746 -0.3277 -0.7494
    8CHL1    C6  527   1.261   5.155   9.869  0.2669 -0.3691  0.1471
    8CHL1    H6  528   1.342   5.220   9.908  0.3556  0.5667 -1.5065
    8CHL1    C7  529   1.269   5.123   9.724 -0.2972 -0.0816 -0.3013
    8CHL1   H7A  530   1.308   5.216   9.676 -1.4459  1.0927  0.9464
    8CHL1   H7B  531   1.356   5.054   9.719 -0.6360 -0.4724 -0.7458
    8CHL1    C8  532   1.151   5.064   9.656  0.6446  0.0515 -0.5171
    8CHL1    H8  533   1.074   5.144   9.650 -1.5497 -1.6460  2.3004
    8CHL1   C14  534   1.182   5.000   9.521 -0.3806  0.3566 -0.2544
    8CHL1   H14  535   1.260   4.927   9.550  1.4580  2.4206  0.2209
    8CHL1   C15  536   1.245   5.085   9.406  0.6041  0.0192  0.0070
    8CHL1  H15A  537   1.198   5.185   9.409 -0.0024 -0.2764  0.4474
    8CHL1  H15B  538   1.351   5.101   9.438 -0.4882  1.8634  3.1792
    8CHL1   C16  539   1.223   5.001   9.278 -1.1605 -0.5863 -0.0287
    8CHL1  H16A  540   1.170   5.069   9.207  1.5588 -2.5805 -4.3728
    8CHL1  H16B  541   1.314   4.973   9.221  0.4162  0.7343  1.7069
    8CHL1   C17  542   1.142   4.878   9.320  0.3477  0.3143 -0.2594
    8CHL1   H17  543   1.216   4.800   9.349 -0.5939 -1.9938 -3.5859
    8CHL1   C13  544   1.064   4.928   9.453 -0.6519 -0.2443 -0.5810
    8CHL1   C18  545   0.960   5.029   9.409  0.0629  0.2153  0.2767
    8CHL1  H18A  546   0.994   5.121   9.357  3.0941  0.2533  2.0774
    8CHL1  H18B  547   0.900   4.970   9.336  2.1060  0.4285 -1.6836
    8CHL1  H18C  548   0.896   5.049   9.498  1.5396 -0.9875  1.6733
    8CHL1   C12  549   1.009   4.824   9.551  0.1785 -0.2940 -0.0814
    8CHL1  H12A  550   0.922   4.766   9.513  0.0458  0.8001 -1.5243
    8CHL1  H12B  551   1.090   4.750   9.568  0.9280  0.7085  0.8917
    8CHL1   C11  552   0.972   4.878   9.692 -0.5486 -0.4196  1.1753
    8CHL1  H11A  553   0.880   4.940   9.689  0.5307  1.1890 -0.5160
    8CHL1  H11B  554   0.946   4.796   9.763  1.4152 -1.5254  0.6994
    8CHL1    C9  555   1.090   4.963   9.752  0.3460  0.4272 -0.4479
    8CHL1    H9  556   1.170   4.886   9.766 -0.6758 -1.0381 -2.1392
    8CHL1   C10  557   1.050   5.029   9.885  0.1814 -0.1267 -0.2310
    8CHL1   C19  558   0.918   5.115   9.870 -0.5095  0.3860 -0.0512
    8CHL1  H19A  559   0.923   5.168   9.772  1.0657  2.2669  0.9690
    8CHL1  H19B  560   0.831   5.045   9.866 -0.9081  0.9033 -0.6711
    8CHL1  H19C  561   0.896   5.204   9.933 -0.3335 -0.1409  0.7628
    8CHL1    C1  562   1.036   4.925   9.999  0.2730 -0.2890 -0.2177
    8CHL1   H1A  563   0.948   4.861   9.977  0.7900 -1.1420  0.0965
    8CHL1   H1B  564   1.125   4.858  10.004  1.6753  1.5645  3.0935
    8CHL1    C2  565   1.004   4.984  10.141  0.3511 -0.4897 -0.5079
    8CHL1   H2A  566   0.990   4.908  10.221 -0.3755  1.2403  1.0730
    8CHL1   H2B  567   0.908   5.038  10.138  1.1692  1.0593  0.0346
    8CHL1   C20  568   1.073   4.824   9.199  0.3015  0.3099  0.4018
    8CHL1   H20  569   0.995   4.896   9.168 -0.2060  0.0537  1.0556
    8CHL1   C21  570   1.000   4.692   9.235  0.8853 -0.3984 -0.3779
    8CHL1  H21A  571   0.915   4.709   9.305  0.7613 -1.9193 -0.1070
    8CHL1  H21B  572   1.074   4.625   9.284  1.0944  0.0719 -0.0474
    8CHL1  H21C  573   0.948   4.641   9.150 -1.2802  0.1049  0.5923
    8CHL1   C22  574   1.154   4.808   9.066 -0.0220  0.5367 -0.1422
    8CHL1  H22A  575   1.215   4.896   9.037 -0.4214  1.0288  0.4564
    8CHL1  H22B  576   1.211   4.713   9.063  0.1797  0.6934 -2.7554
    8CHL1   C23  577   1.064   4.795   8.940  0.3075 -0.1812 -0.1041
    8CHL1  H23A  578   0.996   4.708   8.952 -2.7400  1.7544 -1.9860
    8CHL1  H23B  579   1.004   4.888   8.931 -1.3888 -1.1998  0.3814
    8CHL1   C24  580   1.135   4.776   8.805  0.4117  0.3466  0.3380
    8CHL1  H24A  581   1.218   4.849   8.804  2.6886 -2.0195  1.6019
    8CHL1  H24B  582   1.184   4.676   8.811 -0.6132 -0.2610 -0.9688
    8CHL1   C25  583   1.048   4.790   8.681  0.2993 -0.2802 -0.1020
    8CHL1   H25  584   0.981   4.878   8.687 -0.9967 -0.9389 -2.9153
    8CHL1   C26  585   1.123   4.820   8.548  0.0416  0.1328  0.1526
    8CHL1  H26A  586   1.178   4.915   8.566 -0.1117  0.1871  0.3352
    8CHL1  H26B  587   1.198   4.743   8.523  1.4317  1.8152 -1.1575
    8CHL1  H26C  588   1.060   4.845   8.459  1.7480  2.5323 -0.4998
    8CHL1   C27  589   0.951   4.674   8.669  0.6120  0.1471 -0.3283
    8CHL1  H27A  590   0.915   4.653   8.772 -0.4189  0.1802 -0.6690
    8CHL1  H27B  591   0.863   4.693   8.603  0.4158  0.5653  0.0502
    8CHL1  H27C  592   1.000   4.587   8.621  2.0695 -0.4156  2.0097
    9CHL1    C3  593   3.372   1.665  10.150  0.0603 -0.0350  0.4571
    9CHL1    H3  594   3.473   1.682  10.108 -0.3861 -0.9650 -1.0473
    9CHL1    O3  595   3.373   1.730  10.275  0.0142 -0.1933 -0.1096
    9CHL1   H3'  596   3.418   1.675  10.339  3.9956  1.5799 -1.0691
    9CHL1    C4  597   3.272   1.718  10.051  0.3144 -0.5197  0.4070
    9CHL1   H4A  598   3.168   1.703  10.090 -0.0093  1.0772  0.2481
    9CHL1   H4B  599   3.276   1.829  10.050  3.0588 -0.5031  2.5204
    9CHL1    C5  600   3.280   1.646   9.919 -0.4141 -0.7869 -1.0277
    9CHL1    C6  601   3.313   1.719   9.811 -0.3736  0.1621  0.6643
    9CHL1    H6  602   3.335   1.826   9.823 -0.1628  0.0816  0.9945
    9CHL1    C7  603   3.321   1.658   9.676 -0.2392  0.1894 -0.2452
    9CHL1   H7A  604   3.260   1.732   9.619 -1.4621  0.6639  1.5750
    9CHL1   H7B  605   3.426   1.654   9.640 -0.6188 -0.2511 -1.3466
    9CHL1    C8  606   3.245   1.526   9.678 -0.5630 -0.3196  0.4138
    9CHL1    H8  607   3.140   1.556   9.699 -0.4577 -0.1751  0.7411
    9CHL1   C14  608   3.276   1.478   9.540 -0.8461  0.1247  0.9897
    9CHL1   H14  609   3.386   1.460   9.532 -1.0936 -0.7317 -1.0609
    9CHL1   C15  610   3.243   1.576   9.423 -0.0037 -0.3481  0.1865
    9CHL1  H15A  611   3.142   1.622   9.428 -0.4014 -0.7160 -2.7225
    9CHL1  H15B  612   3.323   1.653   9.429  1.5673 -1.8892 -0.1066
    9CHL1   C16  613   3.264   1.487   9.299 -0.1829  0.7323 -0.2459
    9CHL1  H16A  614   3.186   1.502   9.222 -2.4433 -2.0404  1.3310
    9CHL1  H16B  615   3.368   1.494   9.259 -0.1924 -1.9208 -0.9162
    9CHL1   C17  616   3.247   1.335   9.349 -0.1583  0.0626 -0.6596
    9CHL1   H17  617   3.346   1.285   9.354 -0.8102 -1.2748 -0.7743
    9CHL1   C13  618   3.208   1.354   9.505  0.6410 -0.4856  0.5615
    9CHL1   C18  619   3.054   1.370   9.510 -0.5139  0.2666  0.7215
    9CHL1  H18A  620   3.013   1.417   9.418  0.4601 -0.3504 -0.0542
    9CHL1  H18B  621   3.009   1.268   9.511  2.1394 -1.0657 -1.4269
    9CHL1  H18C  622   3.028   1.428   9.601  0.0548  1.3562  0.2078
    9CHL1   C12  623   3.250   1.249   9.613 -0.0129 -0.5702  0.7081
    9CHL1  H12A  624   3.185   1.159   9.600 -0.2049 -0.4825  1.0457
    9CHL1  H12B  625   3.359   1.239   9.594  0.3185  0.0242  2.1864
    9CHL1   C11  626   3.213   1.294   9.757  0.5204  0.6863 -0.0594
    9CHL1  H11A  627   3.103   1.291   9.773  0.7188 -0.7883  1.3481
    9CHL1  H11B  628   3.249   1.218   9.830 -1.0994  0.9531  1.0635
    9CHL1    C9  629   3.281   1.427   9.788  0.0261 -0.4573 -0.7483
    9CHL1    H9  630   3.391   1.411   9.780  0.0372 -0.9460  0.3046
    9CHL1   C10  631   3.262   1.489   9.929  0.4526  0.3247 -0.0321
    9CHL1   C19  632   3.113   1.458   9.969 -0.5551 -0.6595 -0.2478
    9CHL1  H19A  633   3.044   1.491   9.888  0.3003  3.0404  0.3790
    9CHL1  H19B  634   3.102   1.348   9.979  4.7644 -1.3327  1.2998
    9CHL1  H19C  635   3.090   1.507  10.066 -0.3433 -0.6921 -0.1819
    9CHL1    C1  636   3.358   1.432  10.048  0.8988 -0.0858 -0.0798
    9CHL1   H1A  637   3.329   1.326  10.061  1.5688 -0.2368  0.2112
    9CHL1   H1B  638   3.460   1.431  10.005  0.6974 -1.0439 -0.5739
    9CHL1    C2  639   3.361   1.517  10.176  0.3366  0.4756  0.2972
    9CHL1   H2A  640   3.447   1.484  10.239  1.6604 -0.0106 -1.6967
    9CHL1   H2B  641   3.260   1.501  10.221 -0.8155  1.9479 -1.6193
    9CHL1   C20  642   3.177   1.241   9.255  0.4022 -0.0981  0.8521
    9CHL1   H20  643   3.071   1.274   9.248  0.4316 -0.3018 -2.1719
    9CHL1   C21  644   3.169   1.106   9.324  0.2458 -0.0306 -0.4159
    9CHL1  H21A  645   3.108   1.115   9.417  0.4233  1.5209 -0.4107
    9CHL1  H21B  646   3.269   1.072   9.358  0.1098 -0.7982 -0.7780
    9CHL1  H21C  647   3.121   1.031   9.258  0.4812 -0.6943  0.1561
    9CHL1   C22  648   3.255   1.219   9.119  0.6819 -0.2078  0.6198
    9CHL1  H22A  649   3.271   1.324   9.085 -1.8675  0.4641  1.2514
    9CHL1  H22B  650   3.350   1.164   9.135  0.5263 -0.9071 -0.7275
    9CHL1   C23  651   3.168   1.156   9.008  0.3955  0.3727  0.2114
    9CHL1  H23A  652   3.207   1.163   8.904 -0.7432 -0.9825 -0.3349
    9CHL1  H23B  653   3.155   1.047   9.025 -1.3424  0.5492  0.1595
    9CHL1   C24  654   3.018   1.198   8.990 -0.0423  0.9994 -0.1809
    9CHL1  H24A  655   2.953   1.179   9.078  2.2242  3.4219  2.2016
    9CHL1  H24B  656   3.019   1.307   8.970  0.1436  0.8153 -1.2092
    9CHL1   C25  657   2.934   1.132   8.875  0.1990  0.0680  0.2699
    9CHL1   H25  658   2.992   1.142   8.781 -0.1306 -1.0523 -0.0745
    9CHL1   C26  659   2.903   0.982   8.899 -0.3342 -0.3499  0.4896
    9CHL1  H26A  660   2.848   0.940   8.813 -0.2666 -1.1367  0.8242
    9CHL1  H26B  661   2.998   0.928   8.918  0.2318  1.3897  3.3481
    9CHL1  H26C  662   2.844   0.961   8.991  0.5293 -1.6142  0.7866
    9CHL1   C27  663   2.805   1.210   8.851  0.2679 -0.4348  0.0004
    9CHL1  H27A  664   2.813   1.320   8.864 -2.1588 -0.2858  0.8621
    9CHL1  H27B  665   2.773   1.184   8.747 -0.5441 -0.6600  0.2960
    9CHL1  H27C  666   2.721   1.173   8.914 -2.2831  2.0018 -1.7294
   10CHL1    C3  667   2.695   4.071   9.941  0.4640 -0.2653  0.4852
   10CHL1    H3  668   2.597   4.115   9.912  1.9781  1.0889 -3.3103
   10CHL1    O3  669   2.725   4.095  10.077 -0.0708 -0.2060 -0.2704
   10CHL1   H3'  670   2.668   4.036  10.127  0.1111  0.1353  0.3558
   10CHL1    C4  671   2.709   3.919   9.924 -0.5581  0.5826 -0.2561
   10CHL1   H4A  672   2.810   3.904   9.966 -0.9314 -1.0707  0.1397
   10CHL1   H4B  673   2.626   3.874   9.983 -0.8347  0.2121 -0.9095
   10CHL1    C5  674   2.712   3.872   9.779  0.3233  0.2148 -0.1523
   10CHL1    C6  675   2.647   3.769   9.732 -0.0983 -0.2913 -0.2087
   10CHL1    H6  676   2.587   3.714   9.806 -2.1738  0.1686 -1.4759
   10CHL1    C7  677   2.638   3.716   9.590 -0.5220  0.1843  0.2308
   10CHL1   H7A  678   2.651   3.607   9.573 -1.3394  0.5052 -3.1183
   10CHL1   H7B  679   2.541   3.746   9.546 -1.9218 -0.9151  2.3808
   10CHL1    C8  680   2.745   3.785   9.505  0.3790  0.3439  0.3715
   10CHL1    H8  681   2.841   3.732   9.525 -1.7138 -3.1828  1.9919
   10CHL1   C14  682   2.710   3.767   9.358 -0.5538 -0.0652 -0.3475
   10CHL1   H14  683   2.629   3.838   9.335 -0.3200  0.1063 -0.6498
   10CHL1   C15  684   2.662   3.632   9.307 -0.4650  0.4425 -0.2092
   10CHL1  H15A  685   2.723   3.547   9.343 -1.7371  0.0592  1.1273
   10CHL1  H15B  686   2.561   3.601   9.340 -0.0729 -0.5832  0.0561
   10CHL1   C16  687   2.675   3.652   9.158  1.3021  0.4910  0.4624
   10CHL1  H16A  688   2.715   3.561   9.109 -2.0275 -1.1396  0.5045
   10CHL1  H16B  689   2.574   3.674   9.117  1.5538  1.4875  0.3283
   10CHL1   C17  690   2.762   3.775   9.125  0.0404 -0.3780 -0.2615
   10CHL1   H17  691   2.689   3.853   9.096  0.0776 -0.9599 -2.0075
   10CHL1   C13  692   2.824   3.813   9.259 -0.7675  0.0021 -0.6155
   10CHL1   C18  693   2.954   3.728   9.290 -0.3366 -0.4076 -0.3883
   10CHL1  H18A  694   2.918   3.623   9.291 -0.3078 -0.4568  1.8230
   10CHL1  H18B  695   3.033   3.755   9.216  0.1759  0.4075  0.4269
   10CHL1  H18C  696   2.989   3.756   9.392 -0.3500  0.9737 -0.7424
   10CHL1   C12  697   2.837   3.961   9.286 -0.5191 -0.3930  0.0335
   10CHL1  H12A  698   2.919   4.014   9.231 -1.1325  2.7870  1.9522
   10CHL1  H12B  699   2.742   4.009   9.256 -0.9679 -0.1704  1.7188
   10CHL1   C11  700   2.861   3.997   9.431  0.3676 -0.1112 -0.1073
   10CHL1  H11A  701   2.966   3.968   9.454 -0.1179 -1.5771  0.3663
   10CHL1  H11B  702   2.851   4.107   9.448  0.5777 -0.1753  0.4592
   10CHL1    C9  703   2.761   3.936   9.536 -0.1867  1.2011  1.3261
   10CHL1    H9  704   2.661   3.979   9.517 -0.7548 -0.1990  0.9831
   10CHL1   C10  705   2.802   3.957   9.687 -0.3466  0.2797 -0.0382
   10CHL1   C19  706   2.941   3.906   9.710  0.2666  0.0748  0.2066
   10CHL1  H19A  707   3.012   3.954   9.640  0.1122  0.2530  0.1721
   10CHL1  H19B  708   2.980   3.923   9.813  1.0875 -1.2127  0.1315
   10CHL1  H19C  709   2.944   3.796   9.692 -1.4704  0.0615 -0.0899
   10CHL1    C1  710   2.793   4.105   9.708  0.2821 -0.4772  0.8347
   10CHL1   H1A  711   2.861   4.164   9.643 -0.4818 -0.7268 -0.2219
   10CHL1   H1B  712   2.689   4.129   9.676  1.3885  0.5629 -2.4161
   10CHL1    C2  713   2.799   4.144   9.859 -0.7786  0.3854  0.2592
   10CHL1   H2A  714   2.774   4.252   9.864 -2.1304  0.1114  0.0150
   10CHL1   H2B  715   2.903   4.133   9.895 -0.9316 -1.8971  0.1486
   10CHL1   C20  716   2.861   3.754   9.012 -0.2739 -0.0286  0.3905
   10CHL1   H20  717   2.930   3.673   9.042 -1.1214 -0.8334  0.1976
   10CHL1   C21  718   2.942   3.882   8.984 -0.4674 -1.2823  0.1440
   10CHL1  H21A  719   3.010   3.903   9.069  0.2798  0.4344 -0.8191
   10CHL1  H21B  720   2.871   3.966   8.967  2.6732  1.3731 -0.7420
   10CHL1  H21C  721   3.008   3.870   8.895  0.1890 -2.6868  0.7933
   10CHL1   C22  722   2.801   3.696   8.878  0.1333  0.0507  0.4964
   10CHL1  H22A  723   2.886   3.668   8.813 -1.4410  2.6163 -2.9868
   10CHL1  H22B  724   2.756   3.597   8.905  1.2325 -0.4572  0.5086
   10CHL1   C23  725   2.692   3.780   8.809  0.0516 -0.4272 -0.5587
   10CHL1  H23A  726   2.623   3.812   8.890  1.2619 -0.0041  0.3434
   10CHL1  H23B  727   2.736   3.876   8.772  0.4171  0.0073  0.9114
   10CHL1   C24  728   2.638   3.713   8.681  0.0737  0.3997 -0.5675
   10CHL1  H24A  729   2.573   3.623   8.694  0.9657 -0.5317 -2.2397
   10CHL1  H24B  730   2.563   3.780   8.634 -1.1022  1.0032  1.9803
   10CHL1   C25  731   2.744   3.669   8.573  0.1101 -0.1890 -0.3081
   10CHL1   H25  732   2.817   3.600   8.620 -2.2778 -1.1707  2.2256
   10CHL1   C26  733   2.676   3.598   8.455 -0.2219  0.6169 -0.6803
   10CHL1  H26A  734   2.583   3.644   8.417 -0.3394 -1.0307 -2.5522
   10CHL1  H26B  735   2.737   3.586   8.363 -0.5091  2.2241 -1.1008
   10CHL1  H26C  736   2.656   3.494   8.491  1.6235  0.2917 -0.4687
   10CHL1   C27  737   2.816   3.796   8.517 -0.1554 -0.5167  0.3566
   10CHL1  H27A  738   2.890   3.768   8.439 -0.4507 -0.2520 -0.0168
   10CHL1  H27B  739   2.740   3.863   8.473 -0.5785 -1.3972 -0.3015
   10CHL1  H27C  740   2.869   3.838   8.605  0.1361  0.6470 -0.3502
   11CHL1    C3  741   5.981   1.891   9.982  0.1131  0.1186  0.2056
   11CHL1    H3  742   5.928   1.988   9.984  0.7525  0.4985 -0.6954
   11CHL1    O3  743   5.997   1.838  10.111  0.4304  0.3377 -0.3319
   11CHL1   H3'  744   6.076   1.784  10.108  0.0208 -0.7488  3.3567
   11CHL1    C4  745   5.895   1.783   9.908 -0.3033  0.3293  0.1950
   11CHL1   H4A  746   5.944   1.684   9.918 -0.8584  0.0671  0.3280
   11CHL1   H4B  747   5.796   1.773   9.959 -1.2588  4.1844 -0.5424
   11CHL1    C5  748   5.870   1.812   9.758  0.1766 -0.7958 -0.2155
   11CHL1    C6  749   5.749   1.829   9.706  0.9012 -0.3317 -0.4396
   11CHL1    H6  750   5.663   1.829   9.774  2.3636  2.0102  1.5772
   11CHL1    C7  751   5.714   1.839   9.562  0.3485  0.2814 -0.6679
   11CHL1   H7A  752   5.627   1.774   9.536 -0.0661  0.1947  0.7884
   11CHL1   H7B  753   5.682   1.943   9.540 -0.2818  0.2221 -0.0885
   11CHL1    C8  754   5.838   1.813   9.479 -0.4195 -0.5123  0.3364
   11CHL1    H8  755   5.861   1.704   9.477  0.5728 -0.3854 -3.4944
   11CHL1   C14  756   5.816   1.863   9.334  0.7822 -0.8728  0.2701
   11CHL1   H14  757   5.794   1.972   9.329 -1.3712 -1.2984 -0.7807
   11CHL1   C15  758   5.699   1.797   9.271  0.9920  0.3239  0.1632
   11CHL1  H15A  759   5.704   1.688   9.293 -1.2935 -0.1505 -1.4206
   11CHL1  H15B  760   5.603   1.840   9.306  0.3934 -0.4788 -0.4830
   11CHL1   C16  761   5.716   1.821   9.121 -0.1549 -0.1169  0.5300
   11CHL1  H16A  762   5.704   1.729   9.060 -1.2629  1.0132 -1.0001
   11CHL1  H16B  763   5.647   1.900   9.086  0.7953 -0.4771 -2.4044
   11CHL1   C17  764   5.865   1.875   9.110  0.1743 -0.0783  0.2628
   11CHL1   H17  765   5.848   1.984   9.126  0.1246  0.1163 -1.0482
   11CHL1   C13  766   5.936   1.838   9.247 -0.8961 -0.0614  0.5489
   11CHL1   C18  767   5.973   1.692   9.235 -0.3058 -0.3085 -0.0735
   11CHL1  H18A  768   6.016   1.653   9.330 -0.4931  0.1019  0.1796
   11CHL1  H18B  769   5.884   1.638   9.196 -1.2117 -0.9492  2.6657
   11CHL1  H18C  770   6.051   1.667   9.160 -0.6363 -2.5767  0.2639
   11CHL1   C12  771   6.051   1.934   9.296  0.4342 -0.4566  0.4433
   11CHL1  H12A  772   6.146   1.916   9.242 -0.3534 -0.1763 -1.1131
   11CHL1  H12B  773   6.012   2.038   9.292  0.9332 -0.2199  1.4643
   11CHL1   C11  774   6.080   1.897   9.450 -0.0717  0.0001  0.0020
   11CHL1  H11A  775   6.133   1.800   9.442  1.1755  0.3862  2.5109
   11CHL1  H11B  776   6.161   1.968   9.479  0.5605  1.0040 -3.6831
   11CHL1    C9  777   5.957   1.893   9.539 -0.3690 -0.0710  1.0117
   11CHL1    H9  778   5.923   1.997   9.556  2.1899  1.2725 -1.2967
   11CHL1   C10  779   5.994   1.842   9.678  0.0430 -0.6455 -0.0054
   11CHL1   C19  780   6.080   1.709   9.663 -0.1700 -0.5003  0.2232
   11CHL1  H19A  781   6.186   1.733   9.636 -1.2470  1.2692 -3.0126
   11CHL1  H19B  782   6.087   1.659   9.762  1.0673 -0.4590  0.1799
   11CHL1  H19C  783   6.055   1.635   9.584 -1.3102  1.7415 -1.6441
   11CHL1    C1  784   6.077   1.952   9.750  0.4362 -1.1842 -0.5928
   11CHL1   H1A  785   6.177   1.960   9.700  0.3757  0.3277 -0.5075
   11CHL1   H1B  786   6.019   2.046   9.753  1.3416 -0.5903 -1.0715
   11CHL1    C2  787   6.113   1.911   9.899  0.2615 -0.0504  0.2236
   11CHL1   H2A  788   6.162   2.005   9.933  0.8727  0.1229 -1.1047
   11CHL1   H2B  789   6.186   1.829   9.887 -2.1474 -2.2476 -0.2147
   11CHL1   C20  790   5.924   1.851   8.965  0.3066 -0.4836  0.7901
   11CHL1   H20  791   5.934   1.740   8.955  2.0411 -0.2314 -0.9157
   11CHL1   C21  792   6.072   1.902   8.953 -0.8680  0.5146  0.0160
   11CHL1  H21A  793   6.108   1.876   8.851 -0.2405  0.8349  0.1506
   11CHL1  H21B  794   6.134   1.856   9.032  1.2846  1.0693 -1.2764
   11CHL1  H21C  795   6.084   2.013   8.953 -0.3837  0.4761 -0.8461
   11CHL1   C22  796   5.840   1.896   8.844  0.1248  0.3160  0.6463
   11CHL1  H22A  797   5.898   1.886   8.749 -0.4242  1.5232  0.1630
   11CHL1  H22B  798   5.769   1.813   8.821  0.2262  0.5536 -0.6291
   11CHL1   C23  799   5.799   2.040   8.848 -0.1988 -0.2165 -0.3824
   11CHL1  H23A  800   5.748   2.064   8.943  1.2405 -0.3325  0.4394
   11CHL1  H23B  801   5.884   2.111   8.851 -1.0869  1.0188 -2.1643
   11CHL1   C24  802   5.700   2.075   8.737  0.3417  0.3975 -0.3699
   11CHL1  H24A  803   5.606   2.018   8.753  0.5245  0.2700  0.2856
   11CHL1  H24B  804   5.680   2.184   8.747 -3.4306 -0.2856  1.1661
   11CHL1   C25  805   5.749   2.044   8.595 -0.1529 -0.2049 -0.3488
   11CHL1   H25  806   5.777   1.938   8.577 -0.6475 -0.0771 -2.0467
   11CHL1   C26  807   5.637   2.080   8.495 -0.5577  0.5642  0.1201
   11CHL1  H26A  808   5.588   2.178   8.515 -2.4286 -0.3309  0.1326
   11CHL1  H26B  809   5.680   2.073   8.393  1.1345 -0.9278  0.8716
   11CHL1  H26C  810   5.572   1.990   8.494  0.6356 -0.3552  1.1121
   11CHL1   C27  811   5.868   2.136   8.566  0.2411  0.3857 -0.2723
   11CHL1  H27A  812   5.833   2.241   8.581 -1.1969 -0.4989  3.8694
   11CHL1  H27B  813   5.950   2.117   8.638  0.4449  0.3875 -0.5026
   11CHL1  H27C  814   5.907   2.125   8.463 -2.8943  0.0333 -1.5165
   12CHL1    C3  815   1.582   4.114  10.298 -0.7225 -0.0460  0.1694
   12CHL1    H3  816   1.642   4.024  10.323 -0.0126  0.1351 -0.7939
   12CHL1    O3  817   1.564   4.190  10.408  0.4521 -0.3494 -0.3209
   12CHL1   H3'  818   1.516   4.137  10.472  0.9188  2.1764  2.3430
   12CHL1    C4  819   1.650   4.206  10.192  0.2279  0.1591 -0.3323
   12CHL1   H4A  820   1.608   4.309  10.194  1.4120  0.6506  1.4731
   12CHL1   H4B  821   1.752   4.235  10.226  0.4986  0.1088 -1.0762
   12CHL1    C5  822   1.653   4.151  10.049 -0.1689 -0.2069  0.2334
   12CHL1    C6  823   1.767   4.134   9.980  0.3656  0.4552 -0.0952
   12CHL1    H6  824   1.862   4.147  10.033 -0.1127 -1.2551  1.2821
   12CHL1    C7  825   1.778   4.084   9.838 -0.0699  0.0193 -0.2988
   12CHL1   H7A  826   1.844   4.146   9.774  0.4300 -1.2094 -1.0187
   12CHL1   H7B  827   1.813   3.979   9.823 -1.0122 -0.1785 -1.2068
   12CHL1    C8  828   1.633   4.074   9.770 -0.0234 -0.1408 -0.1770
   12CHL1    H8  829   1.611   4.179   9.744  0.7128  0.0281 -0.1282
   12CHL1   C14  830   1.634   3.997   9.633 -0.1624  0.3787 -0.1118
   12CHL1   H14  831   1.650   3.893   9.670 -0.6491  0.4664  0.3616
   12CHL1   C15  832   1.740   4.024   9.523 -0.6592 -0.0569  0.3776
   12CHL1  H15A  833   1.736   4.131   9.496 -1.0841  0.1948  1.3764
   12CHL1  H15B  834   1.844   3.992   9.546 -0.9520 -0.5632  1.0495
   12CHL1   C16  835   1.686   3.935   9.405  0.3953 -0.0920 -0.2636
   12CHL1  H16A  836   1.704   3.997   9.314  1.6358 -2.5529 -1.8180
   12CHL1  H16B  837   1.750   3.844   9.396  0.5696 -0.0688  0.6744
   12CHL1   C17  838   1.537   3.896   9.436 -0.9780  0.5338 -0.1578
   12CHL1   H17  839   1.544   3.789   9.465  3.3169  0.6674 -0.0726
   12CHL1   C13  840   1.501   3.975   9.565 -0.0349  0.5224  0.4242
   12CHL1   C18  841   1.445   4.119   9.531 -0.1895  0.0206  0.1218
   12CHL1  H18A  842   1.444   4.181   9.623  0.6878 -1.0029  0.8480
   12CHL1  H18B  843   1.506   4.174   9.456 -0.1285 -0.2865 -0.0540
   12CHL1  H18C  844   1.342   4.102   9.494 -2.4936  2.4804  4.5714
   12CHL1   C12  845   1.408   3.899   9.662  0.8248 -0.4235 -0.2630
   12CHL1  H12A  846   1.304   3.882   9.628  0.2377 -0.4648  1.4277
   12CHL1  H12B  847   1.445   3.796   9.681 -2.3314 -1.7248 -0.5765
   12CHL1   C11  848   1.397   3.967   9.802  0.3330  0.1747  0.0347
   12CHL1  H11A  849   1.334   4.057   9.786 -0.3275  0.3426  3.0019
   12CHL1  H11B  850   1.334   3.899   9.862  0.0480  0.7773  0.4222
   12CHL1    C9  851   1.530   4.011   9.865 -0.5910 -0.5367 -0.1651
   12CHL1    H9  852   1.575   3.917   9.905  0.1458 -1.0581 -2.1343
   12CHL1   C10  853   1.518   4.099   9.994 -0.0986 -0.7689 -0.0053
   12CHL1   C19  854   1.438   4.229   9.969  0.4277  0.5340  0.0603
   12CHL1  H19A  855   1.426   4.300  10.055 -2.2527 -1.0384  1.1044
   12CHL1  H19B  856   1.472   4.286   9.880 -0.4318 -0.1347 -0.7044
   12CHL1  H19C  857   1.333   4.202   9.948 -0.2140  1.5346  1.7425
   12CHL1    C1  858   1.445   4.010  10.104 -0.1189  0.1849  0.0765
   12CHL1   H1A  859   1.338   4.008  10.075 -0.4991 -0.1507  1.4798
   12CHL1   H1B  860   1.487   3.908  10.097 -0.0466  0.2922 -1.4332
   12CHL1    C2  861   1.445   4.079  10.244  0.9754  0.2492  0.5053
   12CHL1   H2A  862   1.385   4.015  10.312 -0.5173 -0.9610 -1.7899
   12CHL1   H2B  863   1.384   4.170  10.231 -0.3889 -0.9893 -3.6492
   12CHL1   C20  864   1.451   3.906   9.313  0.6050 -0.0638  0.5323
   12CHL1   H20  865   1.431   4.013   9.295 -1.1580 -0.5124 -0.4110
   12CHL1   C21  866   1.320   3.821   9.320  0.5679  0.2538  0.2756
   12CHL1  H21A  867   1.347   3.713   9.320  3.1403  0.8348 -0.2283
   12CHL1  H21B  868   1.255   3.858   9.237  1.0275  0.3691 -0.0366
   12CHL1  H21C  869   1.261   3.841   9.412 -1.8066 -1.4296 -0.7557
   12CHL1   C22  870   1.518   3.868   9.180  0.5061 -0.5780  0.0851
   12CHL1  H22A  871   1.613   3.923   9.165  0.9299 -1.3212 -0.0386
   12CHL1  H22B  872   1.535   3.758   9.176 -0.8520 -0.9030  1.8792
   12CHL1   C23  873   1.459   3.907   9.044  0.2723  0.4945 -0.4533
   12CHL1  H23A  874   1.358   3.862   9.040 -0.3290  1.7121  0.4155
   12CHL1  H23B  875   1.443   4.017   9.039  0.4436  0.4831 -1.2938
   12CHL1   C24  876   1.541   3.861   8.926 -0.2370 -0.6173  0.7299
   12CHL1  H24A  877   1.640   3.912   8.935 -1.0017  0.6212  2.7029
   12CHL1  H24B  878   1.569   3.755   8.941  4.6173  0.3945  0.6015
   12CHL1   C25  879   1.494   3.881   8.785  0.0173 -0.0249 -0.3012
   12CHL1   H25  880   1.387   3.851   8.791  0.6723 -2.2947  2.4803
   12CHL1   C26  881   1.504   4.028   8.730 -0.2668 -0.1222 -0.4315
   12CHL1  H26A  882   1.607   4.059   8.702  0.5809 -1.4516  1.0867
   12CHL1  H26B  883   1.440   4.025   8.639 -2.4659 -0.5916  1.0503
   12CHL1  H26C  884   1.467   4.106   8.800 -0.3612  0.9945 -1.6773
   12CHL1   C27  885   1.572   3.791   8.685  0.2146 -0.0160  0.3410
   12CHL1  H27A  886   1.586   3.688   8.722 -0.2620  0.4321  1.8649
   12CHL1  H27B  887   1.534   3.789   8.581 -1.0602  0.7284  0.7638
   12CHL1  H27C  888   1.675   3.829   8.667  0.1806 -0.5434 -1.1030
   13CHL1    C3  889   1.279   2.343  10.150 -0.3137 -0.3983 -0.0916
   13CHL1    H3  890   1.216   2.434  10.137  0.0507 -0.3309 -1.5427
   13CHL1    O3  891   1.362   2.352  10.271  0.5622 -0.0778 -0.1117
   13CHL1   H3'  892   1.372   2.266  10.313  1.4414  0.5300  0.9503
   13CHL1    C4  893   1.193   2.218  10.161  0.3933 -0.0050 -0.0086
   13CHL1   H4A  894   1.261   2.130  10.169 -1.1037 -1.0384  2.3392
   13CHL1   H4B  895   1.137   2.219  10.257 -1.8148 -1.8473 -1.1794
   13CHL1    C5  896   1.104   2.196  10.041 -0.6431 -0.1870 -0.7921
   13CHL1    C6  897   0.970   2.185  10.048 -0.4247  0.2084 -0.6190
   13CHL1    H6  898   0.915   2.188  10.143 -0.1720 -0.4012 -0.4507
   13CHL1    C7  899   0.881   2.157   9.927 -0.3490 -0.3094 -0.1934
   13CHL1   H7A  900   0.809   2.073   9.941  0.1185 -0.7838 -0.6254
   13CHL1   H7B  901   0.821   2.247   9.904 -0.6554 -0.8321 -1.5620
   13CHL1    C8  902   0.953   2.129   9.794 -0.7451  0.2048 -0.2834
   13CHL1    H8  903   0.986   2.023   9.796  1.6146  0.8844  2.1781
   13CHL1   C14  904   0.867   2.168   9.677  1.1563  0.1186  0.3942
   13CHL1   H14  905   0.848   2.276   9.690 -0.2617  0.1110 -1.2934
   13CHL1   C15  906   0.726   2.102   9.664  0.0900 -0.2743 -0.4832
   13CHL1  H15A  907   0.733   1.991   9.675 -2.2171 -0.3936  0.3371
   13CHL1  H15B  908   0.661   2.150   9.739  1.0809  0.7782 -0.2699
   13CHL1   C16  909   0.689   2.128   9.521  0.1561  0.2620 -0.0311
   13CHL1  H16A  910   0.662   2.035   9.468  2.7383 -0.1768 -0.7330
   13CHL1  H16B  911   0.612   2.206   9.503 -0.5058 -0.5826 -0.9446
   13CHL1   C17  912   0.815   2.178   9.445  0.3631 -0.2729 -0.4947
   13CHL1   H17  913   0.802   2.289   9.441 -1.4031 -0.2568  2.8097
   13CHL1   C13  914   0.935   2.144   9.544 -0.3044 -0.1875 -0.3406
   13CHL1   C18  915   0.974   1.993   9.519 -0.0069 -0.6581  0.0654
   13CHL1  H18A  916   0.885   1.929   9.535 -0.7109  0.2703 -0.0409
   13CHL1  H18B  917   1.012   1.973   9.417  0.7747 -0.9537  0.4060
   13CHL1  H18C  918   1.062   1.960   9.578  2.1284  0.9182 -2.0283
   13CHL1   C12  919   1.054   2.241   9.538 -0.6773 -0.1926 -0.6614
   13CHL1  H12A  920   1.104   2.238   9.439  0.9953  0.2522  0.1420
   13CHL1  H12B  921   1.012   2.343   9.547 -0.1018 -0.0744  1.1862
   13CHL1   C11  922   1.150   2.223   9.648  0.4895 -0.7461 -1.1772
   13CHL1  H11A  923   1.196   2.123   9.637  2.0683 -0.1762 -0.1710
   13CHL1  H11B  924   1.240   2.289   9.644 -1.4348  2.2042  0.2594
   13CHL1    C9  925   1.083   2.223   9.787 -0.4411  0.3933  0.4586
   13CHL1    H9  926   1.042   2.325   9.801 -0.2036  0.6032 -0.3516
   13CHL1   C10  927   1.181   2.205   9.907 -0.1790  0.2649 -0.1169
   13CHL1   C19  928   1.268   2.086   9.883  0.0252  0.2405 -0.0509
   13CHL1  H19A  929   1.335   2.075   9.970  2.3125  2.5507 -1.3750
   13CHL1  H19B  930   1.210   1.991   9.871  0.1239 -0.0473  1.5780
   13CHL1  H19C  931   1.323   2.096   9.787  1.5363 -0.6936  0.6799
   13CHL1    C1  932   1.276   2.326   9.907 -0.1411  0.0600  0.2697
   13CHL1   H1A  933   1.334   2.333   9.813  0.8273  0.5845  0.8910
   13CHL1   H1B  934   1.203   2.409   9.917 -1.3216 -0.7837 -1.0053
   13CHL1    C2  935   1.368   2.335  10.028 -0.6308  0.2589  0.0751
   13CHL1   H2A  936   1.424   2.430  10.017 -1.3870  0.8165  0.8250
   13CHL1   H2B  937   1.441   2.251  10.032 -2.4538 -1.3671  1.0806
   13CHL1   C20  938   0.820   2.145   9.300  0.1223  0.1041 -0.3748
   13CHL1   H20  939   0.800   2.036   9.295 -0.8932  0.2814 -0.3288
   13CHL1   C21  940   0.942   2.199   9.234  0.0132 -0.2082 -1.0886
   13CHL1  H21A  941   1.034   2.147   9.267 -1.0995 -0.5882  1.6980
   13CHL1  H21B  942   0.957   2.306   9.258  0.4880 -0.6201  0.5815
   13CHL1  H21C  943   0.929   2.191   9.124  0.9569  2.8393 -1.5217
   13CHL1   C22  944   0.690   2.202   9.229 -0.1059  0.8068  0.2186
   13CHL1  H22A  945   0.598   2.179   9.287  0.2005  0.3511  0.5316
   13CHL1  H22B  946   0.707   2.309   9.204  1.5483  0.5010 -0.0826
   13CHL1   C23  947   0.662   2.136   9.091  0.2016  0.1006 -0.0242
   13CHL1  H23A  948   0.759   2.122   9.039 -0.7204 -3.1721 -1.0865
   13CHL1  H23B  949   0.627   2.031   9.098 -0.3819  0.2890 -0.0836
   13CHL1   C24  950   0.562   2.213   8.996 -0.0518  0.2963 -0.6094
   13CHL1  H24A  951   0.557   2.147   8.906 -0.4588  1.3936 -1.4214
   13CHL1  H24B  952   0.459   2.221   9.038  0.4108  1.5280  0.3251
   13CHL1   C25  953   0.610   2.346   8.943  0.2080 -0.3708 -0.3662
   13CHL1   H25  954   0.719   2.348   8.965  0.0130  1.2972  0.5704
   13CHL1   C26  955   0.589   2.354   8.784 -0.8936 -0.0745 -0.3033
   13CHL1  H26A  956   0.480   2.347   8.765 -1.1238 -0.5069  1.0810
   13CHL1  H26B  957   0.629   2.446   8.736  1.4997 -0.8034  0.1378
   13CHL1  H26C  958   0.628   2.262   8.735 -0.9672  0.2568 -0.9917
   13CHL1   C27  959   0.546   2.470   9.013  0.1131  0.2958 -0.6922
   13CHL1  H27A  960   0.438   2.485   8.993  0.0583 -0.2620 -0.8196
   13CHL1  H27B  961   0.556   2.459   9.123 -2.3216 -0.5874 -0.5046
   13CHL1  H27C  962   0.614   2.552   8.980  0.5673 -0.1824 -0.9756
   14CHL1    C3  963   5.883   4.729  10.414 -0.7415  0.4120 -0.0100
   14CHL1    H3  964   5.981   4.681  10.395 -1.0758 -0.5447  0.6147
   14CHL1    O3  965   5.889   4.771  10.555 -0.1406 -0.0288  0.5007
   14CHL1   H3'  966   5.841   4.854  10.562  1.8546  1.1858  0.4765
   14CHL1    C4  967   5.858   4.851  10.326 -0.2210 -0.3008 -0.3115
   14CHL1   H4A  968   5.768   4.903  10.366  0.9531  1.7730 -0.2250
   14CHL1   H4B  969   5.948   4.916  10.333 -1.6888  1.7455  0.8777
   14CHL1    C5  970   5.841   4.822  10.181  0.5631  0.4916  0.4578
   14CHL1    C6  971   5.924   4.881  10.092  0.3156  0.1826 -0.3221
   14CHL1    H6  972   5.995   4.958  10.127  0.6572 -0.1319 -0.3203
   14CHL1    C7  973   5.913   4.859   9.947  0.0003 -0.3940  0.0749
   14CHL1   H7A  974   5.918   4.961   9.903 -2.0143  0.7940  2.4047
   14CHL1   H7B  975   6.002   4.802   9.912 -1.6396 -1.8337 -1.9774
   14CHL1    C8  976   5.789   4.777   9.903 -0.3846  0.8472 -0.1892
   14CHL1    H8  977   5.707   4.852   9.901 -0.0566  1.3106  1.6960
   14CHL1   C14  978   5.813   4.720   9.765 -0.2170 -0.2525  0.0443
   14CHL1   H14  979   5.892   4.643   9.756  1.7268  1.8542 -2.8935
   14CHL1   C15  980   5.857   4.822   9.652  0.9917  0.4606  0.4496
   14CHL1  H15A  981   5.784   4.905   9.647  1.2785  0.6887 -0.0964
   14CHL1  H15B  982   5.963   4.855   9.660  1.0422  0.8295 -1.3861
   14CHL1   C16  983   5.833   4.740   9.519  0.0279 -0.4677 -0.5834
   14CHL1  H16A  984   5.778   4.797   9.442 -0.4217 -2.2872 -1.6612
   14CHL1  H16B  985   5.935   4.722   9.478 -0.3233 -2.5548 -0.6375
   14CHL1   C17  986   5.738   4.619   9.556 -0.8534 -0.1491  0.0612
   14CHL1   H17  987   5.805   4.531   9.563 -1.8081 -0.8375  0.8326
   14CHL1   C13  988   5.693   4.651   9.704 -0.1610  0.3176  0.7399
   14CHL1   C18  989   5.569   4.745   9.684 -0.5496 -0.5204  0.0835
   14CHL1  H18A  990   5.534   4.790   9.780 -1.2394 -0.6881 -0.0822
   14CHL1  H18B  991   5.593   4.829   9.615 -0.0601 -0.7161  0.0111
   14CHL1  H18C  992   5.484   4.697   9.631 -2.2099  3.3888 -1.1900
   14CHL1   C12  993   5.660   4.536   9.796  0.2490  0.4014 -0.4849
   14CHL1  H12A  994   5.566   4.487   9.764 -1.4149  2.5672  0.7792
   14CHL1  H12B  995   5.742   4.462   9.793  1.0918  1.2538  0.5046
   14CHL1   C11  996   5.643   4.577   9.943  0.0926  0.4627 -0.1854
   14CHL1  H11A  997   5.547   4.631   9.942 -0.7123 -0.7085  2.5724
   14CHL1  H11B  998   5.627   4.491  10.011 -1.5780  0.7807 -0.1558
   14CHL1    C9  999   5.760   4.667   9.997 -0.5715 -0.0773  0.3233
   14CHL1    H9 1000   5.847   4.598  10.004 -0.6955 -0.1743  1.0129
   14CHL1   C10 1001   5.735   4.717  10.145 -0.1908  0.4162 -0.5259
   14CHL1   C19 1002   5.599   4.790  10.152 -0.1977  0.4273 -0.2018
   14CHL1  H19A 1003   5.589   4.844  10.249 -3.1966 -2.1127  1.0905
   14CHL1  H19B 1004   5.583   4.856  10.064  0.6803 -0.1988 -0.8545
   14CHL1  H19C 1005   5.515   4.718  10.141 -0.4251  0.5972  0.3621
   14CHL1    C1 1006   5.748   4.594  10.247  0.7155 -0.4802  0.3233
   14CHL1   H1A 1007   5.664   4.525  10.224 -0.9824  1.7685 -0.6870
   14CHL1   H1B 1008   5.836   4.538  10.210  1.1648  2.0591 -2.9359
   14CHL1    C2 1009   5.768   4.628  10.392 -0.2506 -0.2262  0.6932
   14CHL1   H2A 1010   5.792   4.535  10.449  0.7873 -0.1624  0.3691
   14CHL1   H2B 1011   5.674   4.671  10.435 -1.2025  0.0300 -1.5056
   14CHL1   C20 1012   5.633   4.573   9.449  0.4889 -0.0504  0.5897
   14CHL1   H20 1013   5.562   4.658   9.447  2.2161  1.4471 -1.4972
   14CHL1   C21 1014   5.572   4.440   9.501 -0.7096 -0.4472 -0.4844
   14CHL1  H21A 1015   5.524   4.393   9.413 -0.3541 -0.1988 -0.8155
   14CHL1  H21B 1016   5.486   4.455   9.570  0.8377 -1.6868  1.8459
   14CHL1  H21C 1017   5.654   4.374   9.536 -2.9152 -3.0240  0.1527
   14CHL1   C22 1018   5.687   4.574   9.299  0.7399  0.1833 -0.8842
   14CHL1  H22A 1019   5.737   4.670   9.276 -0.4024  1.7282  2.5263
   14CHL1  H22B 1020   5.759   4.491   9.278 -0.7755 -0.8658 -2.2017
   14CHL1   C23 1021   5.563   4.562   9.198 -0.0437 -0.8491  0.0229
   14CHL1  H23A 1022   5.526   4.458   9.199  1.3703 -1.3899  1.2536
   14CHL1  H23B 1023   5.486   4.641   9.213  0.6316  0.0531 -1.0887
   14CHL1   C24 1024   5.624   4.577   9.056  0.5479  0.1010 -0.3092
   14CHL1  H24A 1025   5.683   4.671   9.058  0.8458 -0.0865 -0.2101
   14CHL1  H24B 1026   5.691   4.490   9.040  1.1569  0.5579 -0.2635
   14CHL1   C25 1027   5.530   4.560   8.937  0.0144 -0.1045  0.4111
   14CHL1   H25 1028   5.476   4.464   8.955 -0.6425  0.1131 -0.3245
   14CHL1   C26 1029   5.426   4.666   8.929  0.8609  0.4593 -0.1834
   14CHL1  H26A 1030   5.465   4.768   8.904  0.9584  0.1646 -1.2774
   14CHL1  H26B 1031   5.361   4.632   8.846  0.0820  1.7826 -0.1521
   14CHL1  H26C 1032   5.371   4.671   9.025 -1.0682  0.7023 -1.2498
   14CHL1   C27 1033   5.608   4.539   8.802  0.3685  0.4348 -1.1620
   14CHL1  H27A 1034   5.678   4.455   8.818  1.0156  1.2163  0.2438
   14CHL1  H27B 1035   5.549   4.519   8.710 -2.4715  0.7928  0.4641
   14CHL1  H27C 1036   5.664   4.633   8.784 -0.0515  1.3016  1.5606
   15CHL1    C3 1037   4.702   1.546  10.209  0.7897  0.3479  0.1949
   15CHL1    H3 1038   4.686   1.436  10.220  0.6521  0.3403 -0.0705
   15CHL1    O3 1039   4.690   1.609  10.332 -0.2311 -0.1971 -0.0950
   15CHL1   H3' 1040   4.611   1.576  10.375  0.1465 -0.9750  0.0142
   15CHL1    C4 1041   4.841   1.569  10.144  0.0166  0.3231 -0.2311
   15CHL1   H4A 1042   4.870   1.675  10.160 -1.5801  0.8250 -0.4826
   15CHL1   H4B 1043   4.906   1.514  10.215  2.0409  0.9399 -1.5382
   15CHL1    C5 1044   4.858   1.543   9.993 -0.4133 -0.5605  0.4147
   15CHL1    C6 1045   4.959   1.468   9.947  0.1748  0.1033 -0.8237
   15CHL1    H6 1046   5.029   1.420  10.016 -1.0711 -0.0296  0.3940
   15CHL1    C7 1047   4.982   1.449   9.797  0.5323 -0.3139 -0.1005
   15CHL1   H7A 1048   5.088   1.458   9.765  0.5503  0.0523  0.0599
   15CHL1   H7B 1049   4.949   1.346   9.772  0.1783  0.2025 -1.9724
   15CHL1    C8 1050   4.890   1.544   9.709  0.0147 -0.2933 -0.3514
   15CHL1    H8 1051   4.933   1.645   9.726 -0.2018 -0.4442  1.2671
   15CHL1   C14 1052   4.889   1.494   9.565 -0.6915 -0.0207  0.2064
   15CHL1   H14 1053   4.820   1.408   9.558 -0.5605 -0.0082 -2.5860
   15CHL1   C15 1054   5.015   1.450   9.492 -0.6118  0.3352 -0.6427
   15CHL1  H15A 1055   5.096   1.525   9.502  0.6939 -0.7624 -2.2752
   15CHL1  H15B 1056   5.046   1.351   9.531 -0.7950  1.4184  2.4711
   15CHL1   C16 1057   4.979   1.448   9.342 -0.2681 -0.7224  0.8641
   15CHL1  H16A 1058   5.054   1.514   9.294  1.8697 -1.7500  2.5895
   15CHL1  H16B 1059   4.985   1.349   9.292  2.3622  0.3780 -1.2490
   15CHL1   C17 1060   4.837   1.517   9.330  0.6464 -0.3828  1.2545
   15CHL1   H17 1061   4.760   1.437   9.330  1.4158 -1.1364  0.6606
   15CHL1   C13 1062   4.818   1.589   9.463  0.8473 -0.2121  0.0560
   15CHL1   C18 1063   4.894   1.722   9.453 -0.2031 -0.0768  0.5446
   15CHL1  H18A 1064   4.993   1.705   9.406 -0.0903 -0.4083  0.8990
   15CHL1  H18B 1065   4.833   1.788   9.388 -1.5567 -1.6596  0.1305
   15CHL1  H18C 1066   4.917   1.765   9.553 -2.1318  0.2161  0.9098
   15CHL1   C12 1067   4.670   1.616   9.515  0.1108 -0.8238 -0.5991
   15CHL1  H12A 1068   4.628   1.685   9.438  1.6815 -0.5660 -1.2704
   15CHL1  H12B 1069   4.607   1.526   9.497  0.7256 -0.8304 -3.1596
   15CHL1   C11 1070   4.661   1.650   9.665  0.0879 -0.2813 -0.0646
   15CHL1  H11A 1071   4.715   1.747   9.660  1.9910 -1.3617 -2.2204
   15CHL1  H11B 1072   4.555   1.658   9.697  0.2267  1.0389  0.1378
   15CHL1    C9 1073   4.745   1.556   9.760 -0.1122  0.0207 -0.3044
   15CHL1    H9 1074   4.703   1.454   9.765  2.2057 -0.9718  0.2369
   15CHL1   C10 1075   4.742   1.600   9.908 -0.1609 -0.9134  0.1605
   15CHL1   C19 1076   4.756   1.757   9.907  0.2796 -0.8018 -0.0804
   15CHL1  H19A 1077   4.788   1.809  10.000 -0.3253  0.7960 -0.7428
   15CHL1  H19B 1078   4.834   1.790   9.835  0.6138 -1.5008 -0.0507
   15CHL1  H19C 1079   4.657   1.794   9.872  0.5270 -0.0513  0.0033
   15CHL1    C1 1080   4.606   1.560   9.973 -0.6395 -0.3551 -0.2285
   15CHL1   H1A 1081   4.531   1.610   9.908 -0.8820 -1.0047 -0.4629
   15CHL1   H1B 1082   4.596   1.449   9.967 -1.3754 -0.2518 -1.4320
   15CHL1    C2 1083   4.594   1.604  10.119  0.5902  0.4568  0.3408
   15CHL1   H2A 1084   4.493   1.579  10.157  0.6609 -2.2968 -1.0598
   15CHL1   H2B 1085   4.599   1.715  10.116  0.5090  0.4344 -0.8754
   15CHL1   C20 1086   4.818   1.587   9.189  0.7595 -0.4343 -0.1894
   15CHL1   H20 1087   4.900   1.661   9.193  0.4349 -0.0989  0.4307
   15CHL1   C21 1088   4.683   1.656   9.179  0.3360  0.5186  0.2381
   15CHL1  H21A 1089   4.600   1.583   9.193 -1.3557  2.1969 -0.7081
   15CHL1  H21B 1090   4.670   1.708   9.082  0.0404  1.3899  0.7315
   15CHL1  H21C 1091   4.685   1.742   9.250 -0.5836 -1.2239  2.5162
   15CHL1   C22 1092   4.825   1.488   9.072  0.2714 -0.1227  0.1966
   15CHL1  H22A 1093   4.903   1.409   9.082 -1.0632 -1.8986 -2.4047
   15CHL1  H22B 1094   4.734   1.429   9.054 -0.1366  1.0652 -1.9132
   15CHL1   C23 1095   4.873   1.568   8.946 -1.0398  0.2374  0.6296
   15CHL1  H23A 1096   4.789   1.639   8.928 -4.0583 -3.0035  0.8351
   15CHL1  H23B 1097   4.966   1.624   8.967 -1.0423  1.0461 -1.3733
   15CHL1   C24 1098   4.878   1.477   8.822  0.5355 -0.5487 -0.1747
   15CHL1  H24A 1099   4.791   1.409   8.811  0.0774  0.2571 -1.7977
   15CHL1  H24B 1100   4.877   1.541   8.732 -0.3017 -1.1837 -0.6267
   15CHL1   C25 1101   5.014   1.400   8.796  0.3656  0.6159 -0.0588
   15CHL1   H25 1102   5.043   1.351   8.892  0.3171  2.2693  0.8457
   15CHL1   C26 1103   4.987   1.285   8.695 -0.0410  0.7549  0.1068
   15CHL1  H26A 1104   4.900   1.227   8.729 -0.4321  1.4316  0.2811
   15CHL1  H26B 1105   4.964   1.324   8.593 -0.2815 -1.2804 -0.6582
   15CHL1  H26C 1106   5.080   1.224   8.684  0.2875  1.6092 -2.6097
   15CHL1   C27 1107   5.134   1.493   8.752 -0.3391  0.2946 -0.1838
   15CHL1  H27A 1108   5.114   1.577   8.822 -3.0595  0.3565 -0.9200
   15CHL1  H27B 1109   5.231   1.442   8.772 -0.2145  0.9038  0.8298
   15CHL1  H27C 1110   5.112   1.536   8.652 -3.0502 -0.9687 -0.2117
   16CHL1    C3 1111   0.832   1.793  10.365  0.3275 -0.5190  0.4676
   16CHL1    H3 1112   0.908   1.714  10.382 -0.8101 -1.8005 -0.2187
   16CHL1    O3 1113   0.810   1.866  10.482  0.2112 -0.3266 -0.4902
   16CHL1   H3' 1114   0.881   1.931  10.486  0.3006 -0.2907 -2.2034
   16CHL1    C4 1115   0.875   1.889  10.253  0.1369 -0.5766  0.3327
   16CHL1   H4A 1116   0.782   1.948  10.235  0.0033 -0.1945  2.1516
   16CHL1   H4B 1117   0.952   1.966  10.273 -0.4639 -0.0812  0.7610
   16CHL1    C5 1118   0.912   1.811  10.130  0.1692 -0.5285 -0.0622
   16CHL1    C6 1119   1.039   1.812  10.086  0.1669  0.2939  0.2760
   16CHL1    H6 1120   1.113   1.873  10.141 -1.2139  1.5744  0.8082
   16CHL1    C7 1121   1.078   1.742   9.963 -0.2686 -0.1059 -0.5059
   16CHL1   H7A 1122   1.146   1.796   9.893 -2.2073  2.5303 -0.5118
   16CHL1   H7B 1123   1.133   1.654  10.002  1.1708  0.3860 -1.3247
   16CHL1    C8 1124   0.962   1.686   9.881  0.2497  0.2518  0.4527
   16CHL1    H8 1125   0.907   1.768   9.831 -2.0502 -1.2585  0.3924
   16CHL1   C14 1126   1.015   1.586   9.780 -1.2140  0.1293 -0.0462
   16CHL1   H14 1127   1.045   1.496   9.837  2.2549  2.1311  1.6397
   16CHL1   C15 1128   1.139   1.624   9.694 -0.4714 -0.5682  0.1030
   16CHL1  H15A 1129   1.144   1.732   9.667  1.6318 -0.6315  0.0692
   16CHL1  H15B 1130   1.231   1.595   9.750  0.4049  0.7838 -0.5785
   16CHL1   C16 1131   1.133   1.533   9.574  0.0366  0.6554  0.1224
   16CHL1  H16A 1132   1.122   1.591   9.480 -0.6306 -0.6932 -0.6690
   16CHL1  H16B 1133   1.218   1.462   9.564 -2.1400 -2.1121 -0.3163
   16CHL1   C17 1134   1.001   1.453   9.587  0.5816 -0.3176 -0.9098
   16CHL1   H17 1135   1.032   1.356   9.632 -0.4562 -0.3238 -0.1660
   16CHL1   C13 1136   0.916   1.534   9.687  0.0049 -0.1123  0.2976
   16CHL1   C18 1137   0.841   1.645   9.609 -0.4938  0.2325 -0.1127
   16CHL1  H18A 1138   0.800   1.723   9.677 -0.1777 -0.2147  0.6028
   16CHL1  H18B 1139   0.912   1.704   9.547  0.5975 -1.0056 -0.0859
   16CHL1  H18C 1140   0.750   1.615   9.553 -0.8760  2.1839 -0.6220
   16CHL1   C12 1141   0.824   1.450   9.781  0.2022  0.4230 -0.0793
   16CHL1  H12A 1142   0.753   1.391   9.719 -0.7601  1.1335  0.3351
   16CHL1  H12B 1143   0.885   1.367   9.823  3.5571  2.2230 -0.9702
   16CHL1   C11 1144   0.758   1.528   9.889  0.0466 -0.3955 -0.2237
   16CHL1  H11A 1145   0.673   1.581   9.842 -1.5190 -3.4985 -1.1304
   16CHL1  H11B 1146   0.711   1.456   9.960  2.0368 -0.7526  0.7957
   16CHL1    C9 1147   0.857   1.622   9.971  0.1690 -0.7124  0.3224
   16CHL1    H9 1148   0.919   1.555  10.035  0.2199  0.6204  1.7041
   16CHL1   C10 1149   0.798   1.719  10.075 -0.2379  1.2458  0.1614
   16CHL1   C19 1150   0.695   1.809  10.001  0.1928  0.6959 -0.2156
   16CHL1  H19A 1151   0.643   1.876  10.073  0.5721  0.0798  0.6493
   16CHL1  H19B 1152   0.747   1.863   9.919  1.5311 -0.9133 -0.4751
   16CHL1  H19C 1153   0.614   1.750   9.954  0.3782  0.8937 -0.7961
   16CHL1    C1 1154   0.733   1.631  10.196 -0.4752 -0.6663  0.6054
   16CHL1   H1A 1155   0.631   1.606  10.159  0.0235  0.4355 -1.7068
   16CHL1   H1B 1156   0.791   1.541  10.225 -0.4034 -1.3086 -1.3845
   16CHL1    C2 1157   0.699   1.714  10.322  0.3030  0.1671  0.1338
   16CHL1   H2A 1158   0.665   1.643  10.400  0.0421  0.2282  0.0766
   16CHL1   H2B 1159   0.616   1.787  10.316  0.6538  0.4526 -2.1335
   16CHL1   C20 1160   0.938   1.413   9.446 -0.2896 -0.3281  0.0713
   16CHL1   H20 1161   0.925   1.502   9.381 -0.0545  0.4471  1.0705
   16CHL1   C21 1162   0.808   1.328   9.461 -0.2732 -0.6306 -0.1811
   16CHL1  H21A 1163   0.735   1.381   9.526 -0.0920  1.7721 -1.8186
   16CHL1  H21B 1164   0.830   1.232   9.513  0.7309  0.1828  0.9485
   16CHL1  H21C 1165   0.768   1.299   9.361  0.6854  0.5101 -0.9285
   16CHL1   C22 1166   1.052   1.333   9.378 -0.4437  0.1688 -0.9314
   16CHL1  H22A 1167   1.146   1.391   9.366  0.3164  0.0278  3.0783
   16CHL1  H22B 1168   1.080   1.240   9.431  0.0421  1.2390  0.7853
   16CHL1   C23 1169   1.016   1.291   9.232  0.2386  0.8074 -0.9011
   16CHL1  H23A 1170   0.917   1.239   9.238  0.4108  0.4970 -0.6997
   16CHL1  H23B 1171   1.006   1.375   9.161  2.1108  1.2472 -0.6847
   16CHL1   C24 1172   1.129   1.206   9.166 -0.7476  0.1419 -0.9624
   16CHL1  H24A 1173   1.228   1.230   9.210 -0.9962 -0.8510  0.1950
   16CHL1  H24B 1174   1.114   1.103   9.205 -0.1131  0.3756 -0.0651
   16CHL1   C25 1175   1.137   1.211   9.013  0.0250 -0.3973 -0.3813
   16CHL1   H25 1176   1.039   1.250   8.977 -1.4825 -1.3318  2.3999
   16CHL1   C26 1177   1.243   1.298   8.961 -0.2359 -0.0194  0.2051
   16CHL1  H26A 1178   1.245   1.404   8.996  1.7427  0.6148 -1.5737
   16CHL1  H26B 1179   1.341   1.257   8.994 -0.0313 -0.2424 -0.6592
   16CHL1  H26C 1180   1.250   1.296   8.850 -1.7390  0.6099  0.0812
   16CHL1   C27 1181   1.158   1.066   8.963  0.4512  0.1605 -0.6451
   16CHL1  H27A 1182   1.249   1.014   9.003 -0.1436 -0.8087 -0.5256
   16CHL1  H27B 1183   1.063   1.015   8.988  1.1676 -1.4615 -1.1355
   16CHL1  H27C 1184   1.169   1.062   8.853  1.8765 -2.0912 -0.4806
   17CHL1    C3 1185   3.367   0.381  10.353  0.4397  0.1488  0.2035
   17CHL1    H3 1186   3.322   0.474  10.311 -2.9587 -2.4282 -2.3337
   17CHL1    O3 1187   3.363   0.374  10.490  0.2496 -0.6054 -0.0412
   17CHL1   H3' 1188   3.274   0.350  10.518 -0.0883 -0.9608 -1.3410
   17CHL1    C4 1189   3.286   0.259  10.294 -0.3580 -0.1922  0.4697
   17CHL1   H4A 1190   3.333   0.170  10.340 -1.2960 -0.4017  1.0632
   17CHL1   H4B 1191   3.178   0.263  10.323 -0.9708 -1.0016 -1.5735
   17CHL1    C5 1192   3.294   0.249  10.145 -0.0105  0.4278  0.4311
   17CHL1    C6 1193   3.187   0.255  10.065  0.3319 -0.5880 -0.1721
   17CHL1    H6 1194   3.089   0.266  10.112  1.2666  1.2369  1.5093
   17CHL1    C7 1195   3.186   0.250   9.915 -1.6042  0.1158 -0.2327
   17CHL1   H7A 1196   3.101   0.180   9.899  0.4998 -2.8942  0.9011
   17CHL1   H7B 1197   3.172   0.352   9.873 -1.5217 -0.4156 -1.6083
   17CHL1    C8 1198   3.318   0.198   9.862  0.0453  0.5423  0.5022
   17CHL1    H8 1199   3.318   0.088   9.872  0.4013  0.5301  0.4136
   17CHL1   C14 1200   3.321   0.235   9.718 -0.1979  0.6931  0.0067
   17CHL1   H14 1201   3.326   0.345   9.710 -0.0535  0.5411 -3.1910
   17CHL1   C15 1202   3.202   0.197   9.630 -0.6005  0.1503 -0.3611
   17CHL1  H15A 1203   3.174   0.090   9.644  1.9543 -0.5285  0.0418
   17CHL1  H15B 1204   3.110   0.251   9.661 -0.8331 -0.5180  0.1428
   17CHL1   C16 1205   3.250   0.228   9.488  0.0673 -0.2037  0.5142
   17CHL1  H16A 1206   3.225   0.144   9.420  1.0250 -1.0713  1.2029
   17CHL1  H16B 1207   3.204   0.323   9.455 -0.8587 -0.8147  0.0040
   17CHL1   C17 1208   3.409   0.246   9.492  0.2380 -0.1561 -0.3309
   17CHL1   H17 1209   3.420   0.356   9.494 -2.2655  0.1708 -0.8860
   17CHL1   C13 1210   3.444   0.188   9.635 -0.0802 -0.0168 -0.6493
   17CHL1   C18 1211   3.452   0.031   9.642  0.8779  0.1721  0.9944
   17CHL1  H18A 1212   3.434  -0.008   9.745 -1.1019  0.9716  0.9795
   17CHL1  H18B 1213   3.383  -0.021   9.572  0.2079  2.3489 -0.0511
   17CHL1  H18C 1214   3.553   0.013   9.599 -0.1231 -0.8637 -1.0750
   17CHL1   C12 1215   3.567   0.254   9.704  0.6308 -0.5877  0.1428
   17CHL1  H12A 1216   3.663   0.220   9.660  0.6680 -0.3062 -0.0008
   17CHL1  H12B 1217   3.563   0.365   9.690  4.3879  0.0661  2.6405
   17CHL1   C11 1218   3.563   0.224   9.852  0.6124 -0.4892  0.0064
   17CHL1  H11A 1219   3.576   0.114   9.856 -4.8625 -1.6315 -2.8624
   17CHL1  H11B 1220   3.650   0.276   9.897 -0.7154  0.9065  1.0730
   17CHL1    C9 1221   3.437   0.262   9.930  0.6244  0.1400  0.1455
   17CHL1    H9 1222   3.427   0.372   9.916 -0.6939 -0.0525 -0.5732
   17CHL1   C10 1223   3.427   0.240  10.088  0.0555 -0.2941 -0.1551
   17CHL1   C19 1224   3.508   0.112  10.119 -0.1347 -0.6063 -0.1438
   17CHL1  H19A 1225   3.463   0.019  10.077 -0.0841 -0.0333 -1.5205
   17CHL1  H19B 1226   3.608   0.097  10.072  0.5832 -2.2274  1.7764
   17CHL1  H19C 1227   3.522   0.090  10.227 -1.5642 -1.1939 -0.0577
   17CHL1    C1 1228   3.496   0.373  10.151  0.4776  0.4976 -0.1402
   17CHL1   H1A 1229   3.594   0.381  10.098 -0.3461  1.4480 -1.6113
   17CHL1   H1B 1230   3.441   0.461  10.110 -0.0884  0.2073 -0.0110
   17CHL1    C2 1231   3.506   0.382  10.298 -0.2114  0.0946  0.1278
   17CHL1   H2A 1232   3.570   0.466  10.334 -0.3018 -0.2529  1.1197
   17CHL1   H2B 1233   3.561   0.294  10.336 -0.1873  0.2616  0.4866
   17CHL1   C20 1234   3.474   0.202   9.358  0.6977 -0.1928 -0.5514
   17CHL1   H20 1235   3.444   0.096   9.340  0.9297  0.1103 -3.1328
   17CHL1   C21 1236   3.632   0.216   9.364  0.2469 -0.0990  0.2508
   17CHL1  H21A 1237   3.666   0.298   9.432  1.3557  1.0924 -1.6452
   17CHL1  H21B 1238   3.671   0.229   9.261 -0.9242  0.1362 -0.1768
   17CHL1  H21C 1239   3.685   0.130   9.410  0.1942  0.3911  1.2669
   17CHL1   C22 1240   3.433   0.294   9.242 -0.4274  0.1556  0.2584
   17CHL1  H22A 1241   3.322   0.292   9.236 -0.3381 -0.1687 -3.2357
   17CHL1  H22B 1242   3.457   0.402   9.258 -0.2867  0.0711  0.6153
   17CHL1   C23 1243   3.477   0.247   9.099 -0.1176  0.1564  0.4247
   17CHL1  H23A 1244   3.585   0.267   9.083  0.0474  1.1973  2.4717
   17CHL1  H23B 1245   3.453   0.139   9.085 -3.1690  1.0011 -2.1760
   17CHL1   C24 1246   3.386   0.321   9.000  0.0818  0.3307  0.1641
   17CHL1  H24A 1247   3.292   0.269   9.024 -0.1608  2.3315  4.3536
   17CHL1  H24B 1248   3.382   0.431   9.013 -4.1360  0.5142 -1.2501
   17CHL1   C25 1249   3.406   0.295   8.849  0.5136  0.0533  0.3446
   17CHL1   H25 1250   3.371   0.191   8.831 -1.7913  0.7906  0.1789
   17CHL1   C26 1251   3.313   0.386   8.765 -0.4221  0.2659  0.5860
   17CHL1  H26A 1252   3.319   0.495   8.785  4.8548  0.2674  0.3514
   17CHL1  H26B 1253   3.338   0.382   8.657 -1.3431  0.4845  0.3559
   17CHL1  H26C 1254   3.210   0.347   8.781 -0.8947  1.1590 -0.2028
   17CHL1   C27 1255   3.549   0.316   8.816  0.9448 -0.0976 -0.0347
   17CHL1  H27A 1256   3.616   0.240   8.861 -0.0752 -1.0268 -0.0563
   17CHL1  H27B 1257   3.566   0.310   8.707 -1.7343 -1.0719 -0.4645
   17CHL1  H27C 1258   3.578   0.414   8.861  1.1525 -0.5090  0.7510
   18CHL1    C3 1259   2.224   3.960   9.985 -0.6634 -0.2614 -0.5630
   18CHL1    H3 1260   2.126   3.921  10.019 -1.1076  1.5956  0.4113
   18CHL1    O3 1261   2.286   4.012  10.096  0.1243  0.9779  0.3151
   18CHL1   H3' 1262   2.371   3.970  10.110  0.0160  0.8612  0.6395
   18CHL1    C4 1263   2.318   3.852   9.931  0.5040  0.0532  0.1378
   18CHL1   H4A 1264   2.413   3.900   9.900  0.2899  0.9205  0.7802
   18CHL1   H4B 1265   2.341   3.780  10.012 -1.4861 -0.1980  0.5538
   18CHL1    C5 1266   2.259   3.795   9.804 -0.5864 -0.1470 -0.3791
   18CHL1    C6 1267   2.245   3.665   9.790 -0.6082  0.3202  0.3202
   18CHL1    H6 1268   2.267   3.588   9.865 -0.5795 -0.2055 -0.2160
   18CHL1    C7 1269   2.196   3.606   9.658  0.5834 -0.1728  0.1102
   18CHL1   H7A 1270   2.267   3.524   9.636 -2.8224 -3.3307 -0.1702
   18CHL1   H7B 1271   2.092   3.566   9.670  1.2391 -1.5159  1.7212
   18CHL1    C8 1272   2.200   3.699   9.532 -0.3717  0.9207  0.0479
   18CHL1    H8 1273   2.304   3.719   9.500 -0.9135  2.7729 -0.7102
   18CHL1   C14 1274   2.110   3.646   9.421  1.0377 -0.6052 -0.1687
   18CHL1   H14 1275   2.007   3.641   9.462  1.1533  0.8721  0.3586
   18CHL1   C15 1276   2.131   3.505   9.372 -0.4992 -0.3321  0.0500
   18CHL1  H15A 1277   2.241   3.495   9.369 -0.2492  1.9574  0.3601
   18CHL1  H15B 1278   2.078   3.430   9.435 -2.2145  0.9883  0.2436
   18CHL1   C16 1279   2.057   3.502   9.231 -1.7582  0.3849 -0.4106
   18CHL1  H16A 1280   2.129   3.466   9.154  0.1938 -0.0765  1.5441
   18CHL1  H16B 1281   1.966   3.438   9.226 -1.1909 -0.5036  0.5194
   18CHL1   C17 1282   2.023   3.654   9.202 -0.2622 -0.1263  0.7044
   18CHL1   H17 1283   1.919   3.650   9.242 -0.1175 -3.2503  0.9957
   18CHL1   C13 1284   2.110   3.738   9.296  0.4258  0.9860  0.1409
   18CHL1   C18 1285   2.244   3.755   9.227 -0.2182 -0.1266  0.8602
   18CHL1  H18A 1286   2.318   3.783   9.305  2.1852 -1.5715 -0.7574
   18CHL1  H18B 1287   2.272   3.656   9.185 -1.9172 -0.2188 -0.1359
   18CHL1  H18C 1288   2.238   3.834   9.149 -0.9548 -0.8236  0.1878
   18CHL1   C12 1289   2.049   3.873   9.343  0.5207  0.3403 -0.9986
   18CHL1  H12A 1290   2.058   3.941   9.255  1.0020  1.9797  0.2526
   18CHL1  H12B 1291   1.944   3.869   9.377  0.1755  2.6512 -1.5893
   18CHL1   C11 1292   2.131   3.931   9.461 -0.0206  0.3742  0.4874
   18CHL1  H11A 1293   2.233   3.955   9.424 -0.0333  1.3962  1.0690
   18CHL1  H11B 1294   2.087   4.030   9.486  2.2086  1.1574  1.5621
   18CHL1    C9 1295   2.151   3.835   9.576 -0.4599  0.4091 -0.2535
   18CHL1    H9 1296   2.048   3.818   9.614 -0.4202  1.2909  0.2995
   18CHL1   C10 1297   2.222   3.908   9.697 -0.1129 -0.0686  0.1353
   18CHL1   C19 1298   2.346   3.975   9.657  0.7554  0.1872  0.6049
   18CHL1  H19A 1299   2.409   3.913   9.590 -0.0606 -1.7382  1.5304
   18CHL1  H19B 1300   2.334   4.073   9.606  0.6749 -0.8113 -1.4349
   18CHL1  H19C 1301   2.404   4.012   9.744  0.3160 -0.3075  1.1179
   18CHL1    C1 1302   2.123   4.008   9.766 -0.4471  0.5410 -0.1805
   18CHL1   H1A 1303   2.097   4.088   9.694  0.4990  1.0841  0.0665
   18CHL1   H1B 1304   2.031   3.950   9.789  0.5741 -1.2922 -0.5107
   18CHL1    C2 1305   2.188   4.071   9.889  0.4483 -0.0951  0.0653
   18CHL1   H2A 1306   2.103   4.131   9.928  1.0301  0.9453 -0.2226
   18CHL1   H2B 1307   2.275   4.139   9.874 -0.2689  0.7071 -0.5510
   18CHL1   C20 1308   2.006   3.700   9.053 -0.1432 -1.1240  0.0246
   18CHL1   H20 1309   2.096   3.761   9.029  0.4238 -1.6827  0.6912
   18CHL1   C21 1310   1.888   3.796   9.072  0.5134  0.4668 -0.2890
   18CHL1  H21A 1311   1.905   3.881   9.141  2.4009 -0.5347  0.5557
   18CHL1  H21B 1312   1.797   3.745   9.111 -0.0220  1.9062  0.3908
   18CHL1  H21C 1313   1.867   3.843   8.974 -0.2640 -1.3475 -1.0456
   18CHL1   C22 1314   1.989   3.587   8.951 -0.5859  0.2570 -0.2474
   18CHL1  H22A 1315   2.086   3.534   8.941  1.7164  4.2098 -1.6013
   18CHL1  H22B 1316   1.923   3.513   8.999  1.0424 -0.1417  1.5383
   18CHL1   C23 1317   1.942   3.627   8.818  0.4731 -0.4249 -0.4619
   18CHL1  H23A 1318   1.841   3.675   8.816  0.5977 -0.1664 -0.6440
   18CHL1  H23B 1319   2.016   3.703   8.784  1.2129 -1.7156 -1.8271
   18CHL1   C24 1320   1.944   3.516   8.707 -0.2158  0.6853  0.0908
   18CHL1  H24A 1321   2.047   3.480   8.684 -1.0866 -2.2078  0.3849
   18CHL1  H24B 1322   1.892   3.425   8.743  0.1467 -0.3020 -1.7689
   18CHL1   C25 1323   1.876   3.550   8.571 -0.1617  0.5114 -0.2238
   18CHL1   H25 1324   1.778   3.595   8.597 -0.3628 -1.1539  2.2502
   18CHL1   C26 1325   1.956   3.659   8.489 -0.1767  0.2509 -0.2923
   18CHL1  H26A 1326   1.892   3.749   8.488 -0.0289  0.3504 -1.3020
   18CHL1  H26B 1327   2.038   3.708   8.546 -0.3591  2.3909 -1.7633
   18CHL1  H26C 1328   1.985   3.634   8.385 -0.1568  2.0456 -0.7325
   18CHL1   C27 1329   1.850   3.435   8.475 -0.4781 -0.4336 -0.2427
   18CHL1  H27A 1330   1.816   3.342   8.525 -3.0364  0.6662  0.1927
   18CHL1  H27B 1331   1.774   3.453   8.396 -1.5803 -2.1912  0.3582
   18CHL1  H27C 1332   1.948   3.403   8.433 -0.5758 -1.2263  0.1149
   19CHL1    C3 1333   4.613   6.565  10.296  0.3971  0.2185  0.2865
   19CHL1    H3 1334   4.702   6.501  10.280  0.2790 -0.0456  0.6793
   19CHL1    O3 1335   4.611   6.596  10.430 -0.6315 -0.3474 -0.3652
   19CHL1   H3' 1336   4.582   6.516  10.473 -0.0547 -1.5962 -2.1959
   19CHL1    C4 1337   4.614   6.697  10.214 -0.2397  0.9315  0.8121
   19CHL1   H4A 1338   4.530   6.757  10.254 -1.5327 -0.6019  0.4780
   19CHL1   H4B 1339   4.707   6.755  10.236  0.4333  0.8489 -1.5283
   19CHL1    C5 1340   4.589   6.671  10.064  0.1676 -0.9612 -0.1583
   19CHL1    C6 1341   4.681   6.713   9.975  0.9887  0.0080 -0.3919
   19CHL1    H6 1342   4.760   6.779  10.015  0.7671 -1.5165  2.8594
   19CHL1    C7 1343   4.662   6.702   9.830  0.0081  0.1505 -0.5314
   19CHL1   H7A 1344   4.668   6.799   9.776 -0.4412 -0.5842 -1.9712
   19CHL1   H7B 1345   4.744   6.636   9.796  1.2694  1.4715 -0.1534
   19CHL1    C8 1346   4.517   6.648   9.788  0.4787  0.2985 -0.0704
   19CHL1    H8 1347   4.448   6.734   9.796  0.8179  0.5119  0.7469
   19CHL1   C14 1348   4.519   6.602   9.639 -0.3160 -0.1572  0.2174
   19CHL1   H14 1349   4.589   6.516   9.637 -0.3319 -0.2727  2.2131
   19CHL1   C15 1350   4.576   6.695   9.522 -0.0811 -0.1806 -0.3013
   19CHL1  H15A 1351   4.518   6.790   9.522  1.3128  0.7200  1.0293
   19CHL1  H15B 1352   4.686   6.702   9.514 -0.0280 -0.2223  0.3433
   19CHL1   C16 1353   4.516   6.622   9.395  0.9261  0.2160 -0.4915
   19CHL1  H16A 1354   4.469   6.698   9.328  2.1584  2.0720  0.6444
   19CHL1  H16B 1355   4.596   6.569   9.339  0.1247 -2.1968  0.5419
   19CHL1   C17 1356   4.403   6.522   9.444 -0.9239 -0.1146  0.1319
   19CHL1   H17 1357   4.454   6.423   9.451  0.6491  0.6225 -0.6246
   19CHL1   C13 1358   4.380   6.560   9.593  0.3580 -0.2054  0.0576
   19CHL1   C18 1359   4.283   6.678   9.604  0.4419  1.2381  0.0511
   19CHL1  H18A 1360   4.180   6.647   9.576  0.5758  0.9600 -0.1377
   19CHL1  H18B 1361   4.265   6.710   9.709 -1.4020  0.0793  0.1344
   19CHL1  H18C 1362   4.300   6.762   9.532 -1.3813  1.8922  0.3157
   19CHL1   C12 1363   4.342   6.438   9.685 -0.0336 -0.0915 -0.3899
   19CHL1  H12A 1364   4.248   6.389   9.654 -0.2836 -0.7960  1.3926
   19CHL1  H12B 1365   4.426   6.365   9.683 -0.3331 -0.4431 -0.0004
   19CHL1   C11 1366   4.328   6.476   9.838  0.1424 -0.2360  0.3530
   19CHL1  H11A 1367   4.243   6.546   9.853 -2.9987 -3.0786 -2.4829
   19CHL1  H11B 1368   4.299   6.387   9.898  0.0125  0.0628  0.7381
   19CHL1    C9 1369   4.462   6.541   9.885 -0.9139 -0.3329  0.0478
   19CHL1    H9 1370   4.535   6.458   9.883  0.4908  0.8576 -0.0662
   19CHL1   C10 1371   4.466   6.584  10.036  0.1461  0.8118  0.3252
   19CHL1   C19 1372   4.337   6.668  10.064 -0.3723  0.5058  0.6008
   19CHL1  H19A 1373   4.324   6.753   9.993  2.3762  0.9674  0.5197
   19CHL1  H19B 1374   4.249   6.602  10.052 -1.3391  1.3823  2.4473
   19CHL1  H19C 1375   4.331   6.709  10.167 -1.0442  0.2624  0.6586
   19CHL1    C1 1376   4.469   6.455  10.126  0.2984 -0.2897 -0.0132
   19CHL1   H1A 1377   4.371   6.402  10.121  1.2006 -2.1985  1.3796
   19CHL1   H1B 1378   4.548   6.388  10.086  1.5691  2.1338 -1.8148
   19CHL1    C2 1379   4.484   6.488  10.278  0.8386 -0.2133  0.5317
   19CHL1   H2A 1380   4.479   6.398  10.342 -1.0306 -0.7738 -0.3515
   19CHL1   H2B 1381   4.399   6.556  10.302  2.9377  2.7604  0.1660
   19CHL1   C20 1382   4.290   6.524   9.346 -1.2600 -0.0764 -0.6602
   19CHL1   H20 1383   4.259   6.627   9.318  3.3843  1.2272 -1.9524
   19CHL1   C21 1384   4.171   6.444   9.405 -0.0027  0.2155 -0.0754
   19CHL1  H21A 1385   4.195   6.343   9.446 -2.3312 -0.1446  0.5583
   19CHL1  H21B 1386   4.097   6.427   9.324 -0.3886  1.8469 -0.0984
   19CHL1  H21C 1387   4.118   6.497   9.487  1.3782  0.2788  0.8218
   19CHL1   C22 1388   4.331   6.457   9.211 -0.5556  0.0451 -0.2803
   19CHL1  H22A 1389   4.433   6.491   9.181 -0.1073  0.1684  1.2804
   19CHL1  H22B 1390   4.325   6.346   9.223  0.4620 -0.0489 -0.5308
   19CHL1   C23 1391   4.222   6.482   9.101 -0.2885  0.4409  0.5047
   19CHL1  H23A 1392   4.128   6.427   9.121  0.1730  0.1351  2.0055
   19CHL1  H23B 1393   4.195   6.589   9.104 -2.1105  0.1661 -2.4762
   19CHL1   C24 1394   4.279   6.441   8.962  0.1444  0.4183  1.3686
   19CHL1  H24A 1395   4.377   6.488   8.939  1.1514 -0.9269  2.7092
   19CHL1  H24B 1396   4.297   6.332   8.967 -0.5067  0.3115  1.5021
   19CHL1   C25 1397   4.194   6.440   8.834  0.4169 -0.1729 -0.6762
   19CHL1   H25 1398   4.095   6.393   8.856 -0.2159  0.4126 -2.1400
   19CHL1   C26 1399   4.157   6.591   8.798 -0.2729 -0.0816 -0.5035
   19CHL1  H26A 1400   4.157   6.649   8.893  0.7285  0.7653 -0.9949
   19CHL1  H26B 1401   4.223   6.642   8.724 -0.4645 -0.4294 -0.9208
   19CHL1  H26C 1402   4.058   6.580   8.748 -0.3882  1.0377 -0.5488
   19CHL1   C27 1403   4.263   6.377   8.713  0.7726  0.0034 -0.3930
   19CHL1  H27A 1404   4.317   6.284   8.742  0.8853 -0.4193 -1.8848
   19CHL1  H27B 1405   4.184   6.355   8.637  0.6675 -1.6685  0.1527
   19CHL1  H27C 1406   4.332   6.453   8.671  1.3664 -0.6024 -0.5337
   20CHL1    C3 1407   2.483   1.622  10.188  0.1254 -0.1135 -0.4137
   20CHL1    H3 1408   2.375   1.643  10.191 -0.4742 -2.8170  0.1927
   20CHL1    O3 1409   2.518   1.610  10.326 -0.6881  0.4365 -0.0632
   20CHL1   H3' 1410   2.434   1.597  10.369  0.0537 -1.4415  0.9579
   20CHL1    C4 1411   2.498   1.493  10.117 -0.4115 -0.2404 -0.6929
   20CHL1   H4A 1412   2.600   1.455  10.136 -0.9193 -2.3764 -1.8359
   20CHL1   H4B 1413   2.419   1.426  10.157 -0.0829 -0.5584 -0.5733
   20CHL1    C5 1414   2.481   1.501   9.970  0.5090  0.0775 -0.1312
   20CHL1    C6 1415   2.388   1.424   9.906  0.8840 -0.2950  0.1661
   20CHL1    H6 1416   2.342   1.339   9.959  1.8454 -1.6773 -1.1235
   20CHL1    C7 1417   2.369   1.415   9.754 -0.5556  0.3004 -0.0927
   20CHL1   H7A 1418   2.340   1.310   9.730 -3.5290  1.2655 -1.1492
   20CHL1   H7B 1419   2.281   1.480   9.736 -0.2108  0.0134 -3.5781
   20CHL1    C8 1420   2.486   1.481   9.687  0.7780 -0.3149  0.8639
   20CHL1    H8 1421   2.571   1.409   9.682  0.7306 -0.2841 -0.9578
   20CHL1   C14 1422   2.450   1.500   9.535 -0.0517  0.4041  0.3833
   20CHL1   H14 1423   2.351   1.551   9.538 -0.1468  0.1931  2.7942
   20CHL1   C15 1424   2.423   1.373   9.456  0.1651  0.4987  0.1726
   20CHL1  H15A 1425   2.502   1.301   9.486 -0.0473 -0.1882 -0.8375
   20CHL1  H15B 1426   2.321   1.337   9.481 -0.4848  2.5474  0.6609
   20CHL1   C16 1427   2.436   1.418   9.306  0.0992 -0.5035 -0.3012
   20CHL1  H16A 1428   2.510   1.354   9.253 -1.1216 -1.9272 -0.3712
   20CHL1  H16B 1429   2.341   1.415   9.249  0.1134  1.2153 -0.4387
   20CHL1   C17 1430   2.488   1.563   9.315  0.0898 -0.4678  0.3783
   20CHL1   H17 1431   2.407   1.637   9.331  2.0406  1.7338  0.7849
   20CHL1   C13 1432   2.553   1.577   9.450 -0.2214  0.4124  0.2495
   20CHL1   C18 1433   2.689   1.510   9.453 -0.2435  0.9783 -0.1573
   20CHL1  H18A 1434   2.688   1.410   9.405 -1.1509  0.2033  1.4017
   20CHL1  H18B 1435   2.755   1.573   9.389 -0.4671  1.7909  0.3981
   20CHL1  H18C 1436   2.741   1.502   9.550  0.4369  0.4557 -0.5586
   20CHL1   C12 1437   2.555   1.716   9.521 -0.1374 -0.9056  0.2932
   20CHL1  H12A 1438   2.627   1.780   9.466  0.3181 -0.3973  1.4567
   20CHL1  H12B 1439   2.458   1.770   9.522  0.2357 -0.2082  1.5235
   20CHL1   C11 1440   2.614   1.713   9.665  0.0473 -0.7154 -0.2111
   20CHL1  H11A 1441   2.722   1.686   9.663  0.5481  0.8760  1.6960
   20CHL1  H11B 1442   2.602   1.818   9.700  1.4674  0.3323 -2.5722
   20CHL1    C9 1443   2.527   1.613   9.754  0.6906 -0.5152 -0.1543
   20CHL1    H9 1444   2.429   1.665   9.754 -0.7635 -3.0725  0.7798
   20CHL1   C10 1445   2.565   1.607   9.896 -0.1227  0.1167 -0.1600
   20CHL1   C19 1446   2.703   1.555   9.909  0.1021  0.4398 -0.5142
   20CHL1  H19A 1447   2.710   1.461   9.850 -0.5062 -0.9215  1.4944
   20CHL1  H19B 1448   2.778   1.617   9.855  2.4455 -1.2792  0.6048
   20CHL1  H19C 1449   2.743   1.529  10.010 -1.5164 -0.5827 -0.1022
   20CHL1    C1 1450   2.546   1.741   9.976  0.3071  0.7479 -0.1858
   20CHL1   H1A 1451   2.618   1.816   9.936 -0.2014  2.1027  1.3433
   20CHL1   H1B 1452   2.443   1.778   9.960 -0.4166 -1.3722 -0.7310
   20CHL1    C2 1453   2.576   1.729  10.123 -0.2410  0.4416  0.0210
   20CHL1   H2A 1454   2.558   1.817  10.189 -2.1885 -0.1167  0.3045
   20CHL1   H2B 1455   2.682   1.697  10.135 -0.7035 -1.1946  0.0631
   20CHL1   C20 1456   2.563   1.606   9.185  0.2742 -0.1712  0.2246
   20CHL1   H20 1457   2.661   1.553   9.187  1.5495  2.0835  0.6806
   20CHL1   C21 1458   2.618   1.750   9.184  0.2444  0.1722  0.3611
   20CHL1  H21A 1459   2.707   1.763   9.250 -1.0036  0.3911  2.0808
   20CHL1  H21B 1460   2.550   1.826   9.228 -0.7734  1.1339 -2.6528
   20CHL1  H21C 1461   2.646   1.782   9.082  1.3552 -0.6393  0.3928
   20CHL1   C22 1462   2.494   1.571   9.052  0.3038  0.1701  0.0948
   20CHL1  H22A 1463   2.430   1.480   9.046  2.9666 -1.9508  1.3965
   20CHL1  H22B 1464   2.429   1.658   9.034  1.2930  0.8022 -0.5425
   20CHL1   C23 1465   2.585   1.554   8.938 -0.1965 -0.1901  0.1812
   20CHL1  H23A 1466   2.640   1.648   8.916 -0.4166 -0.4697 -1.6561
   20CHL1  H23B 1467   2.650   1.466   8.958  1.0331 -0.0899 -2.8153
   20CHL1   C24 1468   2.507   1.520   8.816 -0.1812  0.1568  0.7711
   20CHL1  H24A 1469   2.446   1.429   8.833  0.4576  0.0649  2.8717
   20CHL1  H24B 1470   2.428   1.595   8.795 -0.4287 -0.3745 -0.3116
   20CHL1   C25 1471   2.589   1.490   8.681 -0.3654  0.4749  0.0570
   20CHL1   H25 1472   2.637   1.391   8.697  0.6315  1.0794  0.9147
   20CHL1   C26 1473   2.502   1.508   8.556  0.2719 -0.3606  0.3256
   20CHL1  H26A 1474   2.475   1.615   8.547 -1.2065 -0.7533 -0.3680
   20CHL1  H26B 1475   2.567   1.479   8.470  1.1053 -1.1242  1.1862
   20CHL1  H26C 1476   2.413   1.441   8.555  1.1797 -1.6861  2.3872
   20CHL1   C27 1477   2.716   1.585   8.671 -0.1473  0.2819  0.0400
   20CHL1  H27A 1478   2.682   1.691   8.665  1.5925  0.8500 -0.4214
   20CHL1  H27B 1479   2.777   1.575   8.763 -1.0064 -3.4075  0.3696
   20CHL1  H27C 1480   2.770   1.571   8.575  1.8263  0.9746  1.0007
   21CHL1    C3 1481   1.551   4.964  10.236  0.0429  0.3772  0.0932
   21CHL1    H3 1482   1.446   4.930  10.246 -0.0532 -0.5078 -2.9180
   21CHL1    O3 1483   1.597   5.002  10.367  0.1908 -0.9589  0.1004
   21CHL1   H3' 1484   1.691   5.021  10.355 -0.2735  1.6449 -0.0222
   21CHL1    C4 1485   1.641   4.840  10.206 -0.0741  0.3927 -0.0634
   21CHL1   H4A 1486   1.746   4.865  10.233  0.8499 -2.4398 -0.7016
   21CHL1   H4B 1487   1.600   4.761  10.273  0.0101 -0.0452 -0.5254
   21CHL1    C5 1488   1.638   4.785  10.063 -0.2369  0.2363  0.0529
   21CHL1    C6 1489   1.600   4.659  10.032 -0.1533 -0.6876  0.2030
   21CHL1    H6 1490   1.585   4.588  10.115 -1.5918 -0.7398 -0.0781
   21CHL1    C7 1491   1.597   4.610   9.888 -0.4969  0.1121 -0.0404
   21CHL1   H7A 1492   1.676   4.532   9.879 -2.5603 -1.9214 -1.9886
   21CHL1   H7B 1493   1.498   4.564   9.867 -0.0718 -1.0399  0.3661
   21CHL1    C8 1494   1.653   4.716   9.778  0.4686 -0.0004 -1.0175
   21CHL1    H8 1495   1.764   4.717   9.790  0.5991 -0.6958 -2.0009
   21CHL1   C14 1496   1.616   4.677   9.636 -0.2313 -0.3392 -0.3170
   21CHL1   H14 1497   1.506   4.684   9.640 -0.1964  0.2901 -0.3737
   21CHL1   C15 1498   1.656   4.536   9.587  0.1607 -0.0445  0.3843
   21CHL1  H15A 1499   1.757   4.505   9.620  0.1785 -0.1894  0.1981
   21CHL1  H15B 1500   1.585   4.459   9.625 -0.8120 -0.6031 -2.3323
   21CHL1   C16 1501   1.655   4.541   9.433 -0.1890  0.0205  0.5061
   21CHL1  H16A 1502   1.758   4.513   9.401 -0.4066 -0.1244 -0.0692
   21CHL1  H16B 1503   1.578   4.478   9.384  0.2081  1.5353 -2.2838
   21CHL1   C17 1504   1.614   4.693   9.403 -0.6539  0.6602  0.5552
   21CHL1   H17 1505   1.503   4.689   9.407 -0.8227  1.4379 -1.6123
   21CHL1   C13 1506   1.660   4.774   9.531 -0.2804 -0.1817 -0.9859
   21CHL1   C18 1507   1.814   4.794   9.523  0.3005 -0.1057 -0.6390
   21CHL1  H18A 1508   1.852   4.695   9.489 -2.5425 -1.0259 -1.3560
   21CHL1  H18B 1509   1.842   4.882   9.461 -1.0889  0.9699  0.2097
   21CHL1  H18C 1510   1.855   4.820   9.623  0.7462 -0.6549 -0.6727
   21CHL1   C12 1511   1.596   4.905   9.560 -0.1231 -0.6709  0.7514
   21CHL1  H12A 1512   1.625   4.971   9.476  0.8154 -1.9323  0.0529
   21CHL1  H12B 1513   1.488   4.886   9.542  0.3696 -0.8147 -2.6809
   21CHL1   C11 1514   1.633   4.959   9.692 -0.3127 -0.2046  0.0135
   21CHL1  H11A 1515   1.740   4.988   9.696 -0.6714  1.4742 -1.2113
   21CHL1  H11B 1516   1.582   5.052   9.724  0.0546 -0.5983  1.9065
   21CHL1    C9 1517   1.602   4.852   9.807 -0.1155  0.0686 -0.6898
   21CHL1    H9 1518   1.491   4.841   9.812 -0.2068  1.0647 -0.1718
   21CHL1   C10 1519   1.649   4.892   9.956  0.5973  0.1965  0.8657
   21CHL1   C19 1520   1.798   4.932   9.949  0.6562 -0.6240 -0.8183
   21CHL1  H19A 1521   1.819   5.025   9.892 -1.6545 -0.0366 -0.8001
   21CHL1  H19B 1522   1.837   4.951  10.051 -0.8671  1.4294 -0.5310
   21CHL1  H19C 1523   1.866   4.862   9.895  0.0113 -1.3195 -0.7414
   21CHL1    C1 1524   1.564   5.016   9.996 -0.8000  0.6453  0.2025
   21CHL1   H1A 1525   1.593   5.100   9.930  1.8337  1.6313  2.3961
   21CHL1   H1B 1526   1.458   4.993   9.972 -0.7578  2.0137 -1.5194
   21CHL1    C2 1527   1.582   5.070  10.134  0.0173 -0.1240  0.4441
   21CHL1   H2A 1528   1.515   5.156  10.154 -0.9493 -0.6015 -0.5946
   21CHL1   H2B 1529   1.685   5.110  10.147 -0.9449  2.6869  0.0875
   21CHL1   C20 1530   1.632   4.749   9.266 -0.8114 -0.2016  0.0596
   21CHL1   H20 1531   1.605   4.856   9.258  1.2615  0.1931 -3.9389
   21CHL1   C21 1532   1.517   4.686   9.182 -0.5671 -0.1529  0.0044
   21CHL1  H21A 1533   1.513   4.576   9.198 -0.6403 -0.0461  0.7832
   21CHL1  H21B 1534   1.513   4.705   9.073 -0.7859 -1.9882 -0.3430
   21CHL1  H21C 1535   1.419   4.719   9.223 -0.4227  0.0136  0.2231
   21CHL1   C22 1536   1.771   4.733   9.196  0.2245 -0.1644 -0.5685
   21CHL1  H22A 1537   1.853   4.759   9.266  1.6145 -0.6443 -1.9330
   21CHL1  H22B 1538   1.788   4.625   9.174 -0.3848 -0.5546  0.7826
   21CHL1   C23 1539   1.780   4.795   9.052  0.0702 -0.5140  0.1259
   21CHL1  H23A 1540   1.713   4.737   8.985 -0.0314  0.1687 -0.3853
   21CHL1  H23B 1541   1.729   4.894   9.061 -0.2190 -0.6254 -0.2598
   21CHL1   C24 1542   1.911   4.805   8.996 -0.1781 -0.2052 -0.0945
   21CHL1  H24A 1543   1.983   4.869   9.051 -0.2079  1.8229 -2.2743
   21CHL1  H24B 1544   1.964   4.707   8.987  3.5895  1.4595  1.7503
   21CHL1   C25 1545   1.904   4.873   8.862 -0.5080  0.2526 -0.3691
   21CHL1   H25 1546   1.849   4.969   8.867 -0.4976  0.2350  0.0835
   21CHL1   C26 1547   2.045   4.919   8.814  0.2975  0.0890  0.1194
   21CHL1  H26A 1548   2.036   5.000   8.738 -0.8461  1.7705  1.9391
   21CHL1  H26B 1549   2.091   4.975   8.899 -0.7484 -1.3023  1.6544
   21CHL1  H26C 1550   2.120   4.844   8.781  2.8939  1.1845  3.0550
   21CHL1   C27 1551   1.832   4.791   8.745 -0.1142 -0.4658 -0.1004
   21CHL1  H27A 1552   1.836   4.841   8.645  1.4027 -0.2300  0.0558
   21CHL1  H27B 1553   1.871   4.687   8.745  1.6728  0.1624  0.9008
   21CHL1  H27C 1554   1.724   4.782   8.771 -0.2457 -0.4624 -0.6351
   22CHL1    C3 1555   1.795   5.486  10.012  0.2012 -0.1937  0.3859
   22CHL1    H3 1556   1.719   5.565   9.998 -2.4570 -2.1684  2.6254
   22CHL1    O3 1557   1.850   5.467  10.146  0.3966 -0.2386  0.3374
   22CHL1   H3' 1558   1.850   5.554  10.185  0.2645  0.7916 -1.8308
   22CHL1    C4 1559   1.725   5.361   9.949 -0.2278  0.4855 -0.2867
   22CHL1   H4A 1560   1.769   5.262   9.975  0.1563  0.7176 -0.0474
   22CHL1   H4B 1561   1.624   5.363   9.994  0.4426  3.6053  1.3545
   22CHL1    C5 1562   1.711   5.365   9.799 -0.1371 -0.0014  0.1093
   22CHL1    C6 1563   1.599   5.361   9.731 -0.3542  0.1094  0.2235
   22CHL1    H6 1564   1.505   5.346   9.786 -0.6773  0.2663 -0.2732
   22CHL1    C7 1565   1.598   5.353   9.580 -0.4933 -0.3112  0.2052
   22CHL1   H7A 1566   1.525   5.277   9.544  1.6471 -2.4324  0.0556
   22CHL1   H7B 1567   1.565   5.447   9.531  0.7198  0.3002  0.5158
   22CHL1    C8 1568   1.728   5.317   9.513 -0.2070  0.2677  0.1847
   22CHL1    H8 1569   1.737   5.210   9.541  1.3048  0.6078  1.1176
   22CHL1   C14 1570   1.722   5.328   9.359 -0.3368  0.1021 -0.3226
   22CHL1   H14 1571   1.714   5.438   9.341 -1.7787  0.1370  0.4340
   22CHL1   C15 1572   1.603   5.254   9.285  0.0047 -0.0632 -0.1035
   22CHL1  H15A 1573   1.580   5.156   9.332 -0.8321 -0.4579 -1.2938
   22CHL1  H15B 1574   1.514   5.319   9.283 -0.0317 -0.1071 -2.2291
   22CHL1   C16 1575   1.656   5.243   9.138  1.2206 -0.1038 -0.8846
   22CHL1  H16A 1576   1.661   5.137   9.105  0.8415 -1.0681  1.8519
   22CHL1  H16B 1577   1.593   5.299   9.066  1.1518 -0.5938 -1.2108
   22CHL1   C17 1578   1.798   5.309   9.139 -0.0404 -0.2677 -0.2859
   22CHL1   H17 1579   1.781   5.418   9.137  1.9826  0.0965 -0.4330
   22CHL1   C13 1580   1.845   5.288   9.290 -0.1876  0.2157 -0.1309
   22CHL1   C18 1581   1.883   5.142   9.317  0.5217  0.1974 -0.6088
   22CHL1  H18A 1582   1.914   5.134   9.423  0.4388  3.6633 -0.2054
   22CHL1  H18B 1583   1.802   5.068   9.303  0.3888  0.0763  0.6801
   22CHL1  H18C 1584   1.971   5.110   9.257  0.4854  0.5768 -0.8692
   22CHL1   C12 1585   1.959   5.376   9.338 -0.7199 -0.4511 -0.2515
   22CHL1  H12A 1586   2.059   5.344   9.301 -0.4291 -0.7253  0.7313
   22CHL1  H12B 1587   1.931   5.481   9.314 -1.0672 -0.5465 -0.2608
   22CHL1   C11 1588   1.977   5.375   9.495 -1.3963 -0.2491 -0.1176
   22CHL1  H11A 1589   2.030   5.279   9.515  0.3883  0.4159 -1.4155
   22CHL1  H11B 1590   2.054   5.453   9.516 -0.5936 -0.8181 -0.8500
   22CHL1    C9 1591   1.838   5.397   9.574 -0.8244 -0.6807  0.0217
   22CHL1    H9 1592   1.824   5.503   9.546  0.2753 -0.5797 -0.1987
   22CHL1   C10 1593   1.845   5.379   9.726 -1.0914  0.3914 -0.2892
   22CHL1   C19 1594   1.926   5.253   9.767  0.4247  0.6783  0.1186
   22CHL1  H19A 1595   1.939   5.240   9.877 -0.9263 -0.1793  0.1963
   22CHL1  H19B 1596   1.878   5.164   9.722  1.9949  0.9247 -2.1812
   22CHL1  H19C 1597   2.033   5.263   9.740  0.7115  1.3357  1.3787
   22CHL1    C1 1598   1.904   5.513   9.784  0.3673 -0.0657  0.0148
   22CHL1   H1A 1599   2.001   5.522   9.732  0.4260 -2.0182 -0.2948
   22CHL1   H1B 1600   1.845   5.599   9.746 -2.1151 -0.8046  1.8865
   22CHL1    C2 1601   1.925   5.507   9.936  0.0691  0.2004  0.0619
   22CHL1   H2A 1602   1.980   5.600   9.963  1.7209 -0.9891  0.9501
   22CHL1   H2B 1603   2.004   5.432   9.956  1.9671  1.6177 -1.7088
   22CHL1   C20 1604   1.875   5.263   9.019  0.0228 -0.5388  0.5081
   22CHL1   H20 1605   1.866   5.155   8.994  1.2936 -0.2152 -1.6374
   22CHL1   C21 1606   2.024   5.300   9.023  0.4436 -0.0026 -0.3166
   22CHL1  H21A 1607   2.031   5.408   9.048 -0.7065 -0.2490  1.1934
   22CHL1  H21B 1608   2.088   5.297   8.932  0.5339  2.6987 -0.4414
   22CHL1  H21C 1609   2.073   5.258   9.113 -2.7086 -1.5688  0.8253
   22CHL1   C22 1610   1.822   5.339   8.888 -0.0006  0.8904 -0.4224
   22CHL1  H22A 1611   1.711   5.344   8.890  0.0191  0.9955  0.7726
   22CHL1  H22B 1612   1.868   5.440   8.888 -1.0751  1.4065  0.7396
   22CHL1   C23 1613   1.869   5.270   8.758 -0.2494 -1.2078 -0.2407
   22CHL1  H23A 1614   1.979   5.257   8.752 -0.2530 -1.1895 -0.3422
   22CHL1  H23B 1615   1.827   5.167   8.764 -1.8667 -0.6101 -0.7695
   22CHL1   C24 1616   1.815   5.341   8.637 -0.3192  0.3184  0.0516
   22CHL1  H24A 1617   1.704   5.340   8.650 -0.2150 -0.8374  1.0034
   22CHL1  H24B 1618   1.840   5.449   8.642  1.1515 -0.0466  0.9383
   22CHL1   C25 1619   1.864   5.277   8.500 -0.4299 -0.2659 -0.9061
   22CHL1   H25 1620   1.971   5.305   8.507 -0.5075 -0.3845  4.6070
   22CHL1   C26 1621   1.821   5.129   8.483  0.0618 -0.1524  0.0034
   22CHL1  H26A 1622   1.878   5.071   8.559 -0.3643  0.2261  0.6200
   22CHL1  H26B 1623   1.712   5.116   8.501 -0.3255  1.1342 -1.1925
   22CHL1  H26C 1624   1.848   5.091   8.382  1.0168  3.1851 -1.1416
   22CHL1   C27 1625   1.798   5.360   8.392 -0.2645  0.1342  0.3385
   22CHL1  H27A 1626   1.832   5.329   8.291 -0.0926  0.6552  0.2316
   22CHL1  H27B 1627   1.688   5.358   8.407 -0.3659 -0.4862 -0.4370
   22CHL1  H27C 1628   1.827   5.467   8.400  0.4327  0.0670 -0.9911
   23CHL1    C3 1629   3.795   0.831  10.356  0.3210 -0.6968  0.1338
   23CHL1    H3 1630   3.758   0.915  10.294 -0.7858 -2.2154 -1.3804
   23CHL1    O3 1631   3.750   0.853  10.489 -0.0465 -0.1621 -0.5163
   23CHL1   H3' 1632   3.728   0.767  10.526  1.3497  0.4743  1.9555
   23CHL1    C4 1633   3.711   0.714  10.305  0.0232  0.4885  0.0364
   23CHL1   H4A 1634   3.729   0.621  10.363 -0.6542  1.1762  1.3965
   23CHL1   H4B 1635   3.604   0.741  10.318  0.2709  1.3984  0.2134
   23CHL1    C5 1636   3.744   0.689  10.160  0.3119  0.1353  0.8678
   23CHL1    C6 1637   3.649   0.686  10.064 -0.6187 -0.6599 -0.3586
   23CHL1    H6 1638   3.547   0.711  10.095  0.1511  2.2984  0.1612
   23CHL1    C7 1639   3.663   0.669   9.916  0.4595  0.6468  0.2031
   23CHL1   H7A 1640   3.586   0.600   9.876 -0.0063 -0.1619  2.3161
   23CHL1   H7B 1641   3.636   0.767   9.871  0.4196  0.5245 -0.0418
   23CHL1    C8 1642   3.797   0.622   9.878 -0.3083  0.3116 -0.2682
   23CHL1    H8 1643   3.805   0.513   9.898 -1.1533  0.7098  2.7627
   23CHL1   C14 1644   3.830   0.658   9.734  0.0293  0.2006  0.7444
   23CHL1   H14 1645   3.840   0.769   9.735 -1.2730  0.3382  1.9822
   23CHL1   C15 1646   3.713   0.640   9.629  0.4458  0.3519 -0.5395
   23CHL1  H15A 1647   3.670   0.539   9.646  0.9058 -0.0986 -1.9687
   23CHL1  H15B 1648   3.643   0.727   9.632  1.2483  1.1396 -2.7720
   23CHL1   C16 1649   3.791   0.636   9.497  1.3692  0.3480  0.2931
   23CHL1  H16A 1650   3.785   0.543   9.437  1.1220 -0.2427  1.2145
   23CHL1  H16B 1651   3.742   0.717   9.439  0.6463  0.0516  0.4749
   23CHL1   C17 1652   3.944   0.667   9.526  0.4465  0.2037 -0.6350
   23CHL1   H17 1653   3.954   0.776   9.541 -1.0153  0.3743 -0.7080
   23CHL1   C13 1654   3.959   0.614   9.671 -0.0186 -0.2953  0.4600
   23CHL1   C18 1655   3.947   0.457   9.663 -0.2752 -0.6106 -0.2220
   23CHL1  H18A 1656   3.860   0.408   9.614 -0.1801 -0.5912 -0.4115
   23CHL1  H18B 1657   4.037   0.407   9.620 -1.8438 -3.7469 -0.1877
   23CHL1  H18C 1658   3.943   0.425   9.769  0.0238 -2.1149 -0.6338
   23CHL1   C12 1659   4.072   0.668   9.752 -0.1745 -0.1319 -0.0713
   23CHL1  H12A 1660   4.173   0.626   9.733 -0.1973 -0.3590  0.2918
   23CHL1  H12B 1661   4.067   0.778   9.737 -2.8374  0.3004  2.7518
   23CHL1   C11 1662   4.048   0.649   9.903 -0.0474 -0.1914 -0.0025
   23CHL1  H11A 1663   4.076   0.544   9.928 -1.7452 -0.0972  2.5573
   23CHL1  H11B 1664   4.124   0.711   9.956 -0.6753  0.0611  0.6087
   23CHL1    C9 1665   3.910   0.691   9.962 -0.3793  0.0554 -0.3904
   23CHL1    H9 1666   3.913   0.799   9.935 -0.9003 -0.3069 -2.0730
   23CHL1   C10 1667   3.890   0.676  10.122 -0.4739 -0.3748  0.9922
   23CHL1   C19 1668   3.948   0.539  10.173  0.4569 -0.1491  0.1964
   23CHL1  H19A 1669   3.888   0.467  10.115 -2.1515  1.1292  1.1685
   23CHL1  H19B 1670   4.054   0.526  10.141  0.8908  3.6315 -0.4642
   23CHL1  H19C 1671   3.935   0.517  10.281 -3.5287  0.2837 -0.0715
   23CHL1    C1 1672   3.974   0.785  10.198 -0.4072 -0.0737  0.5105
   23CHL1   H1A 1673   4.081   0.771  10.171 -0.4945 -0.8619  0.5316
   23CHL1   H1B 1674   3.955   0.883  10.149  3.2032  1.1105  1.1721
   23CHL1    C2 1675   3.948   0.798  10.348  0.5142 -0.5382  0.5640
   23CHL1   H2A 1676   4.015   0.873  10.395 -0.8868  0.7047  0.6560
   23CHL1   H2B 1677   3.963   0.698  10.393 -0.2372 -0.2643  1.4448
   23CHL1   C20 1678   4.042   0.618   9.419 -0.2348 -0.7580 -0.2656
   23CHL1   H20 1679   4.023   0.511   9.397  0.1688 -1.3426  1.9684
   23CHL1   C21 1680   4.183   0.654   9.453 -0.1939 -0.5906 -0.6445
   23CHL1  H21A 1681   4.226   0.587   9.530 -0.1984 -0.3975 -0.4736
   23CHL1  H21B 1682   4.189   0.760   9.483 -1.9694 -0.9414  1.1850
   23CHL1  H21C 1683   4.251   0.641   9.366  2.1633  2.0104  0.6748
   23CHL1   C22 1684   3.999   0.680   9.280  0.7610  0.3207  0.3730
   23CHL1  H22A 1685   3.889   0.663   9.280  0.7047  0.6778  0.0603
   23CHL1  H22B 1686   4.013   0.790   9.290  1.4371  0.2745 -0.0172
   23CHL1   C23 1687   4.067   0.609   9.164 -0.0094 -0.4373 -0.2209
   23CHL1  H23A 1688   4.168   0.657   9.160 -0.6895  1.2269  1.1459
   23CHL1  H23B 1689   4.081   0.505   9.200  0.3414 -0.0542  0.8286
   23CHL1   C24 1690   4.009   0.637   9.028 -0.5234  0.5717 -0.3930
   23CHL1  H24A 1691   4.013   0.748   9.023  0.1512  0.5449 -0.5742
   23CHL1  H24B 1692   4.070   0.596   8.945 -0.1360  0.7069 -0.1798
   23CHL1   C25 1693   3.863   0.599   9.010 -0.2579 -0.0950  0.0354
   23CHL1   H25 1694   3.805   0.660   9.082 -0.3676 -0.2776  0.1043
   23CHL1   C26 1695   3.819   0.611   8.867 -0.9907 -0.6009 -0.6580
   23CHL1  H26A 1696   3.829   0.716   8.832 -2.1017  0.1131  1.0316
   23CHL1  H26B 1697   3.887   0.552   8.800  0.8449 -0.0153  0.6024
   23CHL1  H26C 1698   3.716   0.569   8.863 -0.5014 -1.9463  0.0383
   23CHL1   C27 1699   3.837   0.451   9.045  0.1958 -0.3550  0.3208
   23CHL1  H27A 1700   3.732   0.427   9.019  0.5642 -2.1560  0.3353
   23CHL1  H27B 1701   3.896   0.375   8.989 -1.4341 -1.8180  0.5052
   23CHL1  H27C 1702   3.854   0.432   9.154 -1.2663 -3.5851  0.1004
   24CHL1    C3 1703   5.522   3.408  10.123  0.5125  0.0491 -0.0158
   24CHL1    H3 1704   5.530   3.297  10.120 -0.8521 -0.0408 -1.7229
   24CHL1    O3 1705   5.509   3.456  10.257 -0.2141 -0.7022 -0.0957
   24CHL1   H3' 1706   5.568   3.531  10.270 -1.7951  0.2814  1.9298
   24CHL1    C4 1707   5.653   3.457  10.061  0.5143  0.2678 -0.1245
   24CHL1   H4A 1708   5.659   3.567  10.073  1.1680 -0.0800  4.5262
   24CHL1   H4B 1709   5.732   3.427  10.132  0.7811 -1.4193 -1.0718
   24CHL1    C5 1710   5.665   3.425   9.912 -0.0302 -0.1861 -0.5137
   24CHL1    C6 1711   5.775   3.356   9.873 -0.3069 -0.2418  0.5113
   24CHL1    H6 1712   5.853   3.327   9.945 -1.4885 -1.7444  1.2317
   24CHL1    C7 1713   5.805   3.328   9.728 -0.9226  0.2449 -0.6733
   24CHL1   H7A 1714   5.906   3.371   9.707 -1.1024  1.0020 -0.0227
   24CHL1   H7B 1715   5.793   3.218   9.728 -2.6593  0.3887  0.9784
   24CHL1    C8 1716   5.703   3.393   9.632 -0.5641  0.9198  0.3370
   24CHL1    H8 1717   5.741   3.495   9.609  2.7245  0.1499  1.7886
   24CHL1   C14 1718   5.702   3.308   9.501 -0.7167  0.2221 -0.1929
   24CHL1   H14 1719   5.661   3.209   9.526 -0.8724 -0.0412 -1.4400
   24CHL1   C15 1720   5.835   3.276   9.437  0.1962  0.2088  0.4928
   24CHL1  H15A 1721   5.895   3.369   9.439  1.0633 -0.3444  1.4665
   24CHL1  H15B 1722   5.886   3.200   9.500  1.8415  0.8185 -0.0465
   24CHL1   C16 1723   5.797   3.228   9.301 -0.5564  0.1327 -0.5515
   24CHL1  H16A 1724   5.865   3.266   9.222  0.0429  1.5543  0.6279
   24CHL1  H16B 1725   5.805   3.117   9.301  0.6745  0.2087 -0.5028
   24CHL1   C17 1726   5.649   3.268   9.281  0.9840  0.2025  0.2193
   24CHL1   H17 1727   5.594   3.176   9.310  2.3398 -1.4212 -2.0445
   24CHL1   C13 1728   5.621   3.376   9.390  0.1259 -0.1107 -0.1909
   24CHL1   C18 1729   5.677   3.515   9.342  0.3007 -0.1608  0.6044
   24CHL1  H18A 1730   5.664   3.591   9.421 -0.3340  0.1065  0.2449
   24CHL1  H18B 1731   5.785   3.505   9.316 -0.1300  1.7908 -2.4198
   24CHL1  H18C 1732   5.622   3.547   9.251  1.5748  1.4285  0.3517
   24CHL1   C12 1733   5.476   3.395   9.441 -0.4055 -0.5402  0.1685
   24CHL1  H12A 1734   5.423   3.454   9.363  0.5868  0.8353  0.4813
   24CHL1  H12B 1735   5.446   3.289   9.447  1.6700 -1.0872  1.8041
   24CHL1   C11 1736   5.466   3.466   9.576  0.1707 -0.4141 -0.8756
   24CHL1  H11A 1737   5.495   3.573   9.567 -0.2226 -0.0403  1.6839
   24CHL1  H11B 1738   5.360   3.455   9.607 -0.5198  2.8251 -1.6612
   24CHL1    C9 1739   5.565   3.412   9.682  0.3827 -0.2604  0.4061
   24CHL1    H9 1740   5.539   3.305   9.694  0.1608 -0.4226 -1.3080
   24CHL1   C10 1741   5.553   3.475   9.826  0.6844 -0.6621 -0.4742
   24CHL1   C19 1742   5.556   3.630   9.817  0.2195 -0.2986 -0.2296
   24CHL1  H19A 1743   5.657   3.665   9.787 -0.2480  1.7132  0.3978
   24CHL1  H19B 1744   5.486   3.671   9.742  0.2099 -0.7265 -0.4576
   24CHL1  H19C 1745   5.532   3.670   9.917  3.4563  1.5208 -0.0373
   24CHL1    C1 1746   5.421   3.420   9.896 -0.3605  0.3906 -0.7259
   24CHL1   H1A 1747   5.324   3.448   9.850 -1.2600 -0.5782  0.4778
   24CHL1   H1B 1748   5.434   3.309   9.894 -0.7883  0.3381 -0.6446
   24CHL1    C2 1749   5.405   3.463  10.046  0.6559 -0.2731  0.2871
   24CHL1   H2A 1750   5.308   3.434  10.090  1.3316  0.0500  2.0652
   24CHL1   H2B 1751   5.410   3.574  10.046  1.8256 -0.1912 -3.3174
   24CHL1   C20 1752   5.613   3.299   9.129 -0.4921 -0.2322 -0.5672
   24CHL1   H20 1753   5.667   3.395   9.117 -0.1887 -0.6977 -3.6186
   24CHL1   C21 1754   5.462   3.328   9.107  0.6267  0.3635 -0.7310
   24CHL1  H21A 1755   5.406   3.237   9.137  0.6215  0.9002  0.9701
   24CHL1  H21B 1756   5.449   3.341   8.997  0.4666 -3.1800 -1.2436
   24CHL1  H21C 1757   5.423   3.418   9.159  1.3384  1.1804 -1.5632
   24CHL1   C22 1758   5.678   3.197   9.031 -0.3267 -0.4562 -0.2290
   24CHL1  H22A 1759   5.788   3.198   9.039 -0.2938 -0.1548 -0.6527
   24CHL1  H22B 1760   5.649   3.095   9.066  1.6588 -0.9348  0.1113
   24CHL1   C23 1761   5.646   3.208   8.881 -0.2118  0.1049  0.1621
   24CHL1  H23A 1762   5.536   3.199   8.868  0.0501 -2.0008 -0.8783
   24CHL1  H23B 1763   5.666   3.313   8.850 -2.3815  1.4497  2.8302
   24CHL1   C24 1764   5.727   3.120   8.789  0.1124 -0.2576 -0.1589
   24CHL1  H24A 1765   5.835   3.126   8.813  0.4238  0.3055 -1.6119
   24CHL1  H24B 1766   5.693   3.015   8.805 -2.8785  0.1250 -2.9789
   24CHL1   C25 1767   5.704   3.139   8.640  0.4329 -0.6191 -0.2759
   24CHL1   H25 1768   5.729   3.245   8.620  3.1686 -1.2544 -0.6195
   24CHL1   C26 1769   5.806   3.053   8.569  0.2008 -1.0564 -0.1760
   24CHL1  H26A 1770   5.802   2.949   8.609 -0.5968 -0.8274  0.3696
   24CHL1  H26B 1771   5.785   3.046   8.460  0.9870  0.1838 -0.4176
   24CHL1  H26C 1772   5.909   3.085   8.595 -0.2461  1.0638 -0.8010
   24CHL1   C27 1773   5.557   3.112   8.596 -0.0273 -0.4520 -0.0195
   24CHL1  H27A 1774   5.488   3.189   8.635 -0.7193 -0.5662 -0.9829
   24CHL1  H27B 1775   5.543   3.115   8.486  1.6359  0.8876 -0.2360
   24CHL1  H27C 1776   5.528   3.009   8.625 -2.6479 -0.2118 -1.4707
   25CHL1    C3 1777   6.736   4.190  10.344  0.4242  0.2677  0.7718
   25CHL1    H3 1778   6.771   4.293  10.322  1.0060 -0.1525 -0.4208
   25CHL1    O3 1779   6.734   4.162  10.484  0.1947 -0.7275  0.1715
   25CHL1   H3' 1780   6.742   4.067  10.495 -0.0757 -0.7363  0.2958
   25CHL1    C4 1781   6.593   4.167  10.290 -0.2900 -0.2508 -0.4349
   25CHL1   H4A 1782   6.550   4.074  10.335 -0.7394  0.2683  0.2209
   25CHL1   H4B 1783   6.534   4.255  10.324 -0.6703  0.3995 -2.6482
   25CHL1    C5 1784   6.592   4.158  10.141 -0.4097  0.3674 -0.3836
   25CHL1    C6 1785   6.499   4.235  10.076  0.5293  0.9619  0.0552
   25CHL1    H6 1786   6.420   4.289  10.130  0.0421  0.4295 -0.1072
   25CHL1    C7 1787   6.484   4.235   9.921 -0.4715 -0.6321 -0.7249
   25CHL1   H7A 1788   6.379   4.210   9.897 -0.9178  1.3032 -0.9747
   25CHL1   H7B 1789   6.513   4.336   9.884 -0.4709 -0.7289 -0.9948
   25CHL1    C8 1790   6.576   4.134   9.846 -0.7490 -0.2036 -0.3364
   25CHL1    H8 1791   6.542   4.029   9.843  1.8224 -1.0889 -1.7091
   25CHL1   C14 1792   6.597   4.189   9.712  0.3980  0.2777 -0.3862
   25CHL1   H14 1793   6.649   4.287   9.719  0.5645  0.2387 -1.0091
   25CHL1   C15 1794   6.470   4.217   9.633 -0.9805 -0.1829 -0.4977
   25CHL1  H15A 1795   6.398   4.142   9.672 -0.7184  0.3581  1.0864
   25CHL1  H15B 1796   6.447   4.324   9.654  0.7271  0.2766 -0.8440
   25CHL1   C16 1797   6.513   4.211   9.481 -0.1475 -0.0970  0.1967
   25CHL1  H16A 1798   6.448   4.136   9.431 -0.1311 -0.3795  0.5970
   25CHL1  H16B 1799   6.499   4.308   9.429  1.7441  0.1758  0.1140
   25CHL1   C17 1800   6.664   4.189   9.489 -0.1476  0.3585 -0.6888
   25CHL1   H17 1801   6.716   4.287   9.488 -0.6177  0.6322  0.5428
   25CHL1   C13 1802   6.694   4.120   9.623 -0.0634  1.2723 -0.1332
   25CHL1   C18 1803   6.657   3.971   9.619  0.1078  0.0989 -0.1452
   25CHL1  H18A 1804   6.549   3.972   9.591 -0.3174  0.4417  1.3889
   25CHL1  H18B 1805   6.725   3.929   9.542  0.8208 -1.1183  1.1018
   25CHL1  H18C 1806   6.672   3.909   9.710  2.2300  3.3055  1.9051
   25CHL1   C12 1807   6.834   4.133   9.693 -0.0952 -0.8083  1.0563
   25CHL1  H12A 1808   6.910   4.078   9.633 -0.0359  0.8484 -0.4878
   25CHL1  H12B 1809   6.856   4.241   9.705 -0.3233 -0.7498  0.9596
   25CHL1   C11 1810   6.838   4.079   9.837  0.5531  0.4793  0.1105
   25CHL1  H11A 1811   6.833   3.968   9.840  0.2956  0.5093  0.9559
   25CHL1  H11B 1812   6.929   4.107   9.893 -0.9876  0.5809  2.7365
   25CHL1    C9 1813   6.717   4.130   9.920 -0.4447  0.3248  0.1931
   25CHL1    H9 1814   6.745   4.237   9.933 -1.2584  0.5240  0.3329
   25CHL1   C10 1815   6.708   4.081  10.065  0.5214  0.2463  0.6179
   25CHL1   C19 1816   6.660   3.934  10.058  0.4976 -0.3259  1.0062
   25CHL1  H19A 1817   6.727   3.873   9.992 -0.5090 -0.2427 -0.1382
   25CHL1  H19B 1818   6.654   3.880  10.154 -0.6411 -0.2744  0.9829
   25CHL1  H19C 1819   6.557   3.924  10.016  1.0633  0.7216 -0.7420
   25CHL1    C1 1820   6.838   4.097  10.138  0.6380  0.0398  0.3461
   25CHL1   H1A 1821   6.915   4.024  10.106 -0.2695 -1.6063  1.7599
   25CHL1   H1B 1822   6.873   4.200  10.112  1.3024 -0.3411 -0.3005
   25CHL1    C2 1823   6.834   4.091  10.283  0.2085 -0.7497  0.0158
   25CHL1   H2A 1824   6.934   4.103  10.330 -1.0753 -0.1769  2.7813
   25CHL1   H2B 1825   6.810   3.991  10.324 -0.6665 -0.6927 -0.3266
   25CHL1   C20 1826   6.708   4.127   9.361  0.7401  0.1587  0.2544
   25CHL1   H20 1827   6.676   4.021   9.354 -1.5924  0.8844 -1.1315
   25CHL1   C21 1828   6.862   4.138   9.378 -0.1813 -0.5602 -0.4707
   25CHL1  H21A 1829   6.912   4.142   9.279  0.6496 -0.2523 -0.0529
   25CHL1  H21B 1830   6.903   4.053   9.437  1.0518  0.5505  0.3423
   25CHL1  H21C 1831   6.894   4.236   9.419  0.1088 -1.0567  0.5165
   25CHL1   C22 1832   6.667   4.186   9.218  0.0208 -0.3742  1.1763
   25CHL1  H22A 1833   6.556   4.178   9.219  0.0216 -1.6086 -1.2827
   25CHL1  H22B 1834   6.695   4.293   9.225  1.0119 -0.6825  2.1032
   25CHL1   C23 1835   6.718   4.110   9.094  0.4207  0.6512 -0.5723
   25CHL1  H23A 1836   6.828   4.120   9.100  0.1977  2.6927  1.5408
   25CHL1  H23B 1837   6.688   4.003   9.092  3.6246 -0.4562  1.5333
   25CHL1   C24 1838   6.666   4.177   8.965  0.0133  0.4722 -0.6657
   25CHL1  H24A 1839   6.556   4.182   8.979 -0.2399 -2.1502 -1.1856
   25CHL1  H24B 1840   6.701   4.282   8.962  1.3269  0.0888  0.3416
   25CHL1   C25 1841   6.698   4.092   8.837 -0.2552  0.4160  0.1213
   25CHL1   H25 1842   6.669   3.987   8.856  1.8224 -0.2207  0.0052
   25CHL1   C26 1843   6.628   4.148   8.713  0.2035  0.9290  0.4767
   25CHL1  H26A 1844   6.664   4.097   8.622 -1.0471  0.9234 -0.0327
   25CHL1  H26B 1845   6.519   4.133   8.728  0.3714 -0.9582 -0.0364
   25CHL1  H26C 1846   6.647   4.257   8.701 -2.1976  1.3590  0.0027
   25CHL1   C27 1847   6.854   4.087   8.805 -0.0908  0.1179 -0.0273
   25CHL1  H27A 1848   6.879   4.018   8.723  2.6751  1.2077 -0.2022
   25CHL1  H27B 1849   6.881   4.189   8.770  0.0833 -0.2609 -1.0095
   25CHL1  H27C 1850   6.918   4.062   8.893 -1.5184 -0.4036  0.8937
   26CHL1    C3 1851   3.570   4.525  10.055 -0.5846 -0.6969 -0.5471
   26CHL1    H3 1852   3.507   4.434  10.052  0.2300 -1.3458  0.8686
   26CHL1    O3 1853   3.606   4.555  10.185 -0.4238 -0.5334 -0.3821
   26CHL1   H3' 1854   3.623   4.650  10.191 -0.1541 -0.6474  1.0731
   26CHL1    C4 1855   3.696   4.520   9.968 -0.1773 -0.5559 -0.1831
   26CHL1   H4A 1856   3.749   4.615   9.992 -0.0239 -1.0456  1.5293
   26CHL1   H4B 1857   3.756   4.433  10.001  0.0419 -0.8497 -1.3135
   26CHL1    C5 1858   3.660   4.514   9.820 -0.1933  0.0896  0.4989
   26CHL1    C6 1859   3.706   4.420   9.741 -0.3434 -0.1050 -0.0876
   26CHL1    H6 1860   3.770   4.345   9.789  1.3808  0.9060 -0.7301
   26CHL1    C7 1861   3.682   4.417   9.593  0.3552 -0.1418 -0.0661
   26CHL1   H7A 1862   3.777   4.395   9.539  1.0103 -0.2380  1.0833
   26CHL1   H7B 1863   3.614   4.331   9.577  0.8205 -0.3315 -1.1544
   26CHL1    C8 1864   3.622   4.541   9.535  0.1642  0.8402  0.2537
   26CHL1    H8 1865   3.712   4.606   9.528  0.4286  0.3071 -2.2118
   26CHL1   C14 1866   3.555   4.514   9.400  0.2313 -0.8330  0.1960
   26CHL1   H14 1867   3.469   4.447   9.422  0.8169 -0.8773  2.6856
   26CHL1   C15 1868   3.636   4.441   9.299 -0.4084 -0.2349 -0.9770
   26CHL1  H15A 1869   3.738   4.482   9.293 -0.8985  0.9829 -1.2174
   26CHL1  H15B 1870   3.646   4.334   9.326  1.0203 -0.5156 -2.4526
   26CHL1   C16 1871   3.569   4.472   9.176  0.3616  0.7866  0.6418
   26CHL1  H16A 1872   3.640   4.511   9.099 -0.0008  0.7648  0.2937
   26CHL1  H16B 1873   3.513   4.392   9.123 -1.3295  2.5812 -0.4564
   26CHL1   C17 1874   3.460   4.580   9.200  0.4412 -0.1609 -0.4067
   26CHL1   H17 1875   3.364   4.528   9.221  0.1904  0.6225  0.4733
   26CHL1   C13 1876   3.504   4.642   9.331 -0.0303 -0.2260 -0.2821
   26CHL1   C18 1877   3.629   4.741   9.306  0.3189  0.4078  0.5507
   26CHL1  H18A 1878   3.671   4.789   9.397  2.6171  0.2047 -0.3114
   26CHL1  H18B 1879   3.717   4.690   9.259 -0.3658  0.2329 -0.5896
   26CHL1  H18C 1880   3.602   4.813   9.226  0.9356 -1.3294 -1.3219
   26CHL1   C12 1881   3.392   4.689   9.424 -0.0742  0.2461  0.5271
   26CHL1  H12A 1882   3.348   4.780   9.379 -2.0478 -0.1997  1.4817
   26CHL1  H12B 1883   3.314   4.610   9.430 -1.0621  1.1073 -0.7557
   26CHL1   C11 1884   3.440   4.723   9.564  0.2129  0.1870  0.2298
   26CHL1  H11A 1885   3.502   4.814   9.549  0.1372  0.6710  2.5156
   26CHL1  H11B 1886   3.356   4.747   9.632 -0.6881  0.7775 -1.0531
   26CHL1    C9 1887   3.513   4.601   9.627 -0.0927  0.0781 -0.0338
   26CHL1    H9 1888   3.439   4.518   9.634 -2.3583  1.9797 -0.4993
   26CHL1   C10 1889   3.566   4.619   9.775  0.2958  0.6429  0.2493
   26CHL1   C19 1890   3.635   4.761   9.773 -0.0507  0.3183 -0.4470
   26CHL1  H19A 1891   3.555   4.838   9.765 -0.0555  0.6434  2.0727
   26CHL1  H19B 1892   3.687   4.792   9.866 -0.9006 -2.5621  1.1097
   26CHL1  H19C 1893   3.703   4.771   9.685  0.2926  0.2069 -0.1995
   26CHL1    C1 1894   3.442   4.615   9.864 -0.4234 -0.1244  0.7731
   26CHL1   H1A 1895   3.379   4.703   9.839  2.0198  1.9511  1.4791
   26CHL1   H1B 1896   3.394   4.515   9.852  1.7884 -1.0100 -1.6089
   26CHL1    C2 1897   3.470   4.633  10.011  0.7758  0.2365  0.1765
   26CHL1   H2A 1898   3.383   4.624  10.080 -0.9935 -0.5367 -2.0151
   26CHL1   H2B 1899   3.526   4.727  10.026  0.4086  0.5301 -0.2635
   26CHL1   C20 1900   3.432   4.662   9.073  0.0236  0.7643  0.1391
   26CHL1   H20 1901   3.526   4.716   9.049  1.6729 -0.8570  2.5167
   26CHL1   C21 1902   3.323   4.772   9.092  0.2238  0.3071 -0.1353
   26CHL1  H21A 1903   3.344   4.836   9.180 -0.1710 -0.5590  0.6127
   26CHL1  H21B 1904   3.218   4.737   9.098  0.4878 -0.6899 -0.9573
   26CHL1  H21C 1905   3.323   4.842   9.006 -0.6900 -0.3239 -0.6717
   26CHL1   C22 1906   3.401   4.579   8.941 -0.0853  0.0517 -0.4047
   26CHL1  H22A 1907   3.489   4.515   8.917  1.2196  1.6636 -0.0812
   26CHL1  H22B 1908   3.317   4.511   8.967  1.6786 -1.4511  1.8011
   26CHL1   C23 1909   3.361   4.663   8.824  0.2415  0.2171 -0.5487
   26CHL1  H23A 1910   3.269   4.723   8.842  0.4180  0.8264 -1.5595
   26CHL1  H23B 1911   3.448   4.729   8.805 -0.4057  0.7250 -1.9118
   26CHL1   C24 1912   3.325   4.573   8.704  0.1378  0.0444  0.5359
   26CHL1  H24A 1913   3.410   4.504   8.687 -0.5447 -0.4104 -1.2200
   26CHL1  H24B 1914   3.230   4.518   8.723 -0.1448  0.6720  0.9866
   26CHL1   C25 1915   3.288   4.652   8.576 -0.2325  1.0925 -0.5332
   26CHL1   H25 1916   3.368   4.729   8.570  0.7217  0.3044  1.1509
   26CHL1   C26 1917   3.298   4.553   8.461 -0.1660  0.1031 -0.2362
   26CHL1  H26A 1918   3.280   4.594   8.360 -1.2547  0.6990  0.1844
   26CHL1  H26B 1919   3.399   4.508   8.473  0.0634  0.1430 -1.8309
   26CHL1  H26C 1920   3.230   4.466   8.454  0.1556 -0.2023  0.3690
   26CHL1   C27 1921   3.153   4.730   8.587 -0.0590  0.1729  0.4695
   26CHL1  H27A 1922   3.075   4.680   8.648  0.7154  0.0264  1.3616
   26CHL1  H27B 1923   3.184   4.822   8.640  2.5512  0.0598 -0.7043
   26CHL1  H27C 1924   3.113   4.767   8.490 -0.6759 -0.0427  0.6343
   27CHL1    C3 1925   0.506   2.673  10.444  0.0452 -0.3083 -0.5803
   27CHL1    H3 1926   0.594   2.624  10.397  1.0450  2.0739 -1.3490
   27CHL1    O3 1927   0.524   2.641  10.587  0.1981 -0.5754 -0.1731
   27CHL1   H3' 1928   0.433   2.664  10.610  0.1157  3.7866 -3.6226
   27CHL1    C4 1929   0.516   2.825  10.417  0.2934  0.2977 -0.3374
   27CHL1   H4A 1930   0.458   2.885  10.490  0.5227  1.2936 -0.9556
   27CHL1   H4B 1931   0.621   2.854  10.437  0.7043 -0.9939 -0.4855
   27CHL1    C5 1932   0.469   2.865  10.279 -0.0238  0.3267 -0.6246
   27CHL1    C6 1933   0.547   2.930  10.185 -1.2070  0.6937 -0.0026
   27CHL1    H6 1934   0.647   2.971  10.207 -0.4129 -0.4088 -1.3642
   27CHL1    C7 1935   0.499   2.983  10.051  0.1525  0.5411  0.2285
   27CHL1   H7A 1936   0.534   3.086  10.027  1.5837 -0.1710 -0.8208
   27CHL1   H7B 1937   0.540   2.911   9.977 -1.3234 -1.4806  1.3022
   27CHL1    C8 1938   0.347   2.973  10.036  0.6311 -0.7975  0.2137
   27CHL1    H8 1939   0.303   3.053  10.099  0.8122 -0.7964  0.3408
   27CHL1   C14 1940   0.300   3.006   9.897 -0.0658 -0.3415 -1.0069
   27CHL1   H14 1941   0.342   2.929   9.829  1.4500  0.6291 -1.2147
   27CHL1   C15 1942   0.341   3.143   9.848 -0.5731 -0.8062  0.0431
   27CHL1  H15A 1943   0.323   3.219   9.927  3.1406  1.3807 -0.9687
   27CHL1  H15B 1944   0.446   3.126   9.817 -1.0624 -2.1391 -0.9742
   27CHL1   C16 1945   0.249   3.166   9.732 -0.3147 -0.6701 -0.0687
   27CHL1  H16A 1946   0.207   3.268   9.745 -0.6209 -0.6284 -1.2324
   27CHL1  H16B 1947   0.306   3.158   9.637 -1.3222  0.8106 -0.8392
   27CHL1   C17 1948   0.141   3.055   9.733  0.8250  0.2759  0.1757
   27CHL1   H17 1949   0.173   2.971   9.668  0.5116  2.2090 -2.6583
   27CHL1   C13 1950   0.147   2.996   9.874 -0.2052 -0.2611 -0.6217
   27CHL1   C18 1951   0.060   3.102   9.957 -0.5038 -0.1323 -0.2108
   27CHL1  H18A 1952   0.087   3.090  10.064 -0.0596 -0.7968 -0.3891
   27CHL1  H18B 1953   0.087   3.204   9.923  1.5193 -0.7335 -0.5523
   27CHL1  H18C 1954  -0.048   3.081   9.946 -0.4681 -1.6347  1.8244
   27CHL1   C12 1955   0.111   2.850   9.897 -0.5576 -0.0735 -0.8071
   27CHL1  H12A 1956  -0.000   2.847   9.887 -0.6697  0.5407  0.1643
   27CHL1  H12B 1957   0.148   2.788   9.812  2.1784 -0.0748  0.2903
   27CHL1   C11 1958   0.145   2.805  10.041 -0.0026  0.3195 -0.1541
   27CHL1  H11A 1959   0.070   2.862  10.100 -0.8132 -0.8903  0.0147
   27CHL1  H11B 1960   0.127   2.697  10.058 -0.8498  0.6062  0.8969
   27CHL1    C9 1961   0.297   2.833  10.086  0.1411 -0.4750  0.1859
   27CHL1    H9 1962   0.362   2.763  10.030  0.5474 -0.8461  1.0920
   27CHL1   C10 1963   0.329   2.812  10.242  0.2925 -0.1580  0.6926
   27CHL1   C19 1964   0.215   2.879  10.327  0.0300 -0.4491 -0.1038
   27CHL1  H19A 1965   0.122   2.819  10.334  0.3806 -0.9090  0.6944
   27CHL1  H19B 1966   0.243   2.886  10.434 -0.9002 -0.6566  0.1550
   27CHL1  H19C 1967   0.197   2.986  10.303 -1.3052 -0.3499  1.2418
   27CHL1    C1 1968   0.341   2.658  10.265  0.1005  0.5024 -0.0133
   27CHL1   H1A 1969   0.241   2.611  10.257  0.4239 -0.4161  1.0895
   27CHL1   H1B 1970   0.416   2.613  10.196 -0.9352 -1.1297 -0.1221
   27CHL1    C2 1971   0.375   2.609  10.406 -0.4831 -0.1400  0.8168
   27CHL1   H2A 1972   0.381   2.499  10.395 -0.7443  0.0421 -1.9418
   27CHL1   H2B 1973   0.290   2.637  10.472 -0.5454  0.5454  0.4629
   27CHL1   C20 1974   0.015   3.106   9.668  0.7911  0.2818 -1.1844
   27CHL1   H20 1975  -0.021   3.189   9.732  3.4524  1.3145 -0.8835
   27CHL1   C21 1976  -0.095   3.003   9.664  0.0395  0.1802  0.4072
   27CHL1  H21A 1977  -0.063   2.906   9.620 -0.5285 -1.2369  2.8524
   27CHL1  H21B 1978  -0.183   3.050   9.616  1.0604  1.0620 -0.6395
   27CHL1  H21C 1979  -0.125   2.968   9.766  0.9297  1.3274  1.0762
   27CHL1   C22 1980   0.034   3.155   9.524 -0.3856  0.1968 -0.4469
   27CHL1  H22A 1981  -0.064   3.178   9.476 -0.1354  0.9170 -0.6366
   27CHL1  H22B 1982   0.086   3.253   9.512 -0.1164  0.7274  3.6569
   27CHL1   C23 1983   0.110   3.068   9.430  0.5908  0.0769  0.0231
   27CHL1  H23A 1984   0.214   3.048   9.466  0.2313 -2.0926 -0.0124
   27CHL1  H23B 1985   0.068   2.967   9.411 -1.8155  1.0532 -0.0867
   27CHL1   C24 1986   0.122   3.135   9.290  0.0407 -0.0894 -0.4769
   27CHL1  H24A 1987   0.171   3.053   9.233 -0.8383 -0.7378 -0.3149
   27CHL1  H24B 1988   0.027   3.145   9.232  1.1340  1.5032 -2.1117
   27CHL1   C25 1989   0.218   3.252   9.275 -0.3596  0.2432  0.2831
   27CHL1   H25 1990   0.181   3.343   9.327  0.8375  1.8192 -1.4779
   27CHL1   C26 1991   0.356   3.221   9.334 -0.2467 -0.2988 -0.7794
   27CHL1  H26A 1992   0.401   3.131   9.286 -1.5990 -0.0334 -2.6535
   27CHL1  H26B 1993   0.419   3.311   9.317 -0.1069  0.0048  1.0795
   27CHL1  H26C 1994   0.345   3.211   9.444  0.1313  0.2079 -0.6947
   27CHL1   C27 1995   0.250   3.291   9.134  0.7523  0.7398 -0.0021
   27CHL1  H27A 1996   0.157   3.313   9.077 -0.4815  1.0507  2.0042
   27CHL1  H27B 1997   0.317   3.380   9.126  1.4793  0.3203  1.1901
   27CHL1  H27C 1998   0.304   3.209   9.082 -1.3303  0.2834 -1.5993
   28CHL1    C3 1999   6.000   1.224  10.112  0.3259 -0.6976  0.1571
   28CHL1    H3 2000   6.090   1.241  10.049  0.4474 -1.7946  0.0187
   28CHL1    O3 2001   6.025   1.240  10.250  0.4092  0.4213  0.1797
   28CHL1   H3' 2002   5.944   1.267  10.293 -1.1910 -1.1116 -1.7267
   28CHL1    C4 2003   5.892   1.322  10.063 -0.6159  0.4746 -0.6423
   28CHL1   H4A 2004   5.797   1.313  10.119 -0.7457 -0.0560 -0.9418
   28CHL1   H4B 2005   5.932   1.424  10.080  0.5848  0.1967 -1.6676
   28CHL1    C5 2006   5.869   1.295   9.918 -0.1241  0.1318 -0.1024
   28CHL1    C6 2007   5.882   1.392   9.835 -0.1789  0.3581  0.1687
   28CHL1    H6 2008   5.914   1.491   9.868  0.7333  0.0583  0.2251
   28CHL1    C7 2009   5.868   1.374   9.687  0.5398  0.2833  0.1164
   28CHL1   H7A 2010   5.815   1.458   9.638 -0.5072 -0.3135  0.1922
   28CHL1   H7B 2011   5.972   1.369   9.648  0.8285 -3.6700  0.9519
   28CHL1    C8 2012   5.789   1.245   9.652 -0.5045 -0.0084  0.4387
   28CHL1    H8 2013   5.684   1.263   9.683 -1.2930 -0.7698 -1.6073
   28CHL1   C14 2014   5.789   1.214   9.504  0.2454 -0.2414 -0.2698
   28CHL1   H14 2015   5.897   1.192   9.491  0.2508 -0.0382 -0.5633
   28CHL1   C15 2016   5.769   1.329   9.404 -0.2741  0.4854 -0.2119
   28CHL1  H15A 2017   5.682   1.395   9.427  0.3949  1.3034 -0.0110
   28CHL1  H15B 2018   5.860   1.391   9.401 -0.4018  0.6547 -0.5892
   28CHL1   C16 2019   5.753   1.260   9.266  0.8622 -0.2267 -0.7740
   28CHL1  H16A 2020   5.654   1.289   9.225  1.3353  1.3702 -0.8585
   28CHL1  H16B 2021   5.830   1.279   9.188 -0.5790  3.3122 -1.5336
   28CHL1   C17 2022   5.731   1.108   9.303 -0.0413 -0.2371  0.7200
   28CHL1   H17 2023   5.837   1.078   9.291  0.1718  0.2686  1.2499
   28CHL1   C13 2024   5.712   1.097   9.458  0.3835  0.1104 -0.3453
   28CHL1   C18 2025   5.570   1.113   9.494  0.0757 -0.0820  0.3259
   28CHL1  H18A 2026   5.562   1.118   9.604 -0.9802 -0.5302  0.2877
   28CHL1  H18B 2027   5.520   1.204   9.456  0.9659  1.4310  2.5987
   28CHL1  H18C 2028   5.512   1.024   9.461 -1.7901  0.6128  1.5881
   28CHL1   C12 2029   5.775   0.967   9.519 -0.4004  0.5236  0.5778
   28CHL1  H12A 2030   5.713   0.878   9.498  1.8861 -0.9216 -0.4300
   28CHL1  H12B 2031   5.869   0.953   9.461 -1.0254 -1.4450 -0.0428
   28CHL1   C11 2032   5.794   0.980   9.670 -0.8186  0.4112  0.0082
   28CHL1  H11A 2033   5.700   0.940   9.715  0.4035 -2.9539 -0.1304
   28CHL1  H11B 2034   5.866   0.906   9.710 -1.4516  0.7592  1.9258
   28CHL1    C9 2035   5.847   1.122   9.730 -0.7448  0.5336  0.1570
   28CHL1    H9 2036   5.956   1.125   9.708 -0.4277  0.6840  1.6400
   28CHL1   C10 2037   5.834   1.145   9.878  0.3297 -0.4176 -0.2495
   28CHL1   C19 2038   5.689   1.126   9.926 -0.8196 -0.8245  1.1178
   28CHL1  H19A 2039   5.699   1.116  10.036  1.1932  0.7728  1.1259
   28CHL1  H19B 2040   5.631   1.220   9.916 -1.6439 -1.2866  1.4241
   28CHL1  H19C 2041   5.640   1.039   9.878  1.2311 -2.6544  2.1831
   28CHL1    C1 2042   5.926   1.041   9.948  0.1050 -0.8395  0.4920
   28CHL1   H1A 2043   5.879   0.941   9.936  0.5761 -1.0408  0.2913
   28CHL1   H1B 2044   6.015   1.035   9.883 -0.0123  0.1571  0.2238
   28CHL1    C2 2045   5.964   1.075  10.091 -0.5569  0.5038  0.4044
   28CHL1   H2A 2046   6.054   1.017  10.120  1.6069  2.0662 -2.6844
   28CHL1   H2B 2047   5.880   1.044  10.157 -1.1689 -0.9211 -0.9632
   28CHL1   C20 2048   5.664   1.030   9.194  0.3786  0.2518  0.1637
   28CHL1   H20 2049   5.557   1.058   9.206  0.5808  2.2637 -1.9591
   28CHL1   C21 2050   5.678   0.880   9.233  0.1971 -0.1303  0.3437
   28CHL1  H21A 2051   5.785   0.854   9.246  0.4007  0.4378 -0.1713
   28CHL1  H21B 2052   5.635   0.814   9.155 -1.1657  2.2869 -1.0742
   28CHL1  H21C 2053   5.609   0.849   9.314 -1.3536 -0.7070 -1.1307
   28CHL1   C22 2054   5.724   1.050   9.062 -0.1780  0.1034  0.6406
   28CHL1  H22A 2055   5.730   1.154   9.025 -1.0582 -0.0141  0.1189
   28CHL1  H22B 2056   5.827   1.009   9.072 -0.3770 -0.0956  2.1622
   28CHL1   C23 2057   5.664   0.970   8.947  0.3913 -0.4389  0.4741
   28CHL1  H23A 2058   5.658   0.861   8.971  2.0391 -0.9026 -1.0131
   28CHL1  H23B 2059   5.560   1.003   8.927  1.1986  3.2053  1.4597
   28CHL1   C24 2060   5.746   0.974   8.814  0.3207 -0.0471  1.0952
   28CHL1  H24A 2061   5.745   1.066   8.752  3.5060 -1.5982 -1.5847
   28CHL1  H24B 2062   5.856   0.973   8.825  0.8689  2.7098 -2.3366
   28CHL1   C25 2063   5.699   0.869   8.710  0.7980  0.1632  0.2624
   28CHL1   H25 2064   5.590   0.890   8.707  0.8752  0.5399 -2.4611
   28CHL1   C26 2065   5.755   0.895   8.571  0.0097 -0.4853  0.8619
   28CHL1  H26A 2066   5.725   0.999   8.547  1.7349 -0.1498 -0.0124
   28CHL1  H26B 2067   5.866   0.891   8.569  0.0314 -3.0107  2.4798
   28CHL1  H26C 2068   5.710   0.828   8.494 -1.5501  0.8346  0.5847
   28CHL1   C27 2069   5.728   0.725   8.743  0.5668 -0.6514 -0.3701
   28CHL1  H27A 2070   5.831   0.693   8.717  1.9718 -0.1962  3.8820
   28CHL1  H27B 2071   5.714   0.699   8.850  0.6115  0.8821  0.0233
   28CHL1  H27C 2072   5.654   0.669   8.681 -1.9904 -0.6791  2.4484
   29CHL1    C3 2073   3.437   2.370   6.790 -0.1746 -0.2606 -0.3316
   29CHL1    H3 2074   3.333   2.403   6.810  0.3811  1.4285 -0.1240
   29CHL1    O3 2075   3.434   2.303   6.661  0.1328 -0.1870  0.5190
   29CHL1   H3' 2076   3.355   2.249   6.659 -1.7534  2.3829  1.1328
   29CHL1    C4 2077   3.536   2.484   6.784 -0.1268 -0.0869  0.6541
   29CHL1   H4A 2078   3.629   2.434   6.748  0.5661  0.8247  1.1026
   29CHL1   H4B 2079   3.512   2.562   6.710 -1.9312 -2.4151 -1.3694
   29CHL1    C5 2080   3.545   2.549   6.922 -0.4675  0.3115  0.1298
   29CHL1    C6 2081   3.516   2.679   6.952  0.4534  0.2824  0.3579
   29CHL1    H6 2082   3.478   2.740   6.869  0.8333 -0.8205 -0.6494
   29CHL1    C7 2083   3.558   2.742   7.077  0.4715 -0.3439 -0.7450
   29CHL1   H7A 2084   3.612   2.833   7.042 -1.0159  1.1398  0.6411
   29CHL1   H7B 2085   3.462   2.769   7.126  1.0793  2.6573 -0.9851
   29CHL1    C8 2086   3.651   2.656   7.170 -0.4347 -0.0508  0.4301
   29CHL1    H8 2087   3.757   2.662   7.137 -0.2774  1.5186  1.1167
   29CHL1   C14 2088   3.641   2.709   7.312 -0.1511 -0.4753  0.7578
   29CHL1   H14 2089   3.536   2.701   7.347 -1.4902  1.1949 -2.4502
   29CHL1   C15 2090   3.671   2.854   7.331 -0.8856  0.0607 -0.4964
   29CHL1  H15A 2091   3.758   2.876   7.266 -0.5095 -0.4608 -0.1874
   29CHL1  H15B 2092   3.590   2.926   7.306 -0.7280  0.1620 -0.7178
   29CHL1   C16 2093   3.716   2.865   7.472  0.2094  0.3972 -0.8248
   29CHL1  H16A 2094   3.821   2.898   7.465  0.5716 -0.7918 -1.1211
   29CHL1  H16B 2095   3.650   2.936   7.528 -0.3344  0.8626 -2.0109
   29CHL1   C17 2096   3.709   2.721   7.534  0.6091 -0.6230 -0.6333
   29CHL1   H17 2097   3.603   2.717   7.568  0.6702  0.3934 -0.2938
   29CHL1   C13 2098   3.728   2.633   7.411  0.2852  0.6760 -0.3227
   29CHL1   C18 2099   3.882   2.628   7.372  0.6770 -0.2338  0.1605
   29CHL1  H18A 2100   3.928   2.724   7.340 -0.1497 -0.2993 -1.3323
   29CHL1  H18B 2101   3.943   2.576   7.449 -0.2133 -1.2343  0.2138
   29CHL1  H18C 2102   3.890   2.570   7.278  3.2300 -1.0110  0.7836
   29CHL1   C12 2103   3.669   2.493   7.423  0.1005  0.6464 -1.2632
   29CHL1  H12A 2104   3.718   2.426   7.497  0.9943 -0.2285 -2.6040
   29CHL1  H12B 2105   3.567   2.510   7.463 -0.3183 -3.1760 -0.2880
   29CHL1   C11 2106   3.660   2.423   7.283  0.0404  0.2694  0.5374
   29CHL1  H11A 2107   3.763   2.381   7.273 -0.2222 -0.2704  0.0952
   29CHL1  H11B 2108   3.591   2.337   7.290 -0.7201  0.8213 -0.0303
   29CHL1    C9 2109   3.602   2.518   7.175  0.5063  0.0895 -0.3815
   29CHL1    H9 2110   3.494   2.530   7.201  0.3911 -0.1111 -0.7582
   29CHL1   C10 2111   3.601   2.450   7.035 -0.6437  0.3281  0.1739
   29CHL1   C19 2112   3.747   2.397   7.004 -0.0419 -0.4626  0.5646
   29CHL1  H19A 2113   3.813   2.485   6.986  0.8546 -1.4633 -1.4254
   29CHL1  H19B 2114   3.784   2.322   7.077  0.0934 -0.7874  0.1638
   29CHL1  H19C 2115   3.757   2.335   6.912  0.4265 -0.2137  0.4416
   29CHL1    C1 2116   3.497   2.334   7.027 -0.0815 -0.0725  0.7146
   29CHL1   H1A 2117   3.534   2.253   7.094 -0.7493 -0.6972  0.3511
   29CHL1   H1B 2118   3.396   2.363   7.063  0.6156  2.5566  0.6897
   29CHL1    C2 2119   3.482   2.262   6.887  0.1001 -0.2913  0.2790
   29CHL1   H2A 2120   3.397   2.191   6.893 -1.0054  1.0202  0.5503
   29CHL1   H2B 2121   3.573   2.204   6.861  0.7560  0.1081  1.6108
   29CHL1   C20 2122   3.801   2.707   7.662 -0.2664 -0.9980 -0.1809
   29CHL1   H20 2123   3.901   2.736   7.622 -0.0834 -0.9393  0.3093
   29CHL1   C21 2124   3.813   2.567   7.714 -0.3030 -0.1321 -0.3133
   29CHL1  H21A 2125   3.853   2.496   7.638 -1.4261  1.2371 -2.2586
   29CHL1  H21B 2126   3.713   2.530   7.744 -0.5662 -0.0287 -1.0393
   29CHL1  H21C 2127   3.882   2.556   7.800  0.2124 -2.4812 -0.9586
   29CHL1   C22 2128   3.771   2.808   7.776  0.0735  0.1122  0.3103
   29CHL1  H22A 2129   3.859   2.810   7.842  0.7217 -0.5823 -0.5068
   29CHL1  H22B 2130   3.762   2.907   7.726  0.6123  1.7555  3.2676
   29CHL1   C23 2131   3.646   2.773   7.855 -0.0991  0.2223  0.0696
   29CHL1  H23A 2132   3.562   2.778   7.784 -1.2328 -0.1856  1.3479
   29CHL1  H23B 2133   3.656   2.671   7.897 -0.6398 -0.2906 -1.0176
   29CHL1   C24 2134   3.607   2.865   7.973 -0.0499  0.6081 -0.2317
   29CHL1  H24A 2135   3.688   2.900   8.040 -0.0082 -0.8726  0.5440
   29CHL1  H24B 2136   3.559   2.949   7.918 -2.5931 -1.3957 -1.2839
   29CHL1   C25 2137   3.501   2.803   8.065 -0.6862  0.3353  0.0098
   29CHL1   H25 2138   3.429   2.767   7.988  0.5541 -0.4946 -0.8150
   29CHL1   C26 2139   3.563   2.680   8.146 -0.0554 -0.7002  0.0078
   29CHL1  H26A 2140   3.635   2.713   8.224 -0.4188  0.0645  0.0275
   29CHL1  H26B 2141   3.484   2.616   8.191 -1.8396 -0.3495 -2.4580
   29CHL1  H26C 2142   3.621   2.607   8.086  0.3327  1.4894 -2.4678
   29CHL1   C27 2143   3.425   2.903   8.155 -0.0340 -0.3328  0.7036
   29CHL1  H27A 2144   3.500   2.950   8.222  1.3628 -1.3814 -0.0563
   29CHL1  H27B 2145   3.371   2.975   8.091  0.8864 -1.6812 -1.7369
   29CHL1  H27C 2146   3.350   2.857   8.222 -0.7056  1.2431  1.0753
   30CHL1    C3 2147   6.605   1.417   7.327  0.0454  0.5980 -0.7293
   30CHL1    H3 2148   6.514   1.390   7.384  1.1352  1.2444  1.4406
   30CHL1    O3 2149   6.581   1.381   7.190 -0.0276 -0.6311 -0.2020
   30CHL1   H3' 2150   6.537   1.460   7.156 -0.0570 -0.1959  0.8078
   30CHL1    C4 2151   6.630   1.570   7.347 -0.2139 -0.1151  0.0693
   30CHL1   H4A 2152   6.713   1.599   7.279  0.0030  1.4325  0.9322
   30CHL1   H4B 2153   6.543   1.631   7.316  1.3189  3.2513  1.7834
   30CHL1    C5 2154   6.670   1.607   7.488 -0.6154  0.2770 -0.0342
   30CHL1    C6 2155   6.601   1.700   7.558 -0.2751 -0.3262  0.3166
   30CHL1    H6 2156   6.526   1.765   7.512 -0.4522 -1.1402 -0.5766
   30CHL1    C7 2157   6.634   1.734   7.702 -0.3921 -0.8806  0.1501
   30CHL1   H7A 2158   6.639   1.845   7.711 -1.5996 -0.8637  0.7576
   30CHL1   H7B 2159   6.555   1.701   7.772  0.1735  2.0936  2.3952
   30CHL1    C8 2160   6.768   1.683   7.754  0.1854  0.0743 -0.4728
   30CHL1    H8 2161   6.855   1.742   7.716 -1.4624  2.2217 -1.1095
   30CHL1   C14 2162   6.774   1.691   7.907 -0.2625  1.0133 -0.3334
   30CHL1   H14 2163   6.687   1.638   7.950 -0.5365  0.7869 -1.1453
   30CHL1   C15 2164   6.783   1.827   7.973 -0.0646 -0.9251 -0.8652
   30CHL1  H15A 2165   6.857   1.893   7.923  1.3120 -1.4335  0.3971
   30CHL1  H15B 2166   6.684   1.876   7.980 -0.6368 -2.1866  0.4638
   30CHL1   C16 2167   6.829   1.797   8.111 -0.0039  0.6949 -0.1177
   30CHL1  H16A 2168   6.911   1.870   8.129  0.9149 -0.3447 -0.0266
   30CHL1  H16B 2169   6.748   1.814   8.186  0.1002 -1.4886  0.5653
   30CHL1   C17 2170   6.872   1.649   8.127 -0.1851 -0.4505 -0.5895
   30CHL1   H17 2171   6.778   1.602   8.161 -0.6213  1.4000  0.9211
   30CHL1   C13 2172   6.892   1.619   7.970  0.4546  0.3040 -0.4154
   30CHL1   C18 2173   7.029   1.667   7.920  0.4343  0.2960  1.0849
   30CHL1  H18A 2174   7.057   1.771   7.947 -0.2496  0.7527  0.0855
   30CHL1  H18B 2175   7.116   1.606   7.954  1.1898  0.6376 -0.1631
   30CHL1  H18C 2176   7.029   1.652   7.810 -0.0201 -2.1298  1.3646
   30CHL1   C12 2177   6.885   1.472   7.938 -0.7439 -0.1148  0.5951
   30CHL1  H12A 2178   6.983   1.431   7.970 -0.4195 -0.2263 -0.4803
   30CHL1  H12B 2179   6.804   1.413   7.985 -0.5368 -0.5650  0.3998
   30CHL1   C11 2180   6.877   1.447   7.788 -0.2334 -0.0269  0.9144
   30CHL1  H11A 2181   6.974   1.464   7.737 -1.0875  1.0278 -0.4292
   30CHL1  H11B 2182   6.861   1.337   7.778  0.1786 -0.0702  0.7256
   30CHL1    C9 2183   6.775   1.530   7.712 -0.0097 -0.5246  0.1588
   30CHL1    H9 2184   6.675   1.487   7.733 -0.7941  1.1248 -0.0865
   30CHL1   C10 2185   6.776   1.517   7.558  0.3352  0.3156 -0.3536
   30CHL1   C19 2186   6.913   1.555   7.499  0.0603 -0.7961 -0.7443
   30CHL1  H19A 2187   6.917   1.548   7.388  1.3588  1.3214 -0.8989
   30CHL1  H19B 2188   6.937   1.660   7.529  1.7465 -0.5578 -2.7110
   30CHL1  H19C 2189   6.985   1.477   7.529  0.6555 -0.4260 -1.1725
   30CHL1    C1 2190   6.744   1.366   7.524  0.0396 -0.5464 -0.1730
   30CHL1   H1A 2191   6.826   1.299   7.558 -0.3921 -1.9196 -1.7110
   30CHL1   H1B 2192   6.648   1.340   7.573  0.4361 -2.8388 -0.5122
   30CHL1    C2 2193   6.722   1.340   7.381  0.2042  0.0945  0.4781
   30CHL1   H2A 2194   6.711   1.229   7.375  1.0940  0.0692 -1.5688
   30CHL1   H2B 2195   6.811   1.374   7.324  1.2568 -1.3085  1.2160
   30CHL1   C20 2196   6.979   1.623   8.232  0.0806 -0.2120 -0.1369
   30CHL1   H20 2197   7.075   1.652   8.183 -0.2567 -1.0239 -1.2972
   30CHL1   C21 2198   6.980   1.476   8.275  0.3335 -0.0157  0.0923
   30CHL1  H21A 2199   7.070   1.433   8.323  0.8422  0.4828 -0.3898
   30CHL1  H21B 2200   6.984   1.413   8.183  0.2754 -0.0381  0.1056
   30CHL1  H21C 2201   6.886   1.448   8.326  0.8728 -0.7005  0.7176
   30CHL1   C22 2202   6.960   1.718   8.358  0.4296  0.5346 -0.0932
   30CHL1  H22A 2203   6.960   1.825   8.329  0.9321  0.3855 -0.6712
   30CHL1  H22B 2204   6.860   1.704   8.405  1.2380  0.0379  1.5579
   30CHL1   C23 2205   7.073   1.693   8.457 -0.2817  0.9309  0.3481
   30CHL1  H23A 2206   7.075   1.595   8.509 -1.6471  0.9551  0.4764
   30CHL1  H23B 2207   7.160   1.701   8.389 -0.3499  2.0169  0.3848
   30CHL1   C24 2208   7.070   1.807   8.562 -1.0669 -0.3281  0.7869
   30CHL1  H24A 2209   7.064   1.902   8.506  0.0535 -0.2426  0.8001
   30CHL1  H24B 2210   6.973   1.811   8.616 -2.1021 -2.4446 -0.7344
   30CHL1   C25 2211   7.190   1.791   8.656  0.0031  0.6645 -0.1247
   30CHL1   H25 2212   7.277   1.780   8.588 -0.5565  0.3666 -0.8024
   30CHL1   C26 2213   7.197   1.917   8.749 -0.2523 -0.1585 -0.0373
   30CHL1  H26A 2214   7.211   2.005   8.682  1.6990 -1.6073 -1.6312
   30CHL1  H26B 2215   7.103   1.926   8.807 -0.9519 -1.3075 -0.9654
   30CHL1  H26C 2216   7.284   1.897   8.815 -1.6745 -1.6817  1.4441
   30CHL1   C27 2217   7.176   1.671   8.757  0.0023 -1.1990  0.2172
   30CHL1  H27A 2218   7.272   1.645   8.808  0.0105 -0.7618  0.4344
   30CHL1  H27B 2219   7.092   1.689   8.827  2.6976 -3.8783  4.6278
   30CHL1  H27C 2220   7.164   1.575   8.703 -0.1518 -1.8006  1.3053
   31CHL1    C3 2221   4.717   2.697   6.912  0.2733 -0.2259  0.4535
   31CHL1    H3 2222   4.644   2.770   6.951  1.2545  1.0187  0.0494
   31CHL1    O3 2223   4.713   2.701   6.766  0.3924  0.1555 -0.5440
   31CHL1   H3' 2224   4.625   2.732   6.741  0.1611  0.2047  0.3056
   31CHL1    C4 2225   4.853   2.741   6.961  0.5588 -0.3804  0.1593
   31CHL1   H4A 2226   4.913   2.660   6.913  0.5379  0.5630 -1.5440
   31CHL1   H4B 2227   4.873   2.844   6.923 -2.6278  1.3980  2.7699
   31CHL1    C5 2228   4.867   2.739   7.109 -0.9057 -0.1435  0.2251
   31CHL1    C6 2229   4.901   2.848   7.175  0.5155 -0.1359  0.2309
   31CHL1    H6 2230   4.938   2.933   7.116  0.6965 -0.3054  0.0983
   31CHL1    C7 2231   4.922   2.850   7.325  0.2671  0.3881  0.4270
   31CHL1   H7A 2232   5.022   2.895   7.345 -1.3008  4.1779  0.6180
   31CHL1   H7B 2233   4.855   2.921   7.377  1.3815  0.7894  1.3643
   31CHL1    C8 2234   4.913   2.714   7.396 -0.6996 -0.0390  0.7477
   31CHL1    H8 2235   5.013   2.669   7.379 -0.4670  1.0674 -1.0206
   31CHL1   C14 2236   4.876   2.739   7.546 -0.2949  0.5584  0.5724
   31CHL1   H14 2237   4.770   2.773   7.540 -1.0396 -1.7719 -0.9510
   31CHL1   C15 2238   4.957   2.837   7.638  0.1753  0.2743  0.0986
   31CHL1  H15A 2239   5.064   2.826   7.612  0.1376  1.6475 -0.7473
   31CHL1  H15B 2240   4.930   2.941   7.609 -0.2329  0.0213 -0.4476
   31CHL1   C16 2241   4.924   2.792   7.781 -0.2056 -0.3206  0.5554
   31CHL1  H16A 2242   5.014   2.747   7.827  1.0843  1.0540 -0.5297
   31CHL1  H16B 2243   4.872   2.871   7.841 -0.4101 -0.2234  0.2521
   31CHL1   C17 2244   4.829   2.666   7.758 -0.4997 -0.4039 -0.4915
   31CHL1   H17 2245   4.730   2.710   7.735  0.6880  1.3290 -2.6038
   31CHL1   C13 2246   4.866   2.604   7.620  0.0393 -0.1261 -0.2870
   31CHL1   C18 2247   5.011   2.538   7.627 -0.4290 -0.4183 -0.3071
   31CHL1  H18A 2248   4.998   2.447   7.689 -0.7101  0.4095  0.8741
   31CHL1  H18B 2249   5.046   2.508   7.526 -1.1582 -2.3159 -0.0330
   31CHL1  H18C 2250   5.081   2.595   7.691 -0.1952 -1.1579  0.1050
   31CHL1   C12 2251   4.761   2.508   7.553  0.0982  0.0668  0.0643
   31CHL1  H12A 2252   4.766   2.405   7.594  0.0607 -0.0219 -0.1542
   31CHL1  H12B 2253   4.658   2.548   7.558 -0.1587 -0.5644 -0.0868
   31CHL1   C11 2254   4.798   2.491   7.405  0.0438  0.6345 -0.2781
   31CHL1  H11A 2255   4.895   2.438   7.402 -0.6897 -0.7342 -0.7650
   31CHL1  H11B 2256   4.735   2.417   7.350  1.4640 -0.6301 -0.2731
   31CHL1    C9 2257   4.817   2.621   7.332  0.4894 -0.0406 -0.0462
   31CHL1    H9 2258   4.718   2.669   7.341  0.2860 -0.4380 -0.1184
   31CHL1   C10 2259   4.832   2.605   7.174  0.3967 -0.5855 -0.6782
   31CHL1   C19 2260   4.954   2.512   7.159 -0.4035 -0.5306 -0.4436
   31CHL1  H19A 2261   4.974   2.499   7.050  1.3338 -1.8875 -0.0090
   31CHL1  H19B 2262   5.040   2.564   7.206 -1.3500  0.3185  0.3833
   31CHL1  H19C 2263   4.942   2.412   7.207 -0.3674 -0.8300 -1.0390
   31CHL1    C1 2264   4.705   2.538   7.108  0.1598  0.3562 -0.0372
   31CHL1   H1A 2265   4.698   2.432   7.140 -1.6661  0.6494  0.6737
   31CHL1   H1B 2266   4.617   2.590   7.152 -1.7004 -0.7968 -2.1248
   31CHL1    C2 2267   4.693   2.556   6.954 -0.0659  0.7499  0.8090
   31CHL1   H2A 2268   4.592   2.524   6.919  0.2015  1.3096 -0.5250
   31CHL1   H2B 2269   4.765   2.485   6.908 -1.0225  0.2312  0.0850
   31CHL1   C20 2270   4.827   2.574   7.879 -0.0292 -0.1524 -0.7340
   31CHL1   H20 2271   4.919   2.513   7.868 -0.3361 -0.3062 -3.2002
   31CHL1   C21 2272   4.702   2.482   7.867  0.2668 -0.1502  0.6728
   31CHL1  H21A 2273   4.710   2.426   7.772  3.3641  2.5394 -0.8622
   31CHL1  H21B 2274   4.604   2.531   7.855  0.5941 -0.2256 -3.4344
   31CHL1  H21C 2275   4.692   2.420   7.959  0.7160 -0.6153  0.4155
   31CHL1   C22 2276   4.813   2.641   8.016 -0.5671 -0.6181  0.0198
   31CHL1  H22A 2277   4.874   2.734   8.020 -0.2789 -0.7576 -0.8582
   31CHL1  H22B 2278   4.711   2.680   8.036 -0.4689 -1.2221  1.8693
   31CHL1   C23 2279   4.851   2.553   8.143 -0.0686 -0.3500 -0.3016
   31CHL1  H23A 2280   4.792   2.459   8.135  3.1341 -2.6244  0.4796
   31CHL1  H23B 2281   4.960   2.536   8.130  0.0189 -1.4896  1.5496
   31CHL1   C24 2282   4.823   2.622   8.282 -0.1161  0.4758  0.0124
   31CHL1  H24A 2283   4.833   2.732   8.272  1.7328  0.2730 -0.8029
   31CHL1  H24B 2284   4.719   2.612   8.319  0.0844  0.2041  0.5156
   31CHL1   C25 2285   4.907   2.574   8.401 -1.0891  0.0847  0.8281
   31CHL1   H25 2286   4.906   2.463   8.402 -1.4868  0.0531 -0.8781
   31CHL1   C26 2287   5.059   2.621   8.391 -0.3584 -0.4923 -1.0307
   31CHL1  H26A 2288   5.105   2.577   8.300 -1.4957  0.7181 -2.2304
   31CHL1  H26B 2289   5.081   2.730   8.393  0.9915 -0.7227  2.2023
   31CHL1  H26C 2290   5.115   2.565   8.469 -0.7291  0.5564  0.0308
   31CHL1   C27 2291   4.845   2.629   8.533 -0.1570 -0.1531  0.2848
   31CHL1  H27A 2292   4.857   2.738   8.546  0.9342 -0.2874  0.5621
   31CHL1  H27B 2293   4.886   2.580   8.625  1.5029 -0.8977 -0.7913
   31CHL1  H27C 2294   4.736   2.609   8.527 -0.3849  0.8214  0.9827
   32CHL1    C3 2295   6.758   1.718   6.964 -0.2092  0.1134 -0.0441
   32CHL1    H3 2296   6.711   1.646   7.035  1.0963  2.1230  3.0663
   32CHL1    O3 2297   6.729   1.682   6.830  0.0300 -0.7698  0.4343
   32CHL1   H3' 2298   6.634   1.691   6.817  0.0596  0.9581  1.1525
   32CHL1    C4 2299   6.707   1.861   6.986  0.6078  0.2384 -0.0724
   32CHL1   H4A 2300   6.738   1.936   6.910 -2.2779  1.0701 -0.5434
   32CHL1   H4B 2301   6.598   1.857   6.970  0.6953  1.9675 -1.4332
   32CHL1    C5 2302   6.740   1.921   7.128  0.1199  0.0919  0.7641
   32CHL1    C6 2303   6.641   1.959   7.207  0.6066  0.1584 -0.3484
   32CHL1    H6 2304   6.538   1.949   7.170  0.5926  1.0600 -0.5969
   32CHL1    C7 2305   6.660   2.010   7.343 -0.0631 -0.6089  0.1798
   32CHL1   H7A 2306   6.604   2.106   7.347 -1.6778 -1.4999 -0.1215
   32CHL1   H7B 2307   6.619   1.945   7.423  0.0976  0.3509  1.0547
   32CHL1    C8 2308   6.816   2.032   7.375 -0.1063 -0.4097 -0.8941
   32CHL1    H8 2309   6.842   2.127   7.324 -1.8960  0.0740 -0.9663
   32CHL1   C14 2310   6.839   2.048   7.528 -0.1765  0.0349  0.2592
   32CHL1   H14 2311   6.820   1.946   7.569  3.3946  0.1844  2.7372
   32CHL1   C15 2312   6.764   2.156   7.609  0.2858 -0.4243  0.0405
   32CHL1  H15A 2313   6.746   2.244   7.544  4.1205  0.4805 -0.0561
   32CHL1  H15B 2314   6.669   2.110   7.645  2.4078 -3.0768  2.7477
   32CHL1   C16 2315   6.848   2.184   7.728 -0.1051 -0.2174  0.3119
   32CHL1  H16A 2316   6.878   2.291   7.721 -0.4712 -0.1782 -0.8089
   32CHL1  H16B 2317   6.781   2.174   7.817 -0.3917  1.8199  0.3719
   32CHL1   C17 2318   6.972   2.092   7.722  0.8551 -0.5643  0.1978
   32CHL1   H17 2319   6.934   1.994   7.756  0.7993 -1.0188 -1.0975
   32CHL1   C13 2320   6.986   2.072   7.569  0.5961 -0.0237 -0.0819
   32CHL1   C18 2321   7.049   2.202   7.503  0.2912 -0.0963 -0.0237
   32CHL1  H18A 2322   7.148   2.208   7.553  1.2226 -1.8454 -1.5410
   32CHL1  H18B 2323   7.047   2.198   7.392 -2.0640 -0.2540 -0.0207
   32CHL1  H18C 2324   6.986   2.285   7.540 -1.6013 -1.8381  0.8303
   32CHL1   C12 2325   7.067   1.948   7.514  0.0139 -0.0730  0.0581
   32CHL1  H12A 2326   7.178   1.959   7.519  0.2119 -1.8339  0.2408
   32CHL1  H12B 2327   7.031   1.857   7.567 -1.8927  0.5641 -0.0822
   32CHL1   C11 2328   7.046   1.924   7.367 -0.6248 -0.5466 -0.0373
   32CHL1  H11A 2329   7.112   1.999   7.319 -0.1832 -0.4192  0.7486
   32CHL1  H11B 2330   7.093   1.829   7.334  2.1039  0.7486 -0.1913
   32CHL1    C9 2331   6.897   1.922   7.320 -0.0220 -0.2490  0.1465
   32CHL1    H9 2332   6.858   1.830   7.369 -4.1657  1.6369  0.8753
   32CHL1   C10 2333   6.885   1.909   7.171  0.1443 -0.0343 -0.5372
   32CHL1   C19 2334   6.955   2.023   7.096  0.0818 -1.0191  0.5752
   32CHL1  H19A 2335   6.949   2.018   6.986 -2.1322 -0.2527  0.6225
   32CHL1  H19B 2336   6.913   2.122   7.125 -0.6296 -0.5349 -1.8853
   32CHL1  H19C 2337   7.063   2.018   7.123  0.4596  2.2468  0.1295
   32CHL1    C1 2338   6.950   1.775   7.126 -0.3535 -0.2777 -0.2842
   32CHL1   H1A 2339   7.061   1.781   7.131 -0.4694  0.7119  2.7243
   32CHL1   H1B 2340   6.919   1.695   7.197  0.8119  0.5787  1.2449
   32CHL1    C2 2341   6.910   1.733   6.983 -0.0713  0.4085  0.1599
   32CHL1   H2A 2342   6.970   1.643   6.956  0.0359  0.9112 -1.3414
   32CHL1   H2B 2343   6.949   1.811   6.915 -2.1048  3.7329  2.5413
   32CHL1   C20 2344   7.087   2.130   7.819  0.5688 -0.0895  0.5803
   32CHL1   H20 2345   7.109   2.237   7.797 -0.1548  0.1990  1.2029
   32CHL1   C21 2346   7.218   2.055   7.784 -0.4391  0.6307 -1.0331
   32CHL1  H21A 2347   7.233   2.055   7.674 -0.4603 -0.8946 -1.0613
   32CHL1  H21B 2348   7.210   1.954   7.830  0.8619  0.6524 -0.7201
   32CHL1  H21C 2349   7.310   2.100   7.826 -0.6669 -0.2924  0.5535
   32CHL1   C22 2350   7.041   2.131   7.967  0.1450  0.4880 -0.4017
   32CHL1  H22A 2351   6.946   2.186   7.981  1.4514  2.2956  2.0927
   32CHL1  H22B 2352   7.025   2.026   7.999  1.7806  0.3130 -0.0400
   32CHL1   C23 2353   7.143   2.203   8.063 -0.0650  0.0236  0.4748
   32CHL1  H23A 2354   7.241   2.151   8.053  0.3224  0.6183  1.1134
   32CHL1  H23B 2355   7.152   2.301   8.012 -2.9327 -0.2092 -0.6772
   32CHL1   C24 2356   7.108   2.191   8.206 -0.3584  0.0920  0.0265
   32CHL1  H24A 2357   7.032   2.268   8.229  1.8923  2.3637  0.2475
   32CHL1  H24B 2358   7.077   2.085   8.218 -0.0224  0.0580  0.6030
   32CHL1   C25 2359   7.229   2.222   8.299 -0.3208 -0.1237 -0.1730
   32CHL1   H25 2360   7.320   2.167   8.268 -0.8985 -1.6481  0.7252
   32CHL1   C26 2361   7.267   2.370   8.300 -0.1597  0.4438 -0.4245
   32CHL1  H26A 2362   7.302   2.394   8.197  0.3014 -0.9517 -0.6164
   32CHL1  H26B 2363   7.182   2.436   8.325  0.9093  1.6278  0.2165
   32CHL1  H26C 2364   7.340   2.386   8.382 -2.0195  0.1724  1.3497
   32CHL1   C27 2365   7.204   2.189   8.445  0.0741 -1.5479  0.2660
   32CHL1  H27A 2366   7.180   2.081   8.459  1.1593 -1.6902  1.1837
   32CHL1  H27B 2367   7.304   2.182   8.492  0.8616 -1.4862 -1.3688
   32CHL1  H27C 2368   7.139   2.259   8.502  2.8214  0.4834  1.0691
   33CHL1    C3 2369   0.600   1.810   6.806 -0.3422 -0.1701 -0.0237
   33CHL1    H3 2370   0.570   1.917   6.809 -1.3968 -0.4522  3.2283
   33CHL1    O3 2371   0.543   1.759   6.693 -0.0494  0.2674  0.2980
   33CHL1   H3' 2372   0.591   1.676   6.689  0.8020  0.2991  4.7885
   33CHL1    C4 2373   0.749   1.799   6.796 -0.1471 -0.1955 -0.0085
   33CHL1   H4A 2374   0.776   1.692   6.784 -0.6171 -0.2737 -0.3742
   33CHL1   H4B 2375   0.777   1.850   6.701 -0.9788  0.8632  0.2947
   33CHL1    C5 2376   0.829   1.851   6.917  0.0130 -0.5472 -0.8133
   33CHL1    C6 2377   0.928   1.944   6.917 -0.2479  0.1651 -0.2596
   33CHL1    H6 2378   0.967   1.969   6.817 -1.0722 -1.0634 -0.9151
   33CHL1    C7 2379   1.000   1.998   7.034 -0.2763  0.2391 -0.8259
   33CHL1   H7A 2380   1.110   2.010   7.023 -0.1177  1.6834  1.5753
   33CHL1   H7B 2381   0.962   2.102   7.047 -0.0042  0.1988  0.5085
   33CHL1    C8 2382   0.964   1.921   7.167  0.2500  0.4021  0.5328
   33CHL1    H8 2383   1.033   1.834   7.164  2.1199  1.7797 -3.7961
   33CHL1   C14 2384   0.997   2.021   7.286 -0.1952 -0.0376 -0.1518
   33CHL1   H14 2385   0.919   2.100   7.276  1.8250  2.0497 -0.2397
   33CHL1   C15 2386   1.127   2.105   7.296  0.2774  0.5140  0.0057
   33CHL1  H15A 2387   1.211   2.044   7.257  0.1254 -0.0615  0.5576
   33CHL1  H15B 2388   1.107   2.185   7.221  0.9278 -2.1830 -3.2586
   33CHL1   C16 2389   1.152   2.129   7.442 -0.5498  0.0494 -0.1381
   33CHL1  H16A 2390   1.238   2.068   7.476 -0.2476  0.5994  0.1085
   33CHL1  H16B 2391   1.172   2.236   7.464 -0.6671  0.0627 -0.0911
   33CHL1   C17 2392   1.021   2.082   7.518 -0.3304  0.1710 -0.5774
   33CHL1   H17 2393   0.945   2.162   7.501  0.4695  1.1133  0.1624
   33CHL1   C13 2394   0.971   1.965   7.426  0.2100  0.0711  0.3068
   33CHL1   C18 2395   1.061   1.830   7.449  0.0353 -0.4837  0.4136
   33CHL1  H18A 2396   1.049   1.761   7.362 -0.4917  1.0289 -0.7558
   33CHL1  H18B 2397   1.168   1.860   7.443 -0.8697  3.0791 -0.0223
   33CHL1  H18C 2398   1.033   1.768   7.537 -1.7504 -1.5281 -0.8172
   33CHL1   C12 2399   0.822   1.933   7.434  0.9619  0.0156  0.2451
   33CHL1  H12A 2400   0.801   1.878   7.528 -1.2511  0.6282  0.1734
   33CHL1  H12B 2401   0.763   2.027   7.422 -2.5281 -2.1079 -0.7607
   33CHL1   C11 2402   0.773   1.835   7.323  0.4493  0.3910 -0.3590
   33CHL1  H11A 2403   0.818   1.734   7.338  1.6464  0.9878  0.1660
   33CHL1  H11B 2404   0.662   1.830   7.331  0.4352  2.6384  2.1464
   33CHL1    C9 2405   0.813   1.884   7.175  0.1573 -0.5794 -0.2387
   33CHL1    H9 2406   0.756   1.979   7.162  1.1115  0.1238  0.5807
   33CHL1   C10 2407   0.766   1.803   7.053  0.3629  0.4256  1.1497
   33CHL1   C19 2408   0.806   1.651   7.069 -0.9057  0.0872  0.0217
   33CHL1  H19A 2409   0.756   1.598   7.153 -0.4536  0.1947  0.3638
   33CHL1  H19B 2410   0.776   1.596   6.977 -0.1311  1.2290 -0.9499
   33CHL1  H19C 2411   0.914   1.639   7.091 -0.9907  0.9809  1.0351
   33CHL1    C1 2412   0.612   1.809   7.051 -0.2272  0.4595  0.3800
   33CHL1   H1A 2413   0.565   1.764   7.142  0.8002  1.5958  1.5246
   33CHL1   H1B 2414   0.584   1.916   7.053  0.1909  0.6199 -1.2761
   33CHL1    C2 2415   0.548   1.742   6.928  0.8897 -0.7153  0.1343
   33CHL1   H2A 2416   0.440   1.765   6.935  1.4682  3.0110 -0.8922
   33CHL1   H2B 2417   0.561   1.632   6.935 -0.0652 -0.8366  0.0589
   33CHL1   C20 2418   1.031   2.046   7.668  0.8515 -0.1215 -0.5179
   33CHL1   H20 2419   0.943   1.981   7.692  1.5659 -0.3071  1.9120
   33CHL1   C21 2420   1.014   2.180   7.741  0.6734 -1.0219 -0.9683
   33CHL1  H21A 2421   1.004   2.173   7.852 -0.1844  1.4812 -0.8055
   33CHL1  H21B 2422   0.921   2.229   7.705  1.6386  2.4346  0.7831
   33CHL1  H21C 2423   1.094   2.254   7.721 -0.0077  0.6281  1.7980
   33CHL1   C22 2424   1.156   1.978   7.727 -0.0171  0.4206  0.1314
   33CHL1  H22A 2425   1.141   1.873   7.693  0.0210  0.1042  1.0576
   33CHL1  H22B 2426   1.251   2.015   7.682 -0.4623 -0.2950 -1.4727
   33CHL1   C23 2427   1.148   1.956   7.882  0.3306  0.2673 -0.7441
   33CHL1  H23A 2428   1.197   2.042   7.933  0.7192  0.4173 -1.3553
   33CHL1  H23B 2429   1.043   1.944   7.913 -0.1181  0.5217 -2.0885
   33CHL1   C24 2430   1.216   1.824   7.936  0.0426  0.3344  0.1567
   33CHL1  H24A 2431   1.149   1.742   7.902 -0.4696  1.1880 -0.9311
   33CHL1  H24B 2432   1.314   1.810   7.886  1.6901  0.3084  3.1396
   33CHL1   C25 2433   1.240   1.803   8.089 -0.5567  0.0288 -0.4369
   33CHL1   H25 2434   1.260   1.696   8.112  1.1679  0.4817  0.3609
   33CHL1   C26 2435   1.374   1.879   8.126 -0.7258 -0.4262  0.2740
   33CHL1  H26A 2436   1.402   1.871   8.233  0.4097  1.3755  0.1488
   33CHL1  H26B 2437   1.453   1.832   8.063 -0.9366  1.2562 -1.3399
   33CHL1  H26C 2438   1.368   1.986   8.096 -0.4037 -0.8614 -1.4841
   33CHL1   C27 2439   1.120   1.848   8.178 -0.3293  0.2401 -0.1783
   33CHL1  H27A 2440   1.152   1.849   8.284  1.8199  0.0420 -0.7655
   33CHL1  H27B 2441   1.081   1.943   8.136 -0.1431 -0.0039 -0.9211
   33CHL1  H27C 2442   1.047   1.765   8.167 -1.0858  1.2093 -3.6328
   34CHL1    C3 2443   0.436   0.556   7.095  0.0330 -0.6528  0.1715
   34CHL1    H3 2444   0.355   0.625   7.127  0.1253 -0.0296 -0.8882
   34CHL1    O3 2445   0.393   0.511   6.970  0.1982  0.5079  0.1690
   34CHL1   H3' 2446   0.463   0.462   6.926 -2.1215 -0.8716 -2.3347
   34CHL1    C4 2447   0.568   0.628   7.070 -0.1268 -0.8459 -0.3191
   34CHL1   H4A 2448   0.643   0.552   7.039 -1.1407 -2.2403  0.4681
   34CHL1   H4B 2449   0.555   0.707   6.994  0.2097 -0.0401  0.4443
   34CHL1    C5 2450   0.613   0.688   7.205 -0.0038  0.6053  0.7314
   34CHL1    C6 2451   0.635   0.817   7.218 -1.1147 -0.0059 -0.3563
   34CHL1    H6 2452   0.615   0.878   7.129 -0.1604  0.2038 -0.4465
   34CHL1    C7 2453   0.679   0.894   7.346 -0.4895  0.5589 -0.1959
   34CHL1   H7A 2454   0.761   0.966   7.325 -0.7907  1.4487  1.4663
   34CHL1   H7B 2455   0.593   0.956   7.380 -0.8014  1.9989 -3.2648
   34CHL1    C8 2456   0.731   0.784   7.450 -0.1199 -0.3056 -0.0184
   34CHL1    H8 2457   0.839   0.762   7.438  0.1005 -0.7900  2.3981
   34CHL1   C14 2458   0.721   0.846   7.587  1.2168  0.5324  0.0767
   34CHL1   H14 2459   0.613   0.871   7.594  0.8802 -0.0682 -2.1397
   34CHL1   C15 2460   0.814   0.973   7.611  0.2058 -0.2016 -0.8731
   34CHL1  H15A 2461   0.916   0.963   7.567  0.1388 -0.6901 -0.9201
   34CHL1  H15B 2462   0.763   1.067   7.580 -1.8615 -0.7373  0.6884
   34CHL1   C16 2463   0.827   0.981   7.764 -0.6636 -0.0375 -0.0370
   34CHL1  H16A 2464   0.930   0.980   7.804  0.1226  2.3645 -1.7549
   34CHL1  H16B 2465   0.776   1.074   7.799  1.4715  1.3752 -0.4855
   34CHL1   C17 2466   0.762   0.850   7.824  0.6590 -0.1135  0.2087
   34CHL1   H17 2467   0.657   0.864   7.858  0.1888 -0.0329 -1.1808
   34CHL1   C13 2468   0.762   0.756   7.704  0.0648 -0.4936  0.3332
   34CHL1   C18 2469   0.908   0.710   7.692 -0.5083  0.6893  0.2073
   34CHL1  H18A 2470   0.927   0.647   7.781  1.5081 -2.5473 -2.2459
   34CHL1  H18B 2471   0.923   0.654   7.597 -1.2365  2.7202 -1.1722
   34CHL1  H18C 2472   0.978   0.795   7.682 -0.4077  0.4769 -1.1244
   34CHL1   C12 2473   0.664   0.637   7.703 -0.1132  0.4364 -0.4733
   34CHL1  H12A 2474   0.687   0.562   7.782 -2.6808  0.4972  0.4383
   34CHL1  H12B 2475   0.558   0.661   7.725  0.0157  0.3973  0.2372
   34CHL1   C11 2476   0.667   0.561   7.569 -0.8148  0.4062 -0.0474
   34CHL1  H11A 2477   0.757   0.496   7.567  0.6067  2.2345  0.8059
   34CHL1  H11B 2478   0.582   0.490   7.574  0.5250 -1.2711 -0.0124
   34CHL1    C9 2479   0.641   0.661   7.447  0.4883 -0.1670  0.3923
   34CHL1    H9 2480   0.539   0.699   7.468  0.3004  0.2662 -1.2307
   34CHL1   C10 2481   0.626   0.588   7.316 -0.2216  0.6906  0.4619
   34CHL1   C19 2482   0.755   0.505   7.295  0.4887  1.1323 -1.2039
   34CHL1  H19A 2483   0.760   0.431   7.378 -2.5771  0.3731 -1.5638
   34CHL1  H19B 2484   0.750   0.439   7.206  0.5681 -0.1412 -0.2968
   34CHL1  H19C 2485   0.852   0.558   7.291  1.8332 -0.4426  3.4212
   34CHL1    C1 2486   0.500   0.502   7.325  0.2832  0.4590  0.9745
   34CHL1   H1A 2487   0.513   0.416   7.394  1.7586 -0.7376 -0.6932
   34CHL1   H1B 2488   0.421   0.569   7.364  1.2135  0.9527  2.0671
   34CHL1    C2 2489   0.451   0.445   7.195  0.3551  0.0202  0.0939
   34CHL1   H2A 2490   0.367   0.373   7.203  0.8640 -0.8608 -1.7892
   34CHL1   H2B 2491   0.530   0.381   7.150 -0.3307 -0.5386 -0.3461
   34CHL1   C20 2492   0.812   0.805   7.955  0.1688 -0.5225 -0.1574
   34CHL1   H20 2493   0.923   0.808   7.954  0.1742 -0.5611  0.2400
   34CHL1   C21 2494   0.767   0.664   8.015  0.7234 -0.6378  0.5501
   34CHL1  H21A 2495   0.793   0.583   7.944  0.0730  2.2825 -3.3622
   34CHL1  H21B 2496   0.658   0.682   8.030  0.8990  0.0558  1.0497
   34CHL1  H21C 2497   0.819   0.656   8.113  2.6880 -2.7528 -0.5790
   34CHL1   C22 2498   0.789   0.919   8.064 -1.1588 -0.1927  0.5530
   34CHL1  H22A 2499   0.803   1.020   8.018 -0.0296  0.2222  1.7658
   34CHL1  H22B 2500   0.689   0.908   8.112 -0.3308 -3.0384  1.8197
   34CHL1   C23 2501   0.893   0.913   8.179 -0.0183  0.4456  0.2047
   34CHL1  H23A 2502   0.886   0.815   8.229 -0.3854 -1.0005 -2.4963
   34CHL1  H23B 2503   1.000   0.912   8.151  0.3873 -0.7150  1.6803
   34CHL1   C24 2504   0.860   1.025   8.285  0.1538  0.1607  0.1738
   34CHL1  H24A 2505   0.856   1.125   8.236 -0.1050  1.2061  2.2439
   34CHL1  H24B 2506   0.751   1.009   8.300  0.0843  1.0963  0.7370
   34CHL1   C25 2507   0.942   1.028   8.413 -0.2312 -0.5581  0.5676
   34CHL1   H25 2508   0.915   0.933   8.463  1.8310 -2.0525 -0.9613
   34CHL1   C26 2509   1.094   1.035   8.398  0.2150  0.8800 -0.6692
   34CHL1  H26A 2510   1.135   1.015   8.499  0.1532 -0.7921 -0.9410
   34CHL1  H26B 2511   1.133   0.950   8.337 -0.2153  0.7086 -0.7120
   34CHL1  H26C 2512   1.133   1.126   8.347  1.9900 -0.7037 -2.2944
   34CHL1   C27 2513   0.902   1.145   8.513 -0.0825  0.8345  0.2383
   34CHL1  H27A 2514   0.950   1.241   8.486  0.9132 -0.1443 -1.6220
   34CHL1  H27B 2515   0.791   1.155   8.505 -0.2329 -0.0796  1.0105
   34CHL1  H27C 2516   0.927   1.129   8.620  2.9773  0.2797 -0.4920
   35CHL1    C3 2517   4.304   1.595   7.205  0.0763  0.0360 -0.3789
   35CHL1    H3 2518   4.394   1.530   7.198 -0.1384 -0.1039 -3.1480
   35CHL1    O3 2519   4.253   1.632   7.078 -0.4583  0.2086  0.1736
   35CHL1   H3' 2520   4.331   1.622   7.023 -0.0659  1.5434  0.4373
   35CHL1    C4 2521   4.191   1.527   7.281  0.5920 -0.2404 -0.4930
   35CHL1   H4A 2522   4.111   1.604   7.275  0.9689  0.1971 -0.0177
   35CHL1   H4B 2523   4.159   1.438   7.224  0.0495  1.3171 -2.7401
   35CHL1    C5 2524   4.220   1.500   7.432 -0.2667  0.5086  0.6481
   35CHL1    C6 2525   4.193   1.378   7.485  0.0637 -0.4095 -0.6528
   35CHL1    H6 2526   4.151   1.295   7.426  0.1684 -1.0124  0.0981
   35CHL1    C7 2527   4.221   1.346   7.637  0.5848 -0.6608  0.0064
   35CHL1   H7A 2528   4.133   1.299   7.686  1.0261  0.2528  1.7562
   35CHL1   H7B 2529   4.300   1.268   7.641 -0.9107 -2.3271 -1.2594
   35CHL1    C8 2530   4.246   1.471   7.726  0.2358 -0.6048 -0.0820
   35CHL1    H8 2531   4.149   1.523   7.744  0.1920 -0.3452 -1.0086
   35CHL1   C14 2532   4.313   1.432   7.857 -0.1338 -0.2453  0.6218
   35CHL1   H14 2533   4.411   1.397   7.817 -1.2208  0.5367 -3.0959
   35CHL1   C15 2534   4.247   1.328   7.953 -0.2699 -0.2420 -0.0420
   35CHL1  H15A 2535   4.141   1.358   7.964 -0.0412  0.2465  0.9403
   35CHL1  H15B 2536   4.251   1.219   7.934  1.0765  0.0428 -1.6680
   35CHL1   C16 2537   4.308   1.352   8.095 -0.3436 -0.0545  0.1316
   35CHL1  H16A 2538   4.220   1.356   8.162 -0.1932 -2.0889  0.5397
   35CHL1  H16B 2539   4.367   1.261   8.122  1.2703  0.6610 -0.8818
   35CHL1   C17 2540   4.398   1.483   8.080  0.1430 -0.0758  0.0522
   35CHL1   H17 2541   4.495   1.436   8.050 -1.7099 -3.4286 -1.2263
   35CHL1   C13 2542   4.343   1.553   7.947  0.0035 -0.3376 -0.2456
   35CHL1   C18 2543   4.210   1.630   7.984 -0.1852 -0.2160 -0.2079
   35CHL1  H18A 2544   4.142   1.558   8.035 -0.1691 -1.1037 -1.3961
   35CHL1  H18B 2545   4.241   1.713   8.050  0.7626 -1.3699  0.8441
   35CHL1  H18C 2546   4.150   1.673   7.901 -0.9985  0.5899  0.7568
   35CHL1   C12 2547   4.437   1.653   7.877  0.2211  0.5640 -0.0801
   35CHL1  H12A 2548   4.449   1.746   7.936 -0.2749 -0.3353  1.4789
   35CHL1  H12B 2549   4.536   1.606   7.861 -0.2377  0.1491 -2.1187
   35CHL1   C11 2550   4.379   1.699   7.739 -0.2957  0.0398  0.2845
   35CHL1  H11A 2551   4.288   1.760   7.755 -1.7222 -1.9079 -0.0818
   35CHL1  H11B 2552   4.454   1.747   7.672  1.6054 -1.2592  1.3831
   35CHL1    C9 2553   4.332   1.573   7.650 -0.0788 -0.8212  0.2464
   35CHL1    H9 2554   4.428   1.518   7.635  0.2729  0.1523 -1.3752
   35CHL1   C10 2555   4.279   1.621   7.507  0.4223  0.2647 -0.2946
   35CHL1   C19 2556   4.165   1.729   7.527  0.4379 -0.0360 -0.0999
   35CHL1  H19A 2557   4.211   1.829   7.544 -1.7692  1.1927 -0.9765
   35CHL1  H19B 2558   4.094   1.737   7.443 -1.0641  0.1437  1.1372
   35CHL1  H19C 2559   4.112   1.715   7.624 -1.5305  0.2193 -1.1040
   35CHL1    C1 2560   4.387   1.683   7.418 -0.0268  0.0164  0.6324
   35CHL1   H1A 2561   4.430   1.773   7.468  0.4062 -0.3135  0.8598
   35CHL1   H1B 2562   4.472   1.611   7.415 -0.8375 -1.0678  2.5275
   35CHL1    C2 2563   4.351   1.720   7.271 -0.0755  0.2170 -0.4070
   35CHL1   H2A 2564   4.437   1.766   7.217 -0.2441 -1.2335 -2.0313
   35CHL1   H2B 2565   4.273   1.799   7.270  0.0672  0.5081  2.9171
   35CHL1   C20 2566   4.421   1.581   8.201  0.6490 -0.2678  0.3378
   35CHL1   H20 2567   4.421   1.688   8.170  2.5698  0.1940  1.6976
   35CHL1   C21 2568   4.551   1.545   8.268  0.4623 -0.5159 -0.4258
   35CHL1  H21A 2569   4.641   1.573   8.209  0.1653  0.7339 -0.3106
   35CHL1  H21B 2570   4.550   1.434   8.271  0.1607 -0.5045 -0.0482
   35CHL1  H21C 2571   4.563   1.592   8.368 -0.6006 -1.0086 -0.0521
   35CHL1   C22 2572   4.297   1.580   8.299  0.1317 -0.6714  0.6913
   35CHL1  H22A 2573   4.202   1.585   8.242  1.2455 -2.0797 -1.4263
   35CHL1  H22B 2574   4.306   1.486   8.358 -1.8149 -1.9199 -0.8713
   35CHL1   C23 2575   4.282   1.697   8.404 -0.3530  0.5163  0.2745
   35CHL1  H23A 2576   4.217   1.666   8.489 -0.5936  0.3727  0.0396
   35CHL1  H23B 2577   4.382   1.704   8.451 -0.2091  1.3658 -0.1534
   35CHL1   C24 2578   4.235   1.831   8.347  0.7827  0.3480 -0.1759
   35CHL1  H24A 2579   4.306   1.864   8.268 -0.3272  0.4149 -1.1815
   35CHL1  H24B 2580   4.130   1.827   8.310  1.4860  1.4768 -2.5411
   35CHL1   C25 2581   4.246   1.939   8.451 -0.3740  0.2595  0.2673
   35CHL1   H25 2582   4.194   2.024   8.399 -0.2233 -0.2410 -0.7227
   35CHL1   C26 2583   4.186   1.904   8.591 -0.5817 -0.4242  0.4375
   35CHL1  H26A 2584   4.232   1.813   8.636 -1.8571 -1.5271 -0.4304
   35CHL1  H26B 2585   4.206   1.979   8.671  1.9010 -1.2721  0.6907
   35CHL1  H26C 2586   4.082   1.866   8.583 -0.5292 -0.4772 -0.0270
   35CHL1   C27 2587   4.394   1.988   8.465 -0.2759 -0.1155 -0.5164
   35CHL1  H27A 2588   4.393   2.072   8.538  1.5730  0.5959 -1.2536
   35CHL1  H27B 2589   4.425   2.021   8.363  3.6194  1.5958  1.0340
   35CHL1  H27C 2590   4.463   1.906   8.494  0.9401  0.8255 -0.6625
   36CHL1    C3 2591   6.064   1.340   7.044 -0.8635 -0.3019 -0.2251
   36CHL1    H3 2592   6.033   1.233   7.044 -3.1360  0.2880 -1.9236
   36CHL1    O3 2593   6.040   1.395   6.916  0.5429  0.1403 -0.6395
   36CHL1   H3' 2594   6.046   1.489   6.933 -1.4184  0.7208 -2.6033
   36CHL1    C4 2595   5.978   1.410   7.156  0.2308  0.0048 -0.3275
   36CHL1   H4A 2596   6.011   1.516   7.158  2.4345 -0.6013  2.0523
   36CHL1   H4B 2597   5.870   1.405   7.134 -0.0137 -0.0687  0.8124
   36CHL1    C5 2598   5.999   1.345   7.294 -0.6077  0.0630 -1.2270
   36CHL1    C6 2599   5.900   1.296   7.366  0.6880 -0.0329  0.1886
   36CHL1    H6 2600   5.792   1.301   7.346  0.2377  2.3138  2.5506
   36CHL1    C7 2601   5.920   1.232   7.501 -0.1368  0.2595 -0.0667
   36CHL1   H7A 2602   5.837   1.266   7.566  1.8712 -1.9888  4.1229
   36CHL1   H7B 2603   5.910   1.122   7.486 -1.9690  0.6715 -2.2352
   36CHL1    C8 2604   6.051   1.274   7.566 -0.0338  0.6967 -1.0962
   36CHL1    H8 2605   6.053   1.385   7.578  1.8191  0.4500  1.8799
   36CHL1   C14 2606   6.071   1.213   7.699  0.7167  0.3608 -0.0939
   36CHL1   H14 2607   6.082   1.105   7.674  2.2588 -0.1919  2.6392
   36CHL1   C15 2608   5.944   1.205   7.800 -0.0115 -0.5598  0.2186
   36CHL1  H15A 2609   5.897   1.303   7.824 -1.4191 -0.5362 -2.3229
   36CHL1  H15B 2610   5.869   1.142   7.748 -0.2448  1.0890 -1.5450
   36CHL1   C16 2611   6.004   1.151   7.929  0.0576 -0.4592  0.8653
   36CHL1  H16A 2612   5.984   1.217   8.016  3.6738 -1.0116  2.2887
   36CHL1  H16B 2613   5.978   1.044   7.944 -0.7947 -0.9516 -3.0887
   36CHL1   C17 2614   6.158   1.146   7.900  0.5376 -0.2241 -0.9429
   36CHL1   H17 2615   6.179   1.040   7.874  2.1260  0.0553 -0.8632
   36CHL1   C13 2616   6.196   1.236   7.773  0.4308  0.7639 -0.4016
   36CHL1   C18 2617   6.221   1.382   7.813 -0.1438  0.7333  0.2334
   36CHL1  H18A 2618   6.164   1.416   7.902 -0.8867  0.0338  0.0387
   36CHL1  H18B 2619   6.324   1.398   7.851  0.7555 -1.7960 -0.9055
   36CHL1  H18C 2620   6.202   1.441   7.721  1.0659 -1.6462 -1.6780
   36CHL1   C12 2621   6.312   1.189   7.675 -0.0319 -1.0151 -0.0101
   36CHL1  H12A 2622   6.409   1.200   7.730 -0.5823 -0.2649  0.8420
   36CHL1  H12B 2623   6.295   1.080   7.665 -1.2244 -0.7455 -1.2775
   36CHL1   C11 2624   6.305   1.269   7.546 -0.5556  0.0061 -0.0533
   36CHL1  H11A 2625   6.326   1.376   7.570 -2.6718  0.3012  0.6749
   36CHL1  H11B 2626   6.370   1.223   7.469 -1.8115 -0.0405 -1.1113
   36CHL1    C9 2627   6.170   1.256   7.474 -0.0202  0.3605 -0.4365
   36CHL1    H9 2628   6.150   1.155   7.432 -0.7827  0.7393 -1.0150
   36CHL1   C10 2629   6.149   1.341   7.339  0.3277 -0.4292 -0.3139
   36CHL1   C19 2630   6.197   1.483   7.373  0.5605 -0.1016  0.0629
   36CHL1  H19A 2631   6.147   1.517   7.467 -1.4664  1.1181 -1.3716
   36CHL1  H19B 2632   6.306   1.474   7.392  0.3793 -0.1179  1.1603
   36CHL1  H19C 2633   6.192   1.552   7.287  2.3880 -0.7514 -0.5955
   36CHL1    C1 2634   6.232   1.283   7.225 -0.1380  0.3274  0.3364
   36CHL1   H1A 2635   6.341   1.282   7.245 -0.2240  0.8602  0.8608
   36CHL1   H1B 2636   6.199   1.177   7.219  2.3050 -0.4816  0.1722
   36CHL1    C2 2637   6.210   1.342   7.083 -0.0732 -0.2797  0.0162
   36CHL1   H2A 2638   6.272   1.285   7.011 -0.0450 -1.8151  1.1899
   36CHL1   H2B 2639   6.239   1.449   7.099  0.9845 -0.7499  1.5857
   36CHL1   C20 2640   6.238   1.181   8.026 -0.4209  0.0475 -0.1632
   36CHL1   H20 2641   6.227   1.287   8.057  0.7508  0.2614 -0.4418
   36CHL1   C21 2642   6.390   1.165   8.006 -1.0930  0.2828  0.6393
   36CHL1  H21A 2643   6.406   1.074   7.945  1.1520  1.1985 -0.2392
   36CHL1  H21B 2644   6.436   1.169   8.107 -0.7870  0.7480  0.4831
   36CHL1  H21C 2645   6.444   1.232   7.936  0.2900 -0.5075  0.9149
   36CHL1   C22 2646   6.198   1.097   8.159  0.0545  0.2335  0.9050
   36CHL1  H22A 2647   6.087   1.098   8.163 -0.1657 -1.6399 -1.8097
   36CHL1  H22B 2648   6.239   0.996   8.136 -1.2644 -0.4780  1.6088
   36CHL1   C23 2649   6.253   1.154   8.296  0.2038 -0.2606  0.0738
   36CHL1  H23A 2650   6.364   1.165   8.294  0.1352  0.4089 -1.4036
   36CHL1  H23B 2651   6.212   1.257   8.286  0.1943 -0.3513 -0.9776
   36CHL1   C24 2652   6.209   1.068   8.415 -0.2727 -0.5717  0.3367
   36CHL1  H24A 2653   6.098   1.071   8.410 -0.2682  1.0388  0.6352
   36CHL1  H24B 2654   6.244   0.965   8.390  1.2615  0.3882 -1.7374
   36CHL1   C25 2655   6.258   1.118   8.560  0.1997  0.4851  0.2736
   36CHL1   H25 2656   6.212   1.218   8.576 -2.1777 -0.3203 -1.0127
   36CHL1   C26 2657   6.203   1.018   8.660 -0.1693  0.1707 -0.1326
   36CHL1  H26A 2658   6.230   1.034   8.767  2.9031 -4.1771  0.0391
   36CHL1  H26B 2659   6.095   1.000   8.644  0.1490 -2.4553  0.1844
   36CHL1  H26C 2660   6.258   0.922   8.646  0.5850  0.0276  2.9634
   36CHL1   C27 2661   6.410   1.128   8.572  0.8085  0.5359  0.6079
   36CHL1  H27A 2662   6.466   1.039   8.537 -0.2792 -0.2987  0.9787
   36CHL1  H27B 2663   6.441   1.205   8.497  1.1772 -0.9560 -0.8368
   36CHL1  H27C 2664   6.446   1.165   8.670  2.7830  1.8875 -0.5351
   37CHL1    C3 2665   4.282   3.370   6.915 -0.4521  0.4685  0.4123
   37CHL1    H3 2666   4.244   3.283   6.973  1.8659 -1.4462 -0.7751
   37CHL1    O3 2667   4.311   3.321   6.777 -0.5783 -0.3293 -0.2741
   37CHL1   H3' 2668   4.309   3.399   6.722 -0.1812  0.6561  1.0417
   37CHL1    C4 2669   4.181   3.485   6.916  1.2014 -0.3208  0.1010
   37CHL1   H4A 2670   4.198   3.582   6.865 -2.2877 -0.5809 -1.8792
   37CHL1   H4B 2671   4.090   3.442   6.868  1.5098 -0.5543 -0.2793
   37CHL1    C5 2672   4.159   3.534   7.058  0.2396  0.0032  0.4094
   37CHL1    C6 2673   4.034   3.547   7.110  0.2831 -0.3163  0.0728
   37CHL1    H6 2674   3.942   3.527   7.054 -2.7862  3.5509  3.1600
   37CHL1    C7 2675   4.003   3.591   7.248  0.0516  0.5505  0.0246
   37CHL1   H7A 2676   3.911   3.654   7.243  0.0101  0.4186 -1.2666
   37CHL1   H7B 2677   3.985   3.509   7.321 -1.3998  1.0167  0.2276
   37CHL1    C8 2678   4.124   3.657   7.311  0.0239 -0.3418 -0.6541
   37CHL1    H8 2679   4.130   3.754   7.257  0.1244  0.4343  0.6982
   37CHL1   C14 2680   4.099   3.672   7.466  0.1892 -0.0676 -0.4549
   37CHL1   H14 2681   4.095   3.565   7.498  0.1364  0.2768  0.7314
   37CHL1   C15 2682   3.970   3.735   7.527 -0.1174  0.5650  0.6746
   37CHL1  H15A 2683   3.953   3.837   7.486 -1.4352  0.7325  1.5612
   37CHL1  H15B 2684   3.871   3.685   7.534  1.5951 -3.0229  1.2760
   37CHL1   C16 2685   4.016   3.762   7.674 -0.2611  0.1980 -0.5109
   37CHL1  H16A 2686   3.987   3.868   7.692 -0.4750 -0.4566  4.3121
   37CHL1  H16B 2687   3.947   3.709   7.742  0.9805 -2.4708 -1.1838
   37CHL1   C17 2688   4.167   3.736   7.694  0.4746  0.6464  0.2637
   37CHL1   H17 2689   4.180   3.629   7.721  1.5430  0.8025  0.3943
   37CHL1   C13 2690   4.215   3.736   7.549 -0.1686  0.3675 -0.3343
   37CHL1   C18 2691   4.234   3.876   7.520  0.3477 -0.4323  0.1599
   37CHL1  H18A 2692   4.145   3.943   7.531  2.3047  2.0502  2.2226
   37CHL1  H18B 2693   4.307   3.925   7.588 -1.4510  1.3880  0.9042
   37CHL1  H18C 2694   4.280   3.893   7.420  2.1819  1.9750  1.3137
   37CHL1   C12 2695   4.344   3.655   7.524  0.2277 -0.4396  0.0111
   37CHL1  H12A 2696   4.431   3.706   7.571 -0.1349 -0.3595  0.6100
   37CHL1  H12B 2697   4.330   3.552   7.563  2.4847 -0.7110  0.2382
   37CHL1   C11 2698   4.378   3.629   7.373  0.5723  0.0958 -0.6446
   37CHL1  H11A 2699   4.399   3.731   7.334  2.7226 -0.4912 -1.1466
   37CHL1  H11B 2700   4.469   3.566   7.366  0.2923 -0.3353 -0.4497
   37CHL1    C9 2701   4.255   3.578   7.286 -0.0646  0.0539  0.3147
   37CHL1    H9 2702   4.237   3.475   7.323 -0.5086 -0.0368 -0.1453
   37CHL1   C10 2703   4.296   3.565   7.131  0.5443 -0.0286  0.0664
   37CHL1   C19 2704   4.358   3.700   7.076  0.2420  0.2017  0.3415
   37CHL1  H19A 2705   4.301   3.788   7.111  0.3714 -0.4139  2.2505
   37CHL1  H19B 2706   4.458   3.731   7.114  0.0590  1.1136  0.0881
   37CHL1  H19C 2707   4.341   3.705   6.966 -0.7957 -1.6818  0.3617
   37CHL1    C1 2708   4.395   3.449   7.123 -0.0896 -0.0557 -0.6061
   37CHL1   H1A 2709   4.495   3.475   7.163  0.0547 -1.7533  0.2148
   37CHL1   H1B 2710   4.361   3.360   7.178 -0.5290 -1.3405 -2.8168
   37CHL1    C2 2711   4.414   3.405   6.981 -0.1903 -0.3760 -0.8129
   37CHL1   H2A 2712   4.469   3.309   6.989  0.7714  0.1398 -1.0497
   37CHL1   H2B 2713   4.468   3.476   6.914 -1.5905  1.1321 -0.4155
   37CHL1   C20 2714   4.238   3.827   7.803 -0.8537  0.3502 -0.2433
   37CHL1   H20 2715   4.260   3.930   7.768  1.3668 -0.7492 -2.3808
   37CHL1   C21 2716   4.371   3.761   7.848 -0.5191 -0.5842  0.4098
   37CHL1  H21A 2717   4.340   3.663   7.890 -2.2980 -0.9235 -1.5123
   37CHL1  H21B 2718   4.414   3.833   7.922 -0.3865  0.6254 -0.8138
   37CHL1  H21C 2719   4.452   3.758   7.773 -2.5368 -0.9579 -1.9009
   37CHL1   C22 2720   4.151   3.847   7.929  0.8865 -0.3250  0.2063
   37CHL1  H22A 2721   4.048   3.874   7.899  1.2999  0.1840 -0.7896
   37CHL1  H22B 2722   4.149   3.751   7.986 -0.3885  0.2349  1.1562
   37CHL1   C23 2723   4.210   3.955   8.023  0.3570  0.1016 -0.5091
   37CHL1  H23A 2724   4.321   3.960   8.034  0.2005 -0.1711  1.7342
   37CHL1  H23B 2725   4.179   4.056   7.989 -0.4820 -0.4279 -1.3182
   37CHL1   C24 2726   4.162   3.939   8.171  0.3297  0.0929  0.9512
   37CHL1  H24A 2727   4.202   3.845   8.214  1.6955  0.7881  1.2768
   37CHL1  H24B 2728   4.206   4.021   8.232 -1.6682  1.6577  0.4011
   37CHL1   C25 2729   4.008   3.933   8.188 -0.5807 -0.3916  0.8740
   37CHL1   H25 2730   3.971   3.855   8.118  0.5496  0.7258 -1.0650
   37CHL1   C26 2731   3.978   3.903   8.331  0.3235  0.0251  0.4932
   37CHL1  H26A 2732   4.023   3.983   8.393 -0.0057  1.2137 -0.7474
   37CHL1  H26B 2733   3.870   3.913   8.355  0.4732  1.8798  0.5059
   37CHL1  H26C 2734   4.011   3.804   8.369 -0.1852 -0.9697 -1.5114
   37CHL1   C27 2735   3.952   4.066   8.155 -0.3042 -0.3046  0.5597
   37CHL1  H27A 2736   3.987   4.097   8.054  1.4753 -0.8340  0.9650
   37CHL1  H27B 2737   3.842   4.077   8.156 -0.2352  0.4612  0.6922
   37CHL1  H27C 2738   3.989   4.145   8.225 -0.4443 -0.5557  0.9158
   38CHL1    C3 2739   4.975   4.793   6.867 -0.5253  0.3851 -0.0377
   38CHL1    H3 2740   4.917   4.713   6.917  0.1650 -0.4630 -0.5749
   38CHL1    O3 2741   4.966   4.782   6.725  0.7070 -0.0695  0.1533
   38CHL1   H3' 2742   4.961   4.687   6.709 -1.4267 -0.1373  0.8213
   38CHL1    C4 2743   4.923   4.932   6.910 -0.0932  0.1617  0.3194
   38CHL1   H4A 2744   4.979   5.013   6.860 -0.3790  0.4095  0.4000
   38CHL1   H4B 2745   4.815   4.937   6.885 -0.3157 -3.5457 -0.0302
   38CHL1    C5 2746   4.939   4.948   7.055 -0.6773 -0.0012 -0.1274
   38CHL1    C6 2747   4.831   4.984   7.131 -0.7368 -0.5514 -0.1200
   38CHL1    H6 2748   4.736   5.001   7.079 -1.1293  0.1255  0.7869
   38CHL1    C7 2749   4.825   4.999   7.282  0.8057  0.2768 -0.1827
   38CHL1   H7A 2750   4.783   5.101   7.298  1.8753  1.0208 -1.8616
   38CHL1   H7B 2751   4.753   4.923   7.320 -2.0024  2.2991 -1.1206
   38CHL1    C8 2752   4.966   4.988   7.340 -0.8373 -0.7236  0.2021
   38CHL1    H8 2753   5.014   5.088   7.348 -0.0320 -1.1577  0.9396
   38CHL1   C14 2754   4.962   4.940   7.483 -0.0778  0.6576  0.1184
   38CHL1   H14 2755   4.926   4.835   7.481 -1.1628  0.9946 -2.6957
   38CHL1   C15 2756   4.862   5.021   7.569 -0.6238 -0.1954  0.3092
   38CHL1  H15A 2757   4.868   5.128   7.540 -1.6432 -0.3033 -0.3428
   38CHL1  H15B 2758   4.757   4.988   7.555 -0.7729  0.2261  0.4077
   38CHL1   C16 2759   4.909   4.994   7.708 -0.0237  0.2977 -0.2243
   38CHL1  H16A 2760   4.910   5.089   7.765 -1.2024 -1.3108  2.6573
   38CHL1  H16B 2761   4.829   4.936   7.758  0.1726  1.5287  1.6016
   38CHL1   C17 2762   5.044   4.921   7.704  0.6981 -0.2634 -0.1282
   38CHL1   H17 2763   5.016   4.814   7.704 -4.8880  0.8939  1.4402
   38CHL1   C13 2764   5.093   4.945   7.561 -0.0752 -0.3654  0.2982
   38CHL1   C18 2765   5.159   5.084   7.571  0.5455 -0.1245  0.1496
   38CHL1  H18A 2766   5.256   5.083   7.626 -0.1292  0.4951  1.4034
   38CHL1  H18B 2767   5.176   5.125   7.469 -2.5601 -0.5786 -0.6714
   38CHL1  H18C 2768   5.094   5.150   7.633  1.4117 -1.7889  3.0498
   38CHL1   C12 2769   5.185   4.834   7.497  0.0094 -0.0813  0.1401
   38CHL1  H12A 2770   5.290   4.850   7.528  0.2202  2.5752 -1.6509
   38CHL1  H12B 2771   5.155   4.731   7.526 -0.2382 -0.1610 -0.3738
   38CHL1   C11 2772   5.192   4.851   7.342 -0.5373  0.2666 -0.0868
   38CHL1  H11A 2773   5.275   4.921   7.322 -0.0621  0.3711  2.0503
   38CHL1  H11B 2774   5.240   4.760   7.300 -1.6671 -0.1961 -0.4004
   38CHL1    C9 2775   5.058   4.891   7.273  0.4708 -0.3088  0.1497
   38CHL1    H9 2776   4.997   4.797   7.271  1.5055 -0.9895 -0.9313
   38CHL1   C10 2777   5.077   4.923   7.113 -0.6760  0.1611 -0.2238
   38CHL1   C19 2778   5.167   5.048   7.088 -0.5587  0.5850  0.2595
   38CHL1  H19A 2779   5.226   5.029   6.996  1.0614  1.8065  0.9928
   38CHL1  H19B 2780   5.116   5.145   7.072 -0.8727  0.1289 -1.8157
   38CHL1  H19C 2781   5.241   5.058   7.170  2.8224 -2.4791 -2.1034
   38CHL1    C1 2782   5.144   4.795   7.057 -0.0610 -0.9008  0.4814
   38CHL1   H1A 2783   5.253   4.788   7.079 -0.2611 -1.4522  1.3559
   38CHL1   H1B 2784   5.090   4.714   7.110 -1.5373  0.4300  1.0989
   38CHL1    C2 2785   5.128   4.776   6.903  0.0229 -0.0235 -0.3488
   38CHL1   H2A 2786   5.173   4.684   6.861  0.8413 -0.5000  1.4759
   38CHL1   H2B 2787   5.169   4.871   6.861  1.2780 -0.4357 -0.0975
   38CHL1   C20 2788   5.131   4.955   7.827 -0.8635 -0.4079 -0.2920
   38CHL1   H20 2789   5.151   5.064   7.824 -0.0910 -0.4700  1.2219
   38CHL1   C21 2790   5.272   4.889   7.828 -0.0542 -0.1682 -0.3234
   38CHL1  H21A 2791   5.340   4.892   7.740  0.0599  1.4231 -0.2017
   38CHL1  H21B 2792   5.266   4.780   7.851 -0.4892 -0.1766 -0.4678
   38CHL1  H21C 2793   5.333   4.935   7.909  0.9329 -0.8527 -0.6492
   38CHL1   C22 2794   5.069   4.913   7.970 -0.4003  0.3519  0.5722
   38CHL1  H22A 2795   4.963   4.946   7.967 -0.5806 -0.2508 -0.0170
   38CHL1  H22B 2796   5.080   4.802   7.967 -0.8909  0.3086  0.3154
   38CHL1   C23 2797   5.131   4.979   8.088 -0.0262  0.2886 -0.0803
   38CHL1  H23A 2798   5.242   4.972   8.093  0.0154  1.0629  0.1515
   38CHL1  H23B 2799   5.106   5.086   8.082  0.1093  0.3914  0.8879
   38CHL1   C24 2800   5.070   4.915   8.217  0.7108  0.2324 -0.1238
   38CHL1  H24A 2801   4.960   4.930   8.211  0.9692  2.0749 -0.7688
   38CHL1  H24B 2802   5.081   4.804   8.211 -0.4871  0.0432  0.8039
   38CHL1   C25 2803   5.137   4.963   8.340 -0.3774 -0.2299  1.1085
   38CHL1   H25 2804   5.141   5.073   8.355 -0.9877  0.0993 -0.7626
   38CHL1   C26 2805   5.064   4.906   8.458 -0.1977  0.5309 -0.0424
   38CHL1  H26A 2806   4.963   4.950   8.471 -0.0242  1.0097 -0.2652
   38CHL1  H26B 2807   5.056   4.796   8.451 -0.7776  0.5345  0.5001
   38CHL1  H26C 2808   5.111   4.915   8.559  3.5092 -0.4137 -1.4873
   38CHL1   C27 2809   5.279   4.908   8.353 -0.1697 -0.0003 -0.3949
   38CHL1  H27A 2810   5.356   4.961   8.292 -0.3797 -0.4982 -1.1053
   38CHL1  H27B 2811   5.306   4.911   8.461 -0.9986  0.3649 -0.1892
   38CHL1  H27C 2812   5.276   4.799   8.334 -1.3715  0.3965 -2.8728
   39CHL1    C3 2813   5.704   2.936   6.883  0.8127  0.8331 -0.7161
   39CHL1    H3 2814   5.622   2.991   6.934  0.3217 -0.2575 -0.2975
   39CHL1    O3 2815   5.690   2.942   6.738  0.1530  0.0875  0.2669
   39CHL1   H3' 2816   5.773   2.914   6.697  0.6056  0.1768  1.0867
   39CHL1    C4 2817   5.838   2.996   6.911  0.5849  0.8200  0.0155
   39CHL1   H4A 2818   5.922   2.950   6.855  1.0186 -1.9347  2.6546
   39CHL1   H4B 2819   5.837   3.102   6.878 -0.0217  0.1783 -2.2037
   39CHL1    C5 2820   5.865   2.984   7.061  0.1010  0.3290  0.0847
   39CHL1    C6 2821   5.889   3.093   7.135  0.5026  0.1395 -0.5418
   39CHL1    H6 2822   5.889   3.192   7.085 -0.8669  0.0876 -0.6856
   39CHL1    C7 2823   5.913   3.097   7.283  0.2137 -0.1874  0.0236
   39CHL1   H7A 2824   6.003   3.157   7.308 -1.4013  1.7976  1.4137
   39CHL1   H7B 2825   5.820   3.136   7.329 -1.9965 -0.7326 -3.5686
   39CHL1    C8 2826   5.926   2.953   7.346  0.1272  0.1869 -0.0144
   39CHL1    H8 2827   6.034   2.931   7.332 -0.2050 -1.7392  0.1663
   39CHL1   C14 2828   5.907   2.951   7.497 -0.0829  0.5892  0.0299
   39CHL1   H14 2829   5.800   2.978   7.513 -0.0839 -0.2635  1.6505
   39CHL1   C15 2830   5.988   3.051   7.592  0.5020  0.1959  0.3159
   39CHL1  H15A 2831   6.091   3.058   7.550  0.6392 -1.4274  0.3001
   39CHL1  H15B 2832   5.932   3.146   7.596 -2.2947 -1.3637  1.0415
   39CHL1   C16 2833   5.974   2.989   7.734  0.1351 -0.0847  0.6469
   39CHL1  H16A 2834   6.071   2.966   7.784  0.2929  2.3633  1.5758
   39CHL1  H16B 2835   5.928   3.061   7.805  0.6479  0.0502  0.8494
   39CHL1   C17 2836   5.902   2.853   7.719  0.7798  0.2790  0.6497
   39CHL1   H17 2837   5.794   2.878   7.716  1.1313  1.9042  0.5505
   39CHL1   C13 2838   5.928   2.810   7.573 -0.6583  0.2074 -0.9701
   39CHL1   C18 2839   6.080   2.763   7.559 -0.6236  0.1401  0.3755
   39CHL1  H18A 2840   6.103   2.677   7.625 -2.2826 -0.1587  0.6249
   39CHL1  H18B 2841   6.103   2.749   7.451 -2.1198 -0.4209  0.0949
   39CHL1  H18C 2842   6.156   2.842   7.578 -0.6837  0.0422  1.0412
   39CHL1   C12 2843   5.827   2.715   7.512 -0.4048 -1.1950 -0.5409
   39CHL1  H12A 2844   5.848   2.614   7.554  0.3866 -0.4108  1.0352
   39CHL1  H12B 2845   5.720   2.733   7.536 -0.4810  1.1343 -2.2466
   39CHL1   C11 2846   5.847   2.717   7.357  0.0542 -0.4630  0.6050
   39CHL1  H11A 2847   5.955   2.695   7.342 -0.3652 -1.3927 -1.5190
   39CHL1  H11B 2848   5.789   2.630   7.317  1.0972 -0.8882 -0.0416
   39CHL1    C9 2849   5.834   2.852   7.279  0.2200 -0.0691 -0.1132
   39CHL1    H9 2850   5.733   2.896   7.295  0.4416 -0.2274  2.0288
   39CHL1   C10 2851   5.849   2.842   7.119 -0.0851 -0.2544  0.6792
   39CHL1   C19 2852   5.967   2.752   7.076  0.2629 -0.3919  0.1843
   39CHL1  H19A 2853   6.057   2.800   7.122  1.8633  0.2816 -3.3605
   39CHL1  H19B 2854   5.950   2.653   7.122 -0.0274  0.2479  1.5129
   39CHL1  H19C 2855   5.971   2.740   6.966  1.0891  1.2055  0.0060
   39CHL1    C1 2856   5.719   2.766   7.079 -0.3180 -0.0273  0.2309
   39CHL1   H1A 2857   5.735   2.658   7.099 -0.6405  0.2161  1.9428
   39CHL1   H1B 2858   5.630   2.802   7.134 -0.2541 -0.7788  0.8336
   39CHL1    C2 2859   5.693   2.784   6.929  0.0668  0.3438  0.4851
   39CHL1   H2A 2860   5.592   2.746   6.904  1.2104 -1.6962 -1.3607
   39CHL1   H2B 2861   5.764   2.718   6.874 -1.1000  2.4903 -4.0142
   39CHL1   C20 2862   5.929   2.758   7.835  0.2117 -0.0498  0.3847
   39CHL1   H20 2863   6.027   2.710   7.814 -0.5288 -1.2681 -0.4319
   39CHL1   C21 2864   5.826   2.648   7.844  0.0702  0.1293  0.4083
   39CHL1  H21A 2865   5.870   2.565   7.902  0.9678 -1.1032 -1.9031
   39CHL1  H21B 2866   5.804   2.608   7.743 -0.1785  0.2657  0.4072
   39CHL1  H21C 2867   5.733   2.681   7.896  0.8054  1.1863  1.0952
   39CHL1   C22 2868   5.944   2.831   7.977 -0.1027  0.0982 -0.4694
   39CHL1  H22A 2869   6.030   2.902   7.979  0.6044 -0.7445  0.1456
   39CHL1  H22B 2870   5.849   2.885   7.996 -0.0012  0.7437 -1.7002
   39CHL1   C23 2871   5.954   2.736   8.099 -0.1272  0.6373  0.4024
   39CHL1  H23A 2872   5.975   2.801   8.187  0.1206  0.9712  0.0986
   39CHL1  H23B 2873   5.852   2.700   8.125  0.1875 -0.8497 -0.2829
   39CHL1   C24 2874   6.062   2.626   8.090 -0.3118 -0.9422  0.6963
   39CHL1  H24A 2875   6.024   2.548   8.021 -1.5498 -1.7048  2.1809
   39CHL1  H24B 2876   6.153   2.678   8.053 -1.4786 -0.2939 -1.4124
   39CHL1   C25 2877   6.096   2.546   8.219 -0.0126 -0.3629 -0.2367
   39CHL1   H25 2878   6.167   2.465   8.192  0.8371  0.2507  0.1203
   39CHL1   C26 2879   6.170   2.629   8.328  0.3489 -0.0257  0.3258
   39CHL1  H26A 2880   6.100   2.701   8.375 -0.5754 -0.1397 -0.8132
   39CHL1  H26B 2881   6.194   2.560   8.412 -2.9275  1.3964  2.6153
   39CHL1  H26C 2882   6.257   2.681   8.284  0.7502 -1.3997 -0.5639
   39CHL1   C27 2883   5.971   2.487   8.286  0.0747  1.0318 -0.2988
   39CHL1  H27A 2884   6.009   2.414   8.361 -4.3946 -2.4492 -0.9737
   39CHL1  H27B 2885   5.923   2.575   8.333  0.5130  0.3557  1.4938
   39CHL1  H27C 2886   5.907   2.426   8.219  0.2569 -0.9478  1.2436
   40CHL1    C3 2887   0.446   6.758   7.167 -0.2021 -0.1316 -0.1214
   40CHL1    H3 2888   0.527   6.684   7.182 -0.9209 -0.6351  1.4157
   40CHL1    O3 2889   0.418   6.774   7.027 -0.0391  0.0348 -0.2383
   40CHL1   H3' 2890   0.366   6.854   7.021  0.7507  0.4598 -2.5584
   40CHL1    C4 2891   0.325   6.714   7.246  0.2072  0.2381  0.4252
   40CHL1   H4A 2892   0.236   6.773   7.218 -1.1242 -2.3081 -1.0516
   40CHL1   H4B 2893   0.311   6.608   7.217  0.1492  0.0842  0.9973
   40CHL1    C5 2894   0.359   6.713   7.395 -0.0742 -0.0348 -0.3087
   40CHL1    C6 2895   0.344   6.603   7.471 -0.9765  0.3640 -0.4437
   40CHL1    H6 2896   0.308   6.506   7.432  1.6528 -0.7868 -0.2123
   40CHL1    C7 2897   0.361   6.609   7.617 -0.4698  0.4506  0.2340
   40CHL1   H7A 2898   0.275   6.557   7.667 -1.8242  0.8246 -1.6270
   40CHL1   H7B 2899   0.450   6.544   7.633 -1.6373 -0.9171  1.5404
   40CHL1    C8 2900   0.372   6.751   7.681 -0.4267  0.6961 -0.6170
   40CHL1    H8 2901   0.270   6.793   7.668  0.0298  1.7612 -0.8801
   40CHL1   C14 2902   0.430   6.734   7.820  0.0073 -0.3094  0.0302
   40CHL1   H14 2903   0.530   6.687   7.809  0.2493  0.3370 -0.6047
   40CHL1   C15 2904   0.356   6.651   7.926  0.3556 -0.1711  0.8390
   40CHL1  H15A 2905   0.247   6.670   7.932  0.5578  0.9895  1.2303
   40CHL1  H15B 2906   0.363   6.542   7.907 -1.1770 -0.1907  0.2880
   40CHL1   C16 2907   0.423   6.690   8.056 -0.0195  0.2783 -0.0992
   40CHL1  H16A 2908   0.338   6.703   8.126  0.0643 -0.9609  0.2670
   40CHL1  H16B 2909   0.486   6.606   8.094  0.0384  0.0192 -0.7554
   40CHL1   C17 2910   0.500   6.820   8.025 -0.4994  0.6545 -0.4279
   40CHL1   H17 2911   0.606   6.793   8.005  0.5912  1.3647  3.5407
   40CHL1   C13 2912   0.456   6.863   7.891 -0.4876 -0.7232  0.1429
   40CHL1   C18 2913   0.319   6.937   7.908  0.9321 -0.3126 -0.0989
   40CHL1  H18A 2914   0.269   6.945   7.809 -0.5205  0.8883  0.6937
   40CHL1  H18B 2915   0.253   6.883   7.979 -0.0374 -3.0061 -2.8131
   40CHL1  H18C 2916   0.329   7.038   7.953  0.2594 -0.3294  0.0908
   40CHL1   C12 2917   0.552   6.951   7.807 -1.0264 -0.3255 -0.1298
   40CHL1  H12A 2918   0.576   7.047   7.856 -1.3684 -0.8530  1.1004
   40CHL1  H12B 2919   0.646   6.892   7.801  0.5123  1.6149  2.7188
   40CHL1   C11 2920   0.493   6.983   7.676 -0.1285  0.7876  0.5679
   40CHL1  H11A 2921   0.408   7.053   7.694 -1.2579 -0.9642  2.4357
   40CHL1  H11B 2922   0.559   7.038   7.605  1.6375  0.0883  1.6121
   40CHL1    C9 2923   0.460   6.844   7.600  0.4272 -0.3664  0.5324
   40CHL1    H9 2924   0.557   6.790   7.596 -0.7221 -2.7174  2.1353
   40CHL1   C10 2925   0.411   6.850   7.452 -0.1760  0.0468  0.9309
   40CHL1   C19 2926   0.301   6.953   7.441 -0.1908  0.5084 -0.5650
   40CHL1  H19A 2927   0.344   7.048   7.481  0.2868 -0.6089  1.8068
   40CHL1  H19B 2928   0.260   6.966   7.339 -0.5749 -1.5856 -0.7254
   40CHL1  H19C 2929   0.218   6.929   7.511  1.5011  0.6746  1.6063
   40CHL1    C1 2930   0.533   6.894   7.369  0.1920 -0.1205  1.1071
   40CHL1   H1A 2931   0.576   6.991   7.400 -2.2121  1.3429  0.1730
   40CHL1   H1B 2932   0.610   6.815   7.384  0.7845  0.4116  0.8753
   40CHL1    C2 2933   0.506   6.893   7.219  0.3358 -0.2318  0.2471
   40CHL1   H2A 2934   0.600   6.930   7.171 -0.0911  1.0385  0.3453
   40CHL1   H2B 2935   0.430   6.970   7.193  0.1209 -0.4671  0.1773
   40CHL1   C20 2936   0.497   6.913   8.144 -0.3758 -0.1573  0.3800
   40CHL1   H20 2937   0.394   6.953   8.152  0.3888  1.7324  1.3984
   40CHL1   C21 2938   0.592   7.031   8.129  0.1507 -0.3625 -0.2050
   40CHL1  H21A 2939   0.694   7.011   8.090  0.9382  0.6764  1.2308
   40CHL1  H21B 2940   0.615   7.067   8.232  0.9363 -0.9704 -0.1591
   40CHL1  H21C 2941   0.546   7.113   8.070 -1.9730  0.6898  2.6848
   40CHL1   C22 2942   0.532   6.842   8.283 -0.2543 -0.0522  0.7102
   40CHL1  H22A 2943   0.521   6.911   8.369  0.9542 -0.5818  1.3118
   40CHL1  H22B 2944   0.460   6.758   8.296 -0.9030  0.3558 -0.1064
   40CHL1   C23 2945   0.677   6.791   8.299 -0.0958 -0.4520 -0.0619
   40CHL1  H23A 2946   0.699   6.731   8.208  3.6980 -3.6146  2.5777
   40CHL1  H23B 2947   0.754   6.870   8.297 -1.3413  0.8471  1.1773
   40CHL1   C24 2948   0.695   6.712   8.422 -0.2111 -0.4994 -0.0917
   40CHL1  H24A 2949   0.629   6.760   8.497 -3.6514 -3.5081 -0.9210
   40CHL1  H24B 2950   0.654   6.609   8.416 -1.2941 -0.1783  1.2974
   40CHL1   C25 2951   0.836   6.699   8.463  0.0234 -0.5365  0.1423
   40CHL1   H25 2952   0.891   6.787   8.425 -0.0689 -1.4633 -2.3107
   40CHL1   C26 2953   0.825   6.695   8.615 -0.0631 -0.2772  0.0490
   40CHL1  H26A 2954   0.755   6.618   8.653 -0.3579 -0.0074  0.0627
   40CHL1  H26B 2955   0.928   6.682   8.656  1.7320 -0.0521 -3.9863
   40CHL1  H26C 2956   0.788   6.790   8.661  3.1245 -0.8927  4.5366
   40CHL1   C27 2957   0.898   6.577   8.409 -0.4338  0.3865  0.8788
   40CHL1  H27A 2958   0.985   6.533   8.463  0.9346  1.3510 -0.4598
   40CHL1  H27B 2959   0.819   6.499   8.408 -1.3480  1.2889 -0.2854
   40CHL1  H27C 2960   0.939   6.593   8.307  1.2344  1.6248  1.6935
   41CHL1    C3 2961   1.275   2.344   6.868 -0.3957 -0.0918 -0.8659
   41CHL1    H3 2962   1.225   2.251   6.901 -1.7185  0.8749 -0.0069
   41CHL1    O3 2963   1.318   2.341   6.738 -0.3146 -0.1318  0.3190
   41CHL1   H3' 2964   1.311   2.431   6.703  0.1499 -0.1523  0.1701
   41CHL1    C4 2965   1.180   2.466   6.895 -0.7384  0.3535  0.4962
   41CHL1   H4A 2966   1.222   2.563   6.861  0.5906 -0.4037 -0.1126
   41CHL1   H4B 2967   1.091   2.455   6.830 -1.3732  1.0976  1.2239
   41CHL1    C5 2968   1.153   2.477   7.041  0.4414  0.4248 -1.3048
   41CHL1    C6 2969   1.031   2.467   7.091  0.0264  0.5047  0.9929
   41CHL1    H6 2970   0.943   2.454   7.026 -0.1235  0.5034  1.1953
   41CHL1    C7 2971   1.002   2.482   7.241  0.2979  0.6410 -0.6497
   41CHL1   H7A 2972   0.902   2.530   7.248 -0.8373 -1.2214 -2.6738
   41CHL1   H7B 2973   0.991   2.381   7.286 -0.7653  1.0291  0.0066
   41CHL1    C8 2974   1.110   2.557   7.318  0.1129  0.2631 -0.0143
   41CHL1    H8 2975   1.115   2.661   7.280 -2.2715  0.0959 -0.9693
   41CHL1   C14 2976   1.092   2.555   7.474 -0.6201  0.1992 -0.7409
   41CHL1   H14 2977   1.113   2.449   7.496  3.5641  0.7338 -1.3257
   41CHL1   C15 2978   0.960   2.598   7.532  0.4776  0.3427 -0.6135
   41CHL1  H15A 2979   0.919   2.685   7.477 -1.3978  0.5047  0.9314
   41CHL1  H15B 2980   0.888   2.514   7.525 -0.3771  1.1732 -2.3915
   41CHL1   C16 2981   0.997   2.641   7.682  0.2645 -0.2184 -0.0225
   41CHL1  H16A 2982   0.957   2.740   7.710 -0.2551 -0.2152 -0.7583
   41CHL1  H16B 2983   0.945   2.575   7.755  0.3369  0.6444  0.8223
   41CHL1   C17 2984   1.151   2.633   7.696 -0.3531  0.3496  0.1311
   41CHL1   H17 2985   1.158   2.529   7.735 -0.3530  0.3048  0.0135
   41CHL1   C13 2986   1.203   2.628   7.551  0.2556 -0.6968  0.5525
   41CHL1   C18 2987   1.220   2.776   7.496 -0.7282  0.1573 -0.2175
   41CHL1  H18A 2988   1.124   2.829   7.518 -0.5535 -0.2898  1.8526
   41CHL1  H18B 2989   1.295   2.841   7.546 -0.5808  1.8230 -2.4383
   41CHL1  H18C 2990   1.234   2.793   7.387 -0.1373  2.7676  0.2014
   41CHL1   C12 2991   1.333   2.553   7.527 -0.5230  0.2550  0.0343
   41CHL1  H12A 2992   1.418   2.609   7.570 -0.7515  1.3454 -0.8578
   41CHL1  H12B 2993   1.322   2.449   7.564 -1.1191  0.5835  0.8229
   41CHL1   C11 2994   1.370   2.545   7.378 -0.1654 -0.5281  0.5057
   41CHL1  H11A 2995   1.386   2.649   7.343 -3.4337 -0.2493 -0.5010
   41CHL1  H11B 2996   1.458   2.479   7.367 -1.0462 -1.8825  1.3340
   41CHL1    C9 2997   1.253   2.491   7.285 -0.2582 -0.1182 -0.2988
   41CHL1    H9 2998   1.241   2.382   7.304  0.0058  0.0357  0.8172
   41CHL1   C10 2999   1.281   2.501   7.132 -0.2042  0.0480 -0.0692
   41CHL1   C19 3000   1.340   2.639   7.096  0.6290  0.6162 -0.0405
   41CHL1  H19A 3001   1.357   2.652   6.987 -0.5392  0.0756 -0.2987
   41CHL1  H19B 3002   1.272   2.722   7.126 -0.3885 -0.8620  1.9349
   41CHL1  H19C 3003   1.440   2.654   7.143  1.4623  0.6934 -1.7525
   41CHL1    C1 3004   1.384   2.385   7.100  0.3015 -0.4246 -0.0860
   41CHL1   H1A 3005   1.480   2.425   7.141  0.5694 -0.5568 -0.5673
   41CHL1   H1B 3006   1.342   2.288   7.135 -0.2491 -0.5252 -0.9913
   41CHL1    C2 3007   1.408   2.376   6.949  0.6721  0.5303 -0.0017
   41CHL1   H2A 3008   1.492   2.304   6.935  0.7689  0.0604  2.5653
   41CHL1   H2B 3009   1.449   2.475   6.918 -1.7571  1.4041 -0.6282
   41CHL1   C20 3010   1.213   2.735   7.796  0.4084 -0.2921  0.1966
   41CHL1   H20 3011   1.200   2.835   7.751 -2.8414 -1.0703 -0.8972
   41CHL1   C21 3012   1.363   2.719   7.811  0.1904  0.4330  0.3631
   41CHL1  H21A 3013   1.370   2.610   7.834 -0.8399 -0.3977 -2.7360
   41CHL1  H21B 3014   1.408   2.780   7.892 -0.2303  0.7285  0.3773
   41CHL1  H21C 3015   1.417   2.746   7.717 -2.9968  1.0440 -1.4220
   41CHL1   C22 3016   1.127   2.731   7.928  0.0998 -0.5978 -0.3230
   41CHL1  H22A 3017   1.029   2.783   7.924  0.3354 -0.0629  0.4437
   41CHL1  H22B 3018   1.111   2.630   7.971 -1.8611  0.7310  2.3233
   41CHL1   C23 3019   1.193   2.833   8.026 -0.2570  0.2408  0.4931
   41CHL1  H23A 3020   1.287   2.797   8.072 -0.2611 -0.3612  0.0467
   41CHL1  H23B 3021   1.224   2.924   7.971  0.7377 -1.6814 -2.3835
   41CHL1   C24 3022   1.095   2.879   8.134 -0.0785  0.3854  0.5412
   41CHL1  H24A 3023   1.015   2.941   8.089 -0.7028 -1.8123 -1.5506
   41CHL1  H24B 3024   1.057   2.785   8.179  0.1510 -1.7269 -3.3187
   41CHL1   C25 3025   1.158   2.967   8.243 -0.2060  0.5887  0.4588
   41CHL1   H25 3026   1.249   2.916   8.281  1.0255  2.5323  0.2258
   41CHL1   C26 3027   1.192   3.099   8.192  0.1329 -0.7613  0.1436
   41CHL1  H26A 3028   1.258   3.102   8.103  0.4265 -0.5736  0.3618
   41CHL1  H26B 3029   1.101   3.154   8.162 -1.2262 -2.3515  1.1833
   41CHL1  H26C 3030   1.251   3.162   8.263  2.8724 -0.9319 -1.8158
   41CHL1   C27 3031   1.064   2.967   8.367 -0.3183  0.1808  0.5721
   41CHL1  H27A 3032   1.092   3.044   8.442 -1.0475 -0.1594  1.2111
   41CHL1  H27B 3033   0.959   2.984   8.335 -0.4210 -0.9685  0.2306
   41CHL1  H27C 3034   1.079   2.869   8.418  2.4923 -0.2066 -0.7625
   42CHL1    C3 3035   2.541   6.177   6.851 -0.6300 -0.1280  1.0489
   42CHL1    H3 3036   2.469   6.257   6.877 -2.9882 -1.7209 -0.2133
   42CHL1    O3 3037   2.579   6.170   6.707 -0.6592 -0.6869 -0.2443
   42CHL1   H3' 3038   2.628   6.089   6.693 -0.5145 -0.6272 -0.0892
   42CHL1    C4 3039   2.669   6.188   6.943 -0.0207  0.4421  0.4653
   42CHL1   H4A 3040   2.749   6.114   6.920  0.3818  0.9208  0.2973
   42CHL1   H4B 3041   2.718   6.287   6.927  2.1312 -0.7403 -0.6910
   42CHL1    C5 3042   2.629   6.168   7.090  0.2287  0.3881 -1.0253
   42CHL1    C6 3043   2.657   6.264   7.182 -0.1470 -0.1563  0.2507
   42CHL1    H6 3044   2.705   6.356   7.145  0.3840 -0.0374  1.1978
   42CHL1    C7 3045   2.621   6.245   7.327  0.8971  0.0327  1.0468
   42CHL1   H7A 3046   2.684   6.310   7.392 -1.6868  2.6739  1.1123
   42CHL1   H7B 3047   2.520   6.290   7.332  1.2824  0.8420  1.7714
   42CHL1    C8 3048   2.606   6.107   7.375 -0.3535  1.0080 -0.2502
   42CHL1    H8 3049   2.710   6.069   7.367 -0.2365  1.0385  1.0238
   42CHL1   C14 3050   2.555   6.107   7.520 -0.3753 -0.4429  0.1400
   42CHL1   H14 3051   2.464   6.170   7.522  0.7069  1.1740  1.5025
   42CHL1   C15 3052   2.643   6.175   7.623  0.0782  0.0934  0.3180
   42CHL1  H15A 3053   2.742   6.127   7.615  0.2634  0.4338  0.5548
   42CHL1  H15B 3054   2.654   6.284   7.607  0.4335  0.0669  0.3795
   42CHL1   C16 3055   2.582   6.144   7.758  0.6112  0.2324 -0.5704
   42CHL1  H16A 3056   2.655   6.107   7.833  2.6344 -0.8257 -2.9161
   42CHL1  H16B 3057   2.525   6.232   7.793 -0.7759 -0.2663 -1.4767
   42CHL1   C17 3058   2.478   6.022   7.724  0.3047  0.0636 -0.7139
   42CHL1   H17 3059   2.374   6.059   7.708  0.5440  0.1390 -2.2555
   42CHL1   C13 3060   2.513   5.980   7.579 -0.2666  0.5716  0.8304
   42CHL1   C18 3061   2.636   5.893   7.579  1.0644 -0.3651 -0.5639
   42CHL1  H18A 3062   2.722   5.918   7.645  0.7331  1.3020 -0.7329
   42CHL1  H18B 3063   2.612   5.793   7.623 -0.1487  0.2056  0.1241
   42CHL1  H18C 3064   2.682   5.878   7.479  0.2082  2.5344 -1.4633
   42CHL1   C12 3065   2.415   5.913   7.486  0.1710  0.2812  0.7095
   42CHL1  H12A 3066   2.385   5.808   7.507 -0.7970 -0.3599 -3.1070
   42CHL1  H12B 3067   2.328   5.981   7.497  1.2084  1.9744 -0.9109
   42CHL1   C11 3068   2.445   5.908   7.336 -0.1337 -1.1023  0.1663
   42CHL1  H11A 3069   2.526   5.833   7.323  1.1659 -0.0172  1.6587
   42CHL1  H11B 3070   2.352   5.887   7.280 -1.0591  0.6055  0.9807
   42CHL1    C9 3071   2.505   6.040   7.283  0.0945  0.0579  0.2408
   42CHL1    H9 3072   2.416   6.105   7.275 -1.5585 -2.1356 -0.1348
   42CHL1   C10 3073   2.555   6.035   7.133 -0.2803 -0.3377 -0.1492
   42CHL1   C19 3074   2.661   5.927   7.109  0.0402  0.2535 -0.2082
   42CHL1  H19A 3075   2.743   5.948   7.180 -0.6306 -1.0827  1.0034
   42CHL1  H19B 3076   2.619   5.825   7.121  0.8449 -0.2173 -1.2388
   42CHL1  H19C 3077   2.698   5.927   7.004  3.1184 -2.0891  0.7306
   42CHL1    C1 3078   2.434   6.037   7.034  0.2890 -0.4514  0.0799
   42CHL1   H1A 3079   2.368   5.949   7.047  1.1716 -1.1269  0.0547
   42CHL1   H1B 3080   2.377   6.130   7.059  2.9145  1.7564 -1.5796
   42CHL1    C2 3081   2.467   6.050   6.887 -0.3257  0.1712  0.0038
   42CHL1   H2A 3082   2.375   6.044   6.825 -0.5569  1.1635  0.2469
   42CHL1   H2B 3083   2.532   5.961   6.870  0.7190  1.0986 -1.0081
   42CHL1   C20 3084   2.472   5.925   7.840 -0.3637  1.1441  0.3628
   42CHL1   H20 3085   2.575   5.893   7.866 -0.1316  1.6602  0.0926
   42CHL1   C21 3086   2.391   5.810   7.796 -0.6387 -0.2830  0.3691
   42CHL1  H21A 3087   2.284   5.841   7.790  0.0050  1.7719 -1.7482
   42CHL1  H21B 3088   2.409   5.737   7.879  2.3491 -0.7369 -0.5657
   42CHL1  H21C 3089   2.415   5.748   7.708 -1.6404 -0.0539 -0.0803
   42CHL1   C22 3090   2.413   5.991   7.966 -0.1703 -0.4895  0.4289
   42CHL1  H22A 3091   2.458   6.091   7.986  0.5923 -0.6191 -0.5799
   42CHL1  H22B 3092   2.304   6.011   7.953  0.1225  1.1727  0.2591
   42CHL1   C23 3093   2.425   5.929   8.103  0.0083  1.0692 -0.0564
   42CHL1  H23A 3094   2.356   5.842   8.103 -0.9047  1.7773  0.9289
   42CHL1  H23B 3095   2.520   5.871   8.105 -0.1783  0.6966 -1.1578
   42CHL1   C24 3096   2.400   6.018   8.220  0.6142 -0.6685  0.6182
   42CHL1  H24A 3097   2.469   6.104   8.230 -1.0419  0.9650 -1.1489
   42CHL1  H24B 3098   2.296   6.054   8.208  0.7060 -0.0838  1.5407
   42CHL1   C25 3099   2.409   5.943   8.351 -0.6351 -0.2414  0.1527
   42CHL1   H25 3100   2.320   5.878   8.362 -0.3640 -1.0533 -1.9603
   42CHL1   C26 3101   2.537   5.860   8.371 -0.2717 -0.3200  1.0394
   42CHL1  H26A 3102   2.539   5.821   8.475 -1.1321 -0.1025  1.1489
   42CHL1  H26B 3103   2.532   5.773   8.302 -0.9785 -0.5162  1.3235
   42CHL1  H26C 3104   2.625   5.924   8.347 -1.7137  1.0903 -0.8561
   42CHL1   C27 3105   2.397   6.041   8.470 -0.4530  0.2437  0.1216
   42CHL1  H27A 3106   2.494   6.095   8.475 -0.8687  1.2056 -1.6128
   42CHL1  H27B 3107   2.382   5.984   8.565 -0.1335  0.7922  0.5101
   42CHL1  H27C 3108   2.317   6.119   8.467 -0.8064 -0.0975  0.5043
   43CHL1    C3 3109   2.388   2.877   6.861 -0.7255 -0.9094  0.5634
   43CHL1    H3 3110   2.294   2.900   6.917  1.3461 -0.5721  4.1981
   43CHL1    O3 3111   2.363   2.919   6.727 -0.1760 -0.2767 -0.2102
   43CHL1   H3' 3112   2.432   2.877   6.675 -0.6427 -0.4361 -0.7115
   43CHL1    C4 3113   2.526   2.938   6.897 -0.3670  0.2325  0.0103
   43CHL1   H4A 3114   2.605   2.907   6.825  0.0858 -1.1729  1.0687
   43CHL1   H4B 3115   2.519   3.049   6.897  0.5946  0.2994 -0.7990
   43CHL1    C5 3116   2.572   2.904   7.038 -0.4188 -0.1203 -0.5630
   43CHL1    C6 3117   2.588   2.996   7.133  0.4305  0.0143  0.7541
   43CHL1    H6 3118   2.589   3.104   7.112  1.6196 -0.4258 -1.8934
   43CHL1    C7 3119   2.626   2.962   7.273  0.8557 -0.5117 -0.0347
   43CHL1   H7A 3120   2.691   3.038   7.323  3.8475 -2.9939  0.1453
   43CHL1   H7B 3121   2.525   2.961   7.320  0.0759  0.9859 -1.5674
   43CHL1    C8 3122   2.697   2.827   7.286 -0.4468  0.9976 -0.3742
   43CHL1    H8 3123   2.801   2.829   7.246 -0.4895 -0.7340 -0.6387
   43CHL1   C14 3124   2.716   2.790   7.429  0.0294  0.1342 -0.3254
   43CHL1   H14 3125   2.612   2.783   7.467 -0.5257  1.6081 -1.4675
   43CHL1   C15 3126   2.791   2.889   7.523 -0.2428 -1.1188 -0.0841
   43CHL1  H15A 3127   2.883   2.903   7.461 -1.3496  1.0575 -1.3573
   43CHL1  H15B 3128   2.747   2.987   7.549  1.3208 -0.0138 -1.3764
   43CHL1   C16 3129   2.803   2.817   7.655 -0.0624 -0.5225  0.2242
   43CHL1  H16A 3130   2.900   2.839   7.705 -1.3457  1.2324  2.1221
   43CHL1  H16B 3131   2.724   2.847   7.728 -0.3447  0.3904 -0.4339
   43CHL1   C17 3132   2.787   2.667   7.613 -0.2597  0.0670  0.0150
   43CHL1   H17 3133   2.683   2.639   7.643 -0.1833 -1.0993 -0.7348
   43CHL1   C13 3134   2.783   2.655   7.457 -0.2397  0.3069 -0.2829
   43CHL1   C18 3135   2.935   2.647   7.413 -0.0411  0.4810 -0.5610
   43CHL1  H18A 3136   2.960   2.699   7.318 -0.6525  1.1445 -0.3729
   43CHL1  H18B 3137   2.987   2.690   7.501 -0.7027 -1.3949  0.8108
   43CHL1  H18C 3138   2.962   2.541   7.393 -1.5544 -0.4090  1.7084
   43CHL1   C12 3139   2.706   2.541   7.380  0.1954  0.2087 -1.0572
   43CHL1  H12A 3140   2.757   2.443   7.382  2.3073  1.2487 -1.1349
   43CHL1  H12B 3141   2.613   2.533   7.440  0.3446 -0.2679 -0.8828
   43CHL1   C11 3142   2.684   2.581   7.235  0.3877 -0.0749 -0.2722
   43CHL1  H11A 3143   2.788   2.586   7.197 -0.2433 -2.1998 -2.5797
   43CHL1  H11B 3144   2.623   2.504   7.182 -2.3819  1.1869  0.8807
   43CHL1    C9 3145   2.612   2.717   7.216  0.1366  0.5219  0.6102
   43CHL1    H9 3146   2.517   2.709   7.273 -1.2654  1.4499 -1.4739
   43CHL1   C10 3147   2.581   2.751   7.068 -0.0443 -0.1954 -0.0509
   43CHL1   C19 3148   2.688   2.684   6.984 -0.0287  0.1737  0.1343
   43CHL1  H19A 3149   2.694   2.729   6.883  2.0982  2.1162  1.0327
   43CHL1  H19B 3150   2.792   2.689   7.022  0.1262 -0.9388 -0.1167
   43CHL1  H19C 3151   2.670   2.578   6.956 -2.6454  0.8007 -0.8689
   43CHL1    C1 3152   2.448   2.686   7.014  0.7014  0.5402  0.6024
   43CHL1   H1A 3153   2.459   2.576   7.016 -1.2235  0.3077  0.8244
   43CHL1   H1B 3154   2.376   2.710   7.096  1.0556  1.4587  0.6651
   43CHL1    C2 3155   2.401   2.727   6.869 -0.2863  0.5761 -0.2800
   43CHL1   H2A 3156   2.296   2.692   6.859  0.6411 -1.9933 -1.9649
   43CHL1   H2B 3157   2.458   2.682   6.786 -1.0174 -0.5929 -0.1852
   43CHL1   C20 3158   2.869   2.561   7.700 -0.3224 -0.8035  0.7820
   43CHL1   H20 3159   2.977   2.573   7.676 -0.5134 -1.4700 -0.4867
   43CHL1   C21 3160   2.824   2.417   7.670  0.2229  0.0425 -0.4380
   43CHL1  H21A 3161   2.719   2.401   7.702  0.4512  1.7797  1.3744
   43CHL1  H21B 3162   2.889   2.349   7.729 -0.7132  1.3718  2.2712
   43CHL1  H21C 3163   2.824   2.403   7.559 -1.5849  2.1611 -0.7840
   43CHL1   C22 3164   2.851   2.585   7.850 -0.1653  0.2066 -0.5150
   43CHL1  H22A 3165   2.892   2.500   7.909 -0.8961  1.9797  2.7557
   43CHL1  H22B 3166   2.905   2.678   7.878 -0.4139  1.0756 -2.7351
   43CHL1   C23 3167   2.708   2.604   7.906  0.4063 -0.2286 -0.7840
   43CHL1  H23A 3168   2.672   2.698   7.860  2.3996  1.2995  0.6085
   43CHL1  H23B 3169   2.639   2.523   7.875 -0.8487  0.9906 -1.2605
   43CHL1   C24 3170   2.706   2.612   8.063 -0.2183 -0.1633  0.4639
   43CHL1  H24A 3171   2.750   2.513   8.089  1.2431 -0.3013 -2.1736
   43CHL1  H24B 3172   2.777   2.690   8.098 -0.5886 -0.2437  1.4307
   43CHL1   C25 3173   2.566   2.638   8.125  0.0568  0.7894  0.1396
   43CHL1   H25 3174   2.574   2.650   8.235 -1.9231 -1.0047  0.5505
   43CHL1   C26 3175   2.488   2.759   8.064  0.3580  0.0547 -0.5278
   43CHL1  H26A 3176   2.390   2.776   8.114 -0.7310  1.4797 -2.9371
   43CHL1  H26B 3177   2.545   2.852   8.080 -1.2868  0.8715  0.9104
   43CHL1  H26C 3178   2.460   2.736   7.959  0.2543 -1.6045 -0.1765
   43CHL1   C27 3179   2.482   2.504   8.104  0.3844  0.1102 -0.0971
   43CHL1  H27A 3180   2.458   2.466   8.002  0.6130  1.2920 -0.6175
   43CHL1  H27B 3181   2.531   2.418   8.153  3.0731  1.4254 -0.3064
   43CHL1  H27C 3182   2.382   2.513   8.152  0.0065  2.0851 -1.1199
   44CHL1    C3 3183   1.395   5.650   6.958  0.4464  0.0758 -0.0512
   44CHL1    H3 3184   1.328   5.565   6.980  0.3033  0.8434  2.8940
   44CHL1    O3 3185   1.392   5.674   6.820 -0.2231 -0.6522  0.1813
   44CHL1   H3' 3186   1.483   5.686   6.790 -0.1510 -1.8555 -0.1534
   44CHL1    C4 3187   1.333   5.775   7.030  0.2465 -0.4549  0.3069
   44CHL1   H4A 3188   1.372   5.873   6.996 -2.3668  0.5605 -0.0320
   44CHL1   H4B 3189   1.225   5.765   7.003  0.2204  0.6567 -0.0350
   44CHL1    C5 3190   1.351   5.764   7.175  0.6787 -0.0508 -0.3277
   44CHL1    C6 3191   1.246   5.770   7.252 -0.0372  0.5332 -0.4366
   44CHL1    H6 3192   1.145   5.783   7.210 -0.9269 -0.0287  1.4177
   44CHL1    C7 3193   1.247   5.757   7.403 -0.2165  0.1460  0.0530
   44CHL1   H7A 3194   1.174   5.830   7.444 -1.5031 -0.7826 -0.5221
   44CHL1   H7B 3195   1.206   5.660   7.438 -1.1326  0.2630 -0.6799
   44CHL1    C8 3196   1.392   5.783   7.459 -0.4828  0.1638 -0.0052
   44CHL1    H8 3197   1.395   5.893   7.450  2.1603  0.1850  0.4221
   44CHL1   C14 3198   1.398   5.748   7.607  0.5436 -0.0487 -0.5474
   44CHL1   H14 3199   1.378   5.639   7.617 -3.5455  0.7090  1.3049
   44CHL1   C15 3200   1.296   5.823   7.688  0.3928 -0.0080  0.5728
   44CHL1  H15A 3201   1.285   5.932   7.671 -0.2494 -0.0857  0.4298
   44CHL1  H15B 3202   1.193   5.784   7.674 -0.0292  0.4709  2.1595
   44CHL1   C16 3203   1.338   5.782   7.832 -0.1040 -0.4118  0.4014
   44CHL1  H16A 3204   1.341   5.873   7.897 -0.1359 -0.2578  0.1891
   44CHL1  H16B 3205   1.269   5.706   7.875 -0.3908 -0.9461 -0.9544
   44CHL1   C17 3206   1.490   5.731   7.819  0.2023  0.5616  0.6773
   44CHL1   H17 3207   1.476   5.621   7.826 -0.1636  0.4591 -1.2127
   44CHL1   C13 3208   1.530   5.772   7.679  0.7129  0.5999  0.7570
   44CHL1   C18 3209   1.569   5.923   7.665  0.2375 -0.1717 -0.2553
   44CHL1  H18A 3210   1.489   5.974   7.722  0.2316  1.3261 -1.5178
   44CHL1  H18B 3211   1.657   5.952   7.727  0.4719 -1.6641  0.1476
   44CHL1  H18C 3212   1.578   5.953   7.558  2.0059 -1.3524 -0.5009
   44CHL1   C12 3213   1.634   5.684   7.599 -0.7681 -0.1622  1.4924
   44CHL1  H12A 3214   1.735   5.688   7.645  0.3678 -0.3981 -0.8525
   44CHL1  H12B 3215   1.609   5.576   7.611 -1.2382 -0.2599 -0.0663
   44CHL1   C11 3216   1.639   5.714   7.450  0.5034  0.1741 -0.7359
   44CHL1  H11A 3217   1.673   5.819   7.443  0.1280  0.4882  1.4018
   44CHL1  H11B 3218   1.716   5.656   7.394  0.1430 -2.7824  1.5887
   44CHL1    C9 3219   1.500   5.708   7.377  0.0191  1.0587 -0.4711
   44CHL1    H9 3220   1.470   5.601   7.386  2.0416  0.6079  2.4688
   44CHL1   C10 3221   1.495   5.738   7.226 -0.2590 -0.6566 -0.3935
   44CHL1   C19 3222   1.592   5.856   7.198 -0.0885  0.3176 -0.3426
   44CHL1  H19A 3223   1.579   5.899   7.097 -1.2128 -3.6618 -2.1083
   44CHL1  H19B 3224   1.566   5.945   7.259 -0.1324 -1.0028  1.6711
   44CHL1  H19C 3225   1.699   5.830   7.215 -0.1402  0.6765  0.5985
   44CHL1    C1 3226   1.552   5.607   7.150 -0.3067 -0.3324 -0.2173
   44CHL1   H1A 3227   1.656   5.581   7.180 -0.7764 -0.2223  1.5954
   44CHL1   H1B 3228   1.486   5.522   7.179 -1.2264  0.7193  0.9072
   44CHL1    C2 3229   1.538   5.616   6.997 -0.1827  0.4205 -0.6102
   44CHL1   H2A 3230   1.565   5.515   6.958  2.1449 -0.3584  2.5554
   44CHL1   H2B 3231   1.614   5.694   6.976 -0.4710  1.7163  2.5738
   44CHL1   C20 3232   1.580   5.777   7.930 -0.3051 -1.4829 -0.2075
   44CHL1   H20 3233   1.588   5.887   7.941  1.7263 -1.5946 -0.0215
   44CHL1   C21 3234   1.725   5.735   7.899  0.8200 -0.6407  0.4459
   44CHL1  H21A 3235   1.768   5.806   7.825  1.1560 -0.4249  0.8456
   44CHL1  H21B 3236   1.737   5.630   7.864 -0.8390 -0.4781 -0.7035
   44CHL1  H21C 3237   1.800   5.752   7.979  1.3142 -0.8835  0.0442
   44CHL1   C22 3238   1.548   5.724   8.068  0.7873 -0.0017 -0.1818
   44CHL1  H22A 3239   1.437   5.714   8.077  0.9162  0.0253  1.8352
   44CHL1  H22B 3240   1.595   5.623   8.071 -1.4136 -1.1612 -1.5901
   44CHL1   C23 3241   1.612   5.794   8.189  0.5758 -0.1525  0.1182
   44CHL1  H23A 3242   1.721   5.780   8.200  1.1406  0.6030 -3.3134
   44CHL1  H23B 3243   1.579   5.900   8.204  0.3824 -0.4315  1.9373
   44CHL1   C24 3244   1.561   5.721   8.316  0.4588  0.5210  0.1743
   44CHL1  H24A 3245   1.459   5.764   8.326 -0.0787  0.0081 -2.4159
   44CHL1  H24B 3246   1.550   5.615   8.284  1.1176  0.5743 -0.2447
   44CHL1   C25 3247   1.639   5.738   8.451  0.0150  0.1755  0.1541
   44CHL1   H25 3248   1.749   5.731   8.437  0.1062  1.8189 -0.1602
   44CHL1   C26 3249   1.604   5.873   8.516 -0.6712 -0.0186 -0.2252
   44CHL1  H26A 3250   1.639   5.863   8.621 -1.3126 -1.7611 -0.1478
   44CHL1  H26B 3251   1.651   5.959   8.465  0.4242 -0.5079 -0.0652
   44CHL1  H26C 3252   1.494   5.883   8.509 -0.7474  0.2363  1.0438
   44CHL1   C27 3253   1.609   5.623   8.557  0.8697  0.0819 -0.1195
   44CHL1  H27A 3254   1.687   5.614   8.635  2.9197  1.0283 -1.9606
   44CHL1  H27B 3255   1.516   5.653   8.610  0.7581 -0.3723 -0.0512
   44CHL1  H27C 3256   1.579   5.535   8.496 -1.6696  1.4743 -1.0594
   45CHL1    C3 3257   5.298   0.353   7.091  0.0768 -0.8287  0.3355
   45CHL1    H3 3258   5.401   0.382   7.120  0.3130 -1.3272  0.0176
   45CHL1    O3 3259   5.284   0.366   6.950 -0.3837 -0.4601  0.7742
   45CHL1   H3' 3260   5.243   0.286   6.917 -0.0873 -0.0916 -0.5162
   45CHL1    C4 3261   5.278   0.206   7.138 -0.6862  0.7465  0.2853
   45CHL1   H4A 3262   5.177   0.168   7.110  0.6092 -2.0620 -0.8519
   45CHL1   H4B 3263   5.349   0.145   7.079 -1.6385 -0.3916  0.2820
   45CHL1    C5 3264   5.300   0.212   7.287 -0.2654 -0.0391  0.8824
   45CHL1    C6 3265   5.385   0.121   7.337  1.2463 -0.3195  0.8359
   45CHL1    H6 3266   5.439   0.053   7.269  0.2851  0.0073 -0.3075
   45CHL1    C7 3267   5.397   0.105   7.490 -0.2032 -0.0440  0.2717
   45CHL1   H7A 3268   5.373  -0.000   7.513 -0.6168  0.0960  0.4829
   45CHL1   H7B 3269   5.504   0.118   7.516  0.0623 -1.1400 -0.2126
   45CHL1    C8 3270   5.309   0.195   7.587  0.2407  0.8318  0.0372
   45CHL1    H8 3271   5.215   0.137   7.602  1.3501 -1.4815 -1.3950
   45CHL1   C14 3272   5.374   0.226   7.715  0.3362 -0.3814 -0.1368
   45CHL1   H14 3273   5.467   0.282   7.690  0.6505 -0.4513  0.8414
   45CHL1   C15 3274   5.440   0.106   7.784  0.0041  0.1594  0.3666
   45CHL1  H15A 3275   5.368   0.022   7.779  1.3301 -0.9610 -2.9219
   45CHL1  H15B 3276   5.532   0.071   7.731  1.1509 -2.1058  3.5763
   45CHL1   C16 3277   5.457   0.164   7.922 -0.7567 -0.6011 -0.0940
   45CHL1  H16A 3278   5.424   0.105   8.010 -0.0025 -2.6813 -1.1208
   45CHL1  H16B 3279   5.563   0.183   7.951 -0.5783 -0.9177 -0.5289
   45CHL1   C17 3280   5.387   0.309   7.927 -0.5520  0.6686 -1.1791
   45CHL1   H17 3281   5.477   0.371   7.906  1.5603 -1.9394 -0.4078
   45CHL1   C13 3282   5.291   0.313   7.804 -0.2286  0.2118 -1.2521
   45CHL1   C18 3283   5.167   0.239   7.846 -0.3724  0.1014 -0.1610
   45CHL1  H18A 3284   5.093   0.229   7.764  0.3300 -0.8642 -0.7127
   45CHL1  H18B 3285   5.204   0.140   7.882  0.6876  0.2122 -0.8912
   45CHL1  H18C 3286   5.121   0.298   7.928  0.1830  1.0646 -0.5192
   45CHL1   C12 3287   5.266   0.443   7.736 -0.7974 -0.7608  0.2931
   45CHL1  H12A 3288   5.212   0.512   7.804 -0.3584 -0.6130  0.4951
   45CHL1  H12B 3289   5.366   0.489   7.721 -1.3198  0.0044 -1.0406
   45CHL1   C11 3290   5.202   0.422   7.601 -0.2522  0.2961  0.1429
   45CHL1  H11A 3291   5.100   0.378   7.610 -0.3703 -0.1887 -2.6889
   45CHL1  H11B 3292   5.195   0.516   7.543  1.9757  0.8954  0.7702
   45CHL1    C9 3293   5.281   0.322   7.514  0.0832 -0.0923 -0.2139
   45CHL1    H9 3294   5.385   0.360   7.502  0.6505 -1.5039  0.0288
   45CHL1   C10 3295   5.219   0.306   7.373  0.8827 -1.2435  0.3504
   45CHL1   C19 3296   5.076   0.244   7.380  0.1441  0.7363  0.4277
   45CHL1  H19A 3297   5.034   0.195   7.290 -0.8687  0.3454  1.0915
   45CHL1  H19B 3298   5.073   0.164   7.458 -0.6294  1.2613  0.9455
   45CHL1  H19C 3299   5.007   0.320   7.421  0.5452 -0.0971  2.8018
   45CHL1    C1 3300   5.204   0.447   7.305  0.5853  0.1535  0.9426
   45CHL1   H1A 3301   5.122   0.503   7.355 -1.8406 -1.8989 -0.5391
   45CHL1   H1B 3302   5.298   0.503   7.326 -0.0841  2.2483 -1.1863
   45CHL1    C2 3303   5.200   0.447   7.156 -0.1298  0.0302 -0.1658
   45CHL1   H2A 3304   5.210   0.546   7.108  3.1049 -0.5725 -0.9299
   45CHL1   H2B 3305   5.101   0.406   7.124  0.7076 -2.8385  0.5738
   45CHL1   C20 3306   5.346   0.361   8.071  0.0648 -0.1060  0.2750
   45CHL1   H20 3307   5.277   0.287   8.116  1.4487 -1.9990 -0.5809
   45CHL1   C21 3308   5.280   0.501   8.060 -0.0859  0.7596  0.1538
   45CHL1  H21A 3309   5.356   0.562   8.006  1.2317 -1.8071 -1.0621
   45CHL1  H21B 3310   5.258   0.538   8.162  0.0064  0.1963  0.3809
   45CHL1  H21C 3311   5.185   0.492   8.003 -0.3475 -1.2564  0.8219
   45CHL1   C22 3312   5.474   0.357   8.171  0.0324 -0.7994  0.3293
   45CHL1  H22A 3313   5.504   0.251   8.168  0.4411 -0.6780  0.0584
   45CHL1  H22B 3314   5.565   0.404   8.128 -1.1678  0.9940 -0.3869
   45CHL1   C23 3315   5.453   0.410   8.318  0.0442 -0.1267  0.1515
   45CHL1  H23A 3316   5.554   0.400   8.365  0.8141  1.0256 -1.1754
   45CHL1  H23B 3317   5.408   0.511   8.305 -1.5341 -0.9921 -1.4792
   45CHL1   C24 3318   5.357   0.326   8.402  0.6286 -0.0891  0.2676
   45CHL1  H24A 3319   5.256   0.310   8.360  0.3246  0.0471  0.9456
   45CHL1  H24B 3320   5.396   0.222   8.403  1.1919  0.1185  0.3057
   45CHL1   C25 3321   5.344   0.377   8.552 -0.5572 -0.2382 -0.3544
   45CHL1   H25 3322   5.445   0.411   8.583 -0.4159  2.2534 -3.1440
   45CHL1   C26 3323   5.271   0.508   8.563 -0.1528 -0.1001  0.8735
   45CHL1  H26A 3324   5.173   0.498   8.510 -0.0974  0.0584  0.7389
   45CHL1  H26B 3325   5.253   0.536   8.669  1.1399 -1.5048  1.4953
   45CHL1  H26C 3326   5.312   0.591   8.502 -0.6954  0.4369  1.2227
   45CHL1   C27 3327   5.281   0.278   8.655 -0.2534 -0.1939 -0.5559
   45CHL1  H27A 3328   5.310   0.312   8.757 -0.2175 -0.2570 -0.5448
   45CHL1  H27B 3329   5.171   0.261   8.646  0.1501 -1.9253 -4.0828
   45CHL1  H27C 3330   5.330   0.178   8.652  0.0006 -0.1328 -5.0286
   46CHL1    C3 3331   4.189   0.578   6.982  0.0294 -0.5470  0.1817
   46CHL1    H3 3332   4.154   0.474   6.998  0.6787 -0.5619  1.7130
   46CHL1    O3 3333   4.183   0.622   6.848 -0.8004 -0.0505 -0.0320
   46CHL1   H3' 3334   4.205   0.715   6.854  1.6700 -0.5751  0.3261
   46CHL1    C4 3335   4.116   0.691   7.061 -0.2876  0.0072 -0.3586
   46CHL1   H4A 3336   4.180   0.782   7.060 -1.1473  0.6162 -0.3005
   46CHL1   H4B 3337   4.017   0.714   7.019  0.2079  2.0887 -0.4798
   46CHL1    C5 3338   4.116   0.648   7.207 -1.0452 -0.4652 -0.4141
   46CHL1    C6 3339   4.001   0.642   7.273  0.2812 -1.1872 -0.5610
   46CHL1    H6 3340   3.906   0.678   7.232 -1.0381 -3.3622  0.3628
   46CHL1    C7 3341   3.992   0.609   7.424 -0.2262  0.3185 -0.1607
   46CHL1   H7A 3342   3.916   0.678   7.468  0.9818  2.4014 -1.2061
   46CHL1   H7B 3343   3.955   0.505   7.431  0.8173 -0.0335  0.3081
   46CHL1    C8 3344   4.124   0.623   7.495 -0.4112 -0.1260  0.2705
   46CHL1    H8 3345   4.147   0.731   7.506 -3.3641  0.6324 -0.1053
   46CHL1   C14 3346   4.115   0.548   7.630 -0.2334 -0.2375 -0.7726
   46CHL1   H14 3347   4.102   0.440   7.604  2.4504 -0.7952 -0.0860
   46CHL1   C15 3348   3.990   0.574   7.723 -0.2640  0.1522 -0.3212
   46CHL1  H15A 3349   3.962   0.681   7.725 -0.2607  0.1468  1.0348
   46CHL1  H15B 3350   3.901   0.510   7.707 -0.2299 -0.3580  1.3389
   46CHL1   C16 3351   4.051   0.544   7.867 -0.0819  0.2826 -0.0067
   46CHL1  H16A 3352   4.061   0.640   7.923 -0.8755  0.5119 -0.2457
   46CHL1  H16B 3353   3.978   0.476   7.916 -0.4793 -0.1849 -1.2085
   46CHL1   C17 3354   4.189   0.480   7.844 -0.1993  0.0487 -0.1152
   46CHL1   H17 3355   4.175   0.375   7.809  2.0235  0.1493 -1.4472
   46CHL1   C13 3356   4.240   0.549   7.718 -0.8593  0.6503  0.5864
   46CHL1   C18 3357   4.276   0.697   7.742 -0.1331  0.0554 -0.4215
   46CHL1  H18A 3358   4.204   0.752   7.806  0.1754 -2.3393  2.2020
   46CHL1  H18B 3359   4.374   0.698   7.794  0.4094 -1.0090 -1.3619
   46CHL1  H18C 3360   4.288   0.751   7.645 -1.7117  0.4384 -0.4300
   46CHL1   C12 3361   4.350   0.480   7.625 -0.1874 -0.3250 -0.5567
   46CHL1  H12A 3362   4.449   0.479   7.675 -0.0576 -0.4820 -0.8162
   46CHL1  H12B 3363   4.309   0.379   7.604 -0.0737 -0.7025  0.9066
   46CHL1   C11 3364   4.374   0.546   7.491  0.1646 -0.3264 -0.4398
   46CHL1  H11A 3365   4.412   0.645   7.525 -1.3752 -0.1735  0.9768
   46CHL1  H11B 3366   4.443   0.500   7.417 -1.0124 -3.3897  0.2265
   46CHL1    C9 3367   4.239   0.561   7.408 -0.0209 -0.4587 -0.5702
   46CHL1    H9 3368   4.208   0.455   7.405  1.7779 -1.0937  1.0261
   46CHL1   C10 3369   4.257   0.617   7.262 -0.0800  0.3396 -0.2787
   46CHL1   C19 3370   4.331   0.744   7.285 -0.1951 -1.3287  0.1248
   46CHL1  H19A 3371   4.438   0.715   7.293 -0.1265 -2.0889 -2.5134
   46CHL1  H19B 3372   4.330   0.811   7.196 -2.0840 -0.3457  0.8252
   46CHL1  H19C 3373   4.284   0.802   7.367 -1.2220 -1.8767 -0.0565
   46CHL1    C1 3374   4.340   0.519   7.176  0.0076 -0.5957 -0.1567
   46CHL1   H1A 3375   4.447   0.503   7.205 -0.1540 -1.0339  0.2014
   46CHL1   H1B 3376   4.289   0.421   7.182  1.7850 -1.5246  0.6559
   46CHL1    C2 3377   4.333   0.558   7.026  0.4158  0.1953  0.1036
   46CHL1   H2A 3378   4.384   0.482   6.962  2.0604 -0.3266  1.9235
   46CHL1   H2B 3379   4.393   0.649   7.005  1.9193 -0.2366  2.2185
   46CHL1   C20 3380   4.275   0.481   7.968 -0.0426 -0.2585  0.4530
   46CHL1   H20 3381   4.298   0.584   8.004 -0.7405 -0.6574  2.1179
   46CHL1   C21 3382   4.402   0.400   7.946  0.0883 -0.0723 -0.1103
   46CHL1  H21A 3383   4.464   0.418   8.037 -0.8618 -0.7345  0.6899
   46CHL1  H21B 3384   4.470   0.432   7.865  1.4813  0.6834  1.3023
   46CHL1  H21C 3385   4.374   0.293   7.935 -1.3226  0.2579 -0.0236
   46CHL1   C22 3386   4.194   0.416   8.092 -0.8672  0.1486  0.0638
   46CHL1  H22A 3387   4.133   0.338   8.042  1.9067 -1.8620 -0.4535
   46CHL1  H22B 3388   4.267   0.356   8.151 -1.2171 -1.2319 -0.8433
   46CHL1   C23 3389   4.117   0.516   8.183  0.4483  0.1678 -0.0895
   46CHL1  H23A 3390   4.189   0.592   8.218  1.2003 -1.5482  2.3550
   46CHL1  H23B 3391   4.038   0.561   8.119 -0.0661 -0.1440  0.3223
   46CHL1   C24 3392   4.055   0.439   8.304 -0.4077  0.7753  1.1380
   46CHL1  H24A 3393   3.977   0.373   8.259  0.5295  0.8523 -0.6835
   46CHL1  H24B 3394   4.133   0.379   8.354  0.4550  1.3008  0.4496
   46CHL1   C25 3395   4.004   0.534   8.406  0.6588 -0.3506 -0.4012
   46CHL1   H25 3396   3.945   0.615   8.358 -0.4970 -0.5390  0.6313
   46CHL1   C26 3397   3.902   0.460   8.501  0.2220 -0.7227 -0.0943
   46CHL1  H26A 3398   3.844   0.530   8.565  1.9873  0.4463  0.2904
   46CHL1  H26B 3399   3.835   0.395   8.439  1.5434 -0.8114 -1.4984
   46CHL1  H26C 3400   3.966   0.394   8.564 -1.5044 -2.2947  0.1014
   46CHL1   C27 3401   4.109   0.604   8.497  0.5998  0.5069  0.2489
   46CHL1  H27A 3402   4.183   0.525   8.522  0.6509  0.3137 -0.4758
   46CHL1  H27B 3403   4.148   0.694   8.444  1.8743 -0.8321 -1.1736
   46CHL1  H27C 3404   4.070   0.637   8.595 -0.5352 -1.0817  0.3686
   47CHL1    C3 3405   1.791   2.686   6.701 -0.3103 -0.1679 -0.2736
   47CHL1    H3 3406   1.705   2.756   6.714 -0.0524  0.0767  0.1387
   47CHL1    O3 3407   1.828   2.669   6.571 -0.3805  0.0088  0.3481
   47CHL1   H3' 3408   1.908   2.616   6.563 -0.0176  0.7243 -1.2441
   47CHL1    C4 3409   1.912   2.753   6.764 -0.6923  0.1777  0.0811
   47CHL1   H4A 3410   2.001   2.689   6.745 -0.4809  0.3074  0.6151
   47CHL1   H4B 3411   1.921   2.850   6.711  2.9860  0.8717  1.6610
   47CHL1    C5 3412   1.895   2.770   6.915  0.1935 -0.0902 -0.1557
   47CHL1    C6 3413   1.912   2.894   6.968 -0.4841 -0.3114  0.4332
   47CHL1    H6 3414   1.919   2.979   6.898 -1.7799 -0.3372  0.2478
   47CHL1    C7 3415   1.908   2.916   7.119  0.3573  0.5873 -0.0627
   47CHL1   H7A 3416   1.982   2.986   7.164  1.2175  1.3440 -2.4424
   47CHL1   H7B 3417   1.816   2.972   7.144  1.1743  1.2475  1.6388
   47CHL1    C8 3418   1.908   2.783   7.205  0.0797  0.8370  0.5402
   47CHL1    H8 3419   2.016   2.756   7.204  0.2610  1.4281 -1.3081
   47CHL1   C14 3420   1.863   2.807   7.347  0.4359  0.0938  0.6263
   47CHL1   H14 3421   1.759   2.844   7.334  0.6211  0.2632 -0.4279
   47CHL1   C15 3422   1.942   2.909   7.423  0.1076  0.4300 -0.2025
   47CHL1  H15A 3423   2.051   2.905   7.402 -0.2173  1.0191 -2.2977
   47CHL1  H15B 3424   1.907   3.012   7.401 -2.1655  0.5074  3.0623
   47CHL1   C16 3425   1.916   2.875   7.574 -0.0189 -0.7138 -0.1621
   47CHL1  H16A 3426   2.015   2.856   7.621  0.2513  0.3474 -0.2847
   47CHL1  H16B 3427   1.858   2.951   7.630  1.0194 -1.2702  1.7341
   47CHL1   C17 3428   1.831   2.749   7.581  0.3138  0.4975  0.3669
   47CHL1   H17 3429   1.726   2.786   7.573 -0.2521 -0.1738  3.3772
   47CHL1   C13 3430   1.855   2.686   7.439 -0.0866  0.7718 -0.0078
   47CHL1   C18 3431   1.995   2.618   7.449  0.3746  0.0550 -0.2659
   47CHL1  H18A 3432   1.977   2.522   7.503  1.4141 -0.2094 -0.3615
   47CHL1  H18B 3433   2.035   2.596   7.348  1.3858  1.0083 -0.0870
   47CHL1  H18C 3434   2.072   2.673   7.508  1.0632 -0.3488 -0.7683
   47CHL1   C12 3435   1.746   2.592   7.374  0.1528  0.4095  0.7253
   47CHL1  H12A 3436   1.744   2.500   7.436 -1.3271  1.0495  1.6918
   47CHL1  H12B 3437   1.644   2.636   7.372  0.1492  0.5240 -2.8533
   47CHL1   C11 3438   1.796   2.550   7.232 -0.0345  0.2039  1.1026
   47CHL1  H11A 3439   1.879   2.478   7.241 -0.3545 -0.6968 -1.9044
   47CHL1  H11B 3440   1.718   2.487   7.183  0.3334  1.0195 -0.5989
   47CHL1    C9 3441   1.817   2.679   7.142 -0.4818  0.1649  0.3619
   47CHL1    H9 3442   1.718   2.727   7.127 -1.6451 -2.5139 -1.2746
   47CHL1   C10 3443   1.852   2.645   6.996 -0.4233  0.8910  1.1262
   47CHL1   C19 3444   1.969   2.549   6.983  0.3140  0.7949  0.0179
   47CHL1  H19A 3445   1.931   2.450   7.017 -1.1807  0.8404 -1.4073
   47CHL1  H19B 3446   2.014   2.529   6.883 -1.4468 -0.9782 -0.4946
   47CHL1  H19C 3447   2.048   2.583   7.052 -0.6550  0.3636  1.3845
   47CHL1    C1 3448   1.735   2.580   6.918  0.1535  0.3564  0.2223
   47CHL1   H1A 3449   1.718   2.482   6.967  2.4229 -1.0583 -1.6171
   47CHL1   H1B 3450   1.639   2.636   6.924 -0.4102 -0.4075 -1.1148
   47CHL1    C2 3451   1.761   2.552   6.772  0.6744 -0.1726  0.3822
   47CHL1   H2A 3452   1.673   2.510   6.718 -0.1491  3.2637 -1.2022
   47CHL1   H2B 3453   1.859   2.500   6.761  1.9169  1.9592  0.9349
   47CHL1   C20 3454   1.839   2.656   7.699 -0.3135 -0.4618 -0.0605
   47CHL1   H20 3455   1.940   2.609   7.705  0.5103  1.2166 -0.1691
   47CHL1   C21 3456   1.738   2.548   7.695  0.1345 -0.1833  0.4577
   47CHL1  H21A 3457   1.782   2.463   7.639 -0.1005  0.9866 -1.5926
   47CHL1  H21B 3458   1.648   2.575   7.636  0.9132 -1.1768 -1.2587
   47CHL1  H21C 3459   1.707   2.518   7.798  0.8714 -0.1636  0.6949
   47CHL1   C22 3460   1.824   2.726   7.832  0.2438 -0.1162 -0.4584
   47CHL1  H22A 3461   1.799   2.833   7.814  0.3824 -0.2386 -1.3764
   47CHL1  H22B 3462   1.744   2.682   7.897 -0.7447  0.0757 -1.5140
   47CHL1   C23 3463   1.951   2.741   7.921 -0.2953 -0.1473  0.3518
   47CHL1  H23A 3464   1.986   2.654   7.981 -2.5272 -0.8703  0.7135
   47CHL1  H23B 3465   2.031   2.784   7.857 -0.1076  1.4595  1.6023
   47CHL1   C24 3466   1.937   2.853   8.034 -0.3046  0.2543  0.3518
   47CHL1  H24A 3467   1.901   2.949   7.992  0.1578  0.5229  0.5634
   47CHL1  H24B 3468   1.869   2.816   8.114 -1.5914  1.7841  0.0228
   47CHL1   C25 3469   2.070   2.888   8.103 -0.2609  0.1950 -0.4704
   47CHL1   H25 3470   2.132   2.796   8.108 -1.4064 -0.5721  0.0814
   47CHL1   C26 3471   2.148   2.993   8.019  0.6415 -0.2671  0.1048
   47CHL1  H26A 3472   2.138   2.964   7.912  0.0016  0.3626 -0.0102
   47CHL1  H26B 3473   2.102   3.094   8.030 -0.8049 -0.8846 -0.0555
   47CHL1  H26C 3474   2.256   2.992   8.048  0.3604 -1.1992  1.1914
   47CHL1   C27 3475   2.056   2.951   8.239  0.3629  0.3284  0.9142
   47CHL1  H27A 3476   2.141   3.020   8.258  1.1407  0.3795 -2.2308
   47CHL1  H27B 3477   1.959   3.005   8.248  0.5523  0.6908  0.8093
   47CHL1  H27C 3478   2.061   2.882   8.326  0.5750  0.1638  0.7732
   48CHL1    C3 3479   6.619   2.724   6.509  0.1536  0.1735  0.1546
   48CHL1    H3 3480   6.725   2.710   6.536  1.2537  0.8598 -3.2850
   48CHL1    O3 3481   6.625   2.732   6.366 -0.4210 -0.7911  0.3441
   48CHL1   H3' 3482   6.684   2.663   6.335 -2.1537 -1.9570 -0.5102
   48CHL1    C4 3483   6.531   2.604   6.549 -0.0178  0.5308  0.0116
   48CHL1   H4A 3484   6.433   2.605   6.496  0.3839 -1.3394 -0.8358
   48CHL1   H4B 3485   6.581   2.515   6.505  1.5849  1.2122  0.3850
   48CHL1    C5 3486   6.521   2.581   6.694  0.1610 -0.4967  0.3214
   48CHL1    C6 3487   6.557   2.460   6.743 -0.3560 -0.4861  0.2174
   48CHL1    H6 3488   6.585   2.375   6.679  0.3369 -0.7372  0.8455
   48CHL1    C7 3489   6.552   2.437   6.891  0.0386 -0.0595 -0.0480
   48CHL1   H7A 3490   6.505   2.338   6.912  0.9244 -0.6962 -0.9571
   48CHL1   H7B 3491   6.653   2.431   6.937 -0.1894  0.9465  0.5951
   48CHL1    C8 3492   6.487   2.543   6.987 -0.2784 -0.0649  0.1224
   48CHL1    H8 3493   6.377   2.530   6.971 -0.4249  0.5833  0.5770
   48CHL1   C14 3494   6.523   2.522   7.135  0.1841 -0.0252 -0.0306
   48CHL1   H14 3495   6.631   2.546   7.134  0.4409 -1.1117 -0.1884
   48CHL1   C15 3496   6.516   2.384   7.205 -0.1740  0.5481 -0.3327
   48CHL1  H15A 3497   6.421   2.329   7.188 -0.4166  0.9009 -0.1211
   48CHL1  H15B 3498   6.604   2.321   7.180 -0.1050  0.2185  0.6877
   48CHL1   C16 3499   6.523   2.424   7.355  0.4420 -1.2429 -0.1506
   48CHL1  H16A 3500   6.435   2.395   7.415  1.0844  0.7800  1.9198
   48CHL1  H16B 3501   6.610   2.383   7.411 -0.9230 -0.6531  2.5441
   48CHL1   C17 3502   6.523   2.582   7.362  0.5626  0.4186  0.1626
   48CHL1   H17 3503   6.632   2.603   7.364  0.4775  1.0500 -0.9192
   48CHL1   C13 3504   6.469   2.632   7.226 -0.0076  0.1053  0.0819
   48CHL1   C18 3505   6.312   2.620   7.227 -0.2029  0.2914 -0.3052
   48CHL1  H18A 3506   6.260   2.686   7.300  1.4336 -0.8776  2.0499
   48CHL1  H18B 3507   6.269   2.644   7.127  1.1876 -2.3482 -1.6496
   48CHL1  H18C 3508   6.280   2.517   7.253 -0.7356  0.4592 -0.2923
   48CHL1   C12 3509   6.532   2.764   7.175  0.2179  0.4184  0.0171
   48CHL1  H12A 3510   6.505   2.844   7.248 -1.0972  0.4220 -0.4601
   48CHL1  H12B 3511   6.642   2.755   7.164 -0.1550 -1.6676 -3.4330
   48CHL1   C11 3512   6.486   2.793   7.033 -0.7178 -0.2478  0.0794
   48CHL1  H11A 3513   6.375   2.805   7.034 -0.7475 -0.4972 -0.2103
   48CHL1  H11B 3514   6.530   2.887   6.992 -1.7348  0.4098  0.4370
   48CHL1    C9 3515   6.525   2.687   6.926 -0.4261 -0.0992  0.0755
   48CHL1    H9 3516   6.635   2.682   6.931 -0.3628  2.0272  3.2801
   48CHL1   C10 3517   6.488   2.709   6.779  0.3939 -0.5240  0.1972
   48CHL1   C19 3518   6.334   2.718   6.763  0.4079  0.8008 -0.4388
   48CHL1  H19A 3519   6.308   2.734   6.657  2.1670  0.4368 -0.9588
   48CHL1  H19B 3520   6.274   2.630   6.796 -0.0013  0.7942 -1.1886
   48CHL1  H19C 3521   6.306   2.805   6.826 -0.4044  1.0975 -1.1955
   48CHL1    C1 3522   6.545   2.843   6.737 -0.7509  0.0139 -0.6260
   48CHL1   H1A 3523   6.488   2.919   6.795  2.1309  1.5308  0.4272
   48CHL1   H1B 3524   6.650   2.840   6.771 -0.5349 -2.4404 -1.3259
   48CHL1    C2 3525   6.565   2.856   6.584  0.2051  0.0661  0.0008
   48CHL1   H2A 3526   6.638   2.937   6.564  0.0649  0.4663  1.0455
   48CHL1   H2B 3527   6.465   2.890   6.549  0.3764  0.6183  0.0394
   48CHL1   C20 3528   6.456   2.628   7.492  0.2108 -0.7207 -0.8670
   48CHL1   H20 3529   6.346   2.614   7.495 -0.0957  1.4590 -0.3503
   48CHL1   C21 3530   6.482   2.782   7.511 -0.5662  0.1165  0.0388
   48CHL1  H21A 3531   6.413   2.843   7.449  1.5136  2.2245 -0.3527
   48CHL1  H21B 3532   6.587   2.812   7.488 -0.6931  1.3101  0.9296
   48CHL1  H21C 3533   6.464   2.824   7.612 -0.0869 -2.6088  1.3737
   48CHL1   C22 3534   6.517   2.561   7.621  0.4884  1.0151 -0.3177
   48CHL1  H22A 3535   6.505   2.450   7.621  0.5651  0.9716 -2.1514
   48CHL1  H22B 3536   6.625   2.583   7.630  0.4466  1.3049 -0.5202
   48CHL1   C23 3537   6.456   2.604   7.758 -0.5356  0.3911  0.4551
   48CHL1  H23A 3538   6.503   2.703   7.774  0.8797 -0.2027  0.0857
   48CHL1  H23B 3539   6.347   2.617   7.740 -0.3778  0.1753 -0.7709
   48CHL1   C24 3540   6.493   2.496   7.860  0.9944  0.2751  0.1500
   48CHL1  H24A 3541   6.455   2.401   7.818 -2.3592  1.9670 -1.0517
   48CHL1  H24B 3542   6.601   2.479   7.880  0.8052  0.4472  1.4622
   48CHL1   C25 3543   6.438   2.524   8.001  0.0251 -0.4911  0.5390
   48CHL1   H25 3544   6.329   2.522   8.020  0.5077  0.8266  4.0973
   48CHL1   C26 3545   6.489   2.410   8.097  0.1914 -0.3603  0.0254
   48CHL1  H26A 3546   6.458   2.430   8.202 -0.2605  1.1594 -0.3828
   48CHL1  H26B 3547   6.451   2.310   8.064  0.8961 -0.8407  0.6298
   48CHL1  H26C 3548   6.599   2.399   8.088  0.4548  0.3822  1.9386
   48CHL1   C27 3549   6.489   2.651   8.061  0.3861  0.0757  0.2017
   48CHL1  H27A 3550   6.439   2.744   8.025 -0.7678 -0.7286 -0.3624
   48CHL1  H27B 3551   6.472   2.650   8.170  0.3665 -3.0231  0.2740
   48CHL1  H27C 3552   6.598   2.662   8.044  0.5796 -0.9604  0.6633
   49CHL1    C3 3553   5.959   4.455   6.757 -0.0952  0.4339  0.1348
   49CHL1    H3 3554   5.897   4.546   6.744 -0.6433 -0.0137 -0.4033
   49CHL1    O3 3555   5.945   4.374   6.634 -0.2919  0.2236 -0.7601
   49CHL1   H3' 3556   6.028   4.378   6.587 -0.1342 -1.1958 -0.6433
   49CHL1    C4 3557   6.095   4.507   6.765  0.1807 -0.0808  0.1057
   49CHL1   H4A 3558   6.169   4.424   6.757 -1.4810 -1.7055  0.8444
   49CHL1   H4B 3559   6.106   4.565   6.670 -0.2391  0.8919  0.6392
   49CHL1    C5 3560   6.119   4.585   6.891  0.1661  0.7425 -0.5916
   49CHL1    C6 3561   6.185   4.703   6.889 -0.1739 -0.1358  0.4799
   49CHL1    H6 3562   6.215   4.740   6.789  0.4701  1.2818  1.1675
   49CHL1    C7 3563   6.244   4.770   7.011  0.0296 -0.1800 -0.0053
   49CHL1   H7A 3564   6.354   4.781   6.999  0.3421 -0.0032  2.4966
   49CHL1   H7B 3565   6.200   4.868   7.040 -1.1182 -1.2480  2.1076
   49CHL1    C8 3566   6.238   4.675   7.133  0.5166  1.1679 -0.1772
   49CHL1    H8 3567   6.331   4.615   7.129  0.2074  0.6186  0.5269
   49CHL1   C14 3568   6.260   4.757   7.261  0.2568  0.3735  0.5850
   49CHL1   H14 3569   6.181   4.835   7.250  1.6956  1.6640 -1.1940
   49CHL1   C15 3570   6.391   4.839   7.270  0.7229  0.2923  0.2747
   49CHL1  H15A 3571   6.478   4.779   7.235  0.9533  0.9019 -0.2162
   49CHL1  H15B 3572   6.397   4.934   7.213  0.3807  1.0892  1.5303
   49CHL1   C16 3573   6.392   4.874   7.422 -0.4868  0.2917 -0.1802
   49CHL1  H16A 3574   6.499   4.870   7.453  0.0660  0.9524 -1.8985
   49CHL1  H16B 3575   6.361   4.980   7.428  1.1534  0.7491  1.6312
   49CHL1   C17 3576   6.282   4.784   7.495 -0.5237  0.0725 -0.1478
   49CHL1   H17 3577   6.192   4.849   7.503  0.4141  1.6710 -1.7283
   49CHL1   C13 3578   6.247   4.672   7.393  0.7159  0.1315  0.0426
   49CHL1   C18 3579   6.362   4.566   7.404 -0.9754  0.0163  0.1718
   49CHL1  H18A 3580   6.369   4.512   7.500 -0.8921  1.0833  0.7802
   49CHL1  H18B 3581   6.345   4.493   7.322  3.1380 -0.4987 -0.4148
   49CHL1  H18C 3582   6.464   4.610   7.396 -0.6445 -0.6915  0.4116
   49CHL1   C12 3583   6.114   4.608   7.401  0.3610 -0.0835 -1.4020
   49CHL1  H12A 3584   6.096   4.540   7.487  0.8043 -0.3781 -1.5395
   49CHL1  H12B 3585   6.029   4.680   7.405  1.7902  1.6582 -1.2773
   49CHL1   C11 3586   6.091   4.528   7.276  0.9785  0.3472 -0.0863
   49CHL1  H11A 3587   6.150   4.434   7.279  0.1910 -0.3703 -3.2602
   49CHL1  H11B 3588   5.985   4.498   7.286  1.5292 -1.0096  2.7649
   49CHL1    C9 3589   6.106   4.610   7.144 -0.2383  0.7688 -0.2016
   49CHL1    H9 3590   6.034   4.694   7.149  0.9994  1.8426 -0.0474
   49CHL1   C10 3591   6.090   4.508   7.020 -0.0217 -0.2225 -0.2951
   49CHL1   C19 3592   6.187   4.396   7.038 -0.1622 -0.4374  0.4844
   49CHL1  H19A 3593   6.149   4.307   7.093  1.3617 -1.6662 -0.3933
   49CHL1  H19B 3594   6.223   4.356   6.941 -2.7687 -0.7641 -0.4237
   49CHL1  H19C 3595   6.281   4.424   7.090  0.4622 -0.7031 -0.4867
   49CHL1    C1 3596   5.941   4.460   7.007  0.6922  0.4924 -0.3064
   49CHL1   H1A 3597   5.906   4.401   7.095 -0.5160  0.4039 -0.8271
   49CHL1   H1B 3598   5.864   4.540   7.010  0.2588  0.1104  2.8605
   49CHL1    C2 3599   5.912   4.382   6.883 -0.4450  0.3565 -0.2974
   49CHL1   H2A 3600   5.808   4.344   6.870 -0.0830 -1.1972  1.0214
   49CHL1   H2B 3601   5.978   4.292   6.886  1.0612  1.1954 -3.5330
   49CHL1   C20 3602   6.319   4.736   7.635  0.6384  0.6307 -0.4467
   49CHL1   H20 3603   6.275   4.635   7.653  3.3433 -0.3920  1.1584
   49CHL1   C21 3604   6.249   4.835   7.738 -0.6710  0.0592  0.3007
   49CHL1  H21A 3605   6.270   4.813   7.845  2.0856 -2.9670 -0.7224
   49CHL1  H21B 3606   6.138   4.824   7.733 -1.1009  1.4368  3.6934
   49CHL1  H21C 3607   6.283   4.939   7.722  0.7790 -0.3097  0.8819
   49CHL1   C22 3608   6.469   4.720   7.663 -0.3561  0.4182 -0.0815
   49CHL1  H22A 3609   6.518   4.669   7.577  0.1082 -0.2754  0.5840
   49CHL1  H22B 3610   6.526   4.814   7.675  2.3905 -1.1762  0.2018
   49CHL1   C23 3611   6.526   4.643   7.792  0.3073  0.6299 -0.1395
   49CHL1  H23A 3612   6.468   4.686   7.876  1.8634  0.4210  1.0849
   49CHL1  H23B 3613   6.483   4.542   7.776  1.9597 -0.4171  1.5557
   49CHL1   C24 3614   6.679   4.643   7.812  0.2708  0.0166 -0.1814
   49CHL1  H24A 3615   6.717   4.586   7.725 -3.8336 -1.2257 -1.4321
   49CHL1  H24B 3616   6.716   4.747   7.810  0.8188 -0.1444  1.1092
   49CHL1   C25 3617   6.727   4.587   7.940 -0.5017  0.1600  0.0903
   49CHL1   H25 3618   6.670   4.492   7.950  1.0745 -0.9427 -0.8850
   49CHL1   C26 3619   6.877   4.559   7.923  0.0922 -0.7015  0.2287
   49CHL1  H26A 3620   6.896   4.478   7.849 -1.3842 -0.3523 -0.5780
   49CHL1  H26B 3621   6.916   4.653   7.878 -1.5917 -0.0706  0.0261
   49CHL1  H26C 3622   6.928   4.545   8.020 -1.3977 -1.1052  0.9736
   49CHL1   C27 3623   6.706   4.690   8.050 -0.2612  1.1098  0.6232
   49CHL1  H27A 3624   6.738   4.667   8.154  0.2855 -1.1812 -0.0007
   49CHL1  H27B 3625   6.764   4.784   8.037  2.1936 -0.2049  1.4266
   49CHL1  H27C 3626   6.599   4.720   8.044 -0.5485  0.1353  0.6319
   50CHL1    C3 3627   6.633   4.612   6.700  0.1832  0.2276 -0.3324
   50CHL1    H3 3628   6.705   4.678   6.648 -0.5475 -0.2082 -1.9579
   50CHL1    O3 3629   6.555   4.552   6.593  0.7110  0.8595 -0.3172
   50CHL1   H3' 3630   6.483   4.614   6.581 -0.0743 -0.4491 -3.3516
   50CHL1    C4 3631   6.712   4.491   6.761  0.2526  0.3716  0.3132
   50CHL1   H4A 3632   6.640   4.410   6.784  0.3985  0.2924  0.4920
   50CHL1   H4B 3633   6.783   4.447   6.687  1.6193  2.0346  0.5417
   50CHL1    C5 3634   6.789   4.537   6.884  0.1435  0.0396 -0.0614
   50CHL1    C6 3635   6.914   4.492   6.900  0.1800  0.2947  0.2344
   50CHL1    H6 3636   6.957   4.432   6.818 -0.2273 -1.1502  1.0257
   50CHL1    C7 3637   6.997   4.525   7.021  0.2022 -0.0766 -0.2144
   50CHL1   H7A 3638   7.052   4.433   7.050 -0.7447 -0.9472 -1.1052
   50CHL1   H7B 3639   7.057   4.613   6.990  1.2336 -0.6181  0.2137
   50CHL1    C8 3640   6.907   4.558   7.144  0.3063  0.1817 -0.7710
   50CHL1    H8 3641   6.853   4.473   7.190 -0.9325  2.1440  1.6258
   50CHL1   C14 3642   6.999   4.634   7.236  1.1506  0.0095 -0.0124
   50CHL1   H14 3643   7.040   4.724   7.184  0.9623  1.4634  2.2106
   50CHL1   C15 3644   7.128   4.560   7.285  0.3072 -0.0952  0.5989
   50CHL1  H15A 3645   7.085   4.463   7.317 -1.9138  0.5597 -0.1495
   50CHL1  H15B 3646   7.201   4.560   7.201 -0.6615 -1.9856 -0.3172
   50CHL1   C16 3647   7.171   4.631   7.416  0.0325  0.2403 -0.6241
   50CHL1  H16A 3648   7.168   4.556   7.497 -4.8593  1.6488  0.8657
   50CHL1  H16B 3649   7.266   4.689   7.411  0.9495 -1.1433  0.0771
   50CHL1   C17 3650   7.062   4.739   7.453  0.3093 -0.1669 -0.9276
   50CHL1   H17 3651   7.086   4.842   7.419 -2.4410  0.8711 -0.0009
   50CHL1   C13 3652   6.935   4.690   7.367  0.3954 -0.4328  0.3933
   50CHL1   C18 3653   6.859   4.578   7.446  0.7711  0.5288 -0.1134
   50CHL1  H18A 3654   6.772   4.535   7.391 -1.0895  1.2050  2.1473
   50CHL1  H18B 3655   6.924   4.490   7.464 -1.4423 -1.3407 -0.7296
   50CHL1  H18C 3656   6.822   4.623   7.540  1.2003  1.2414 -0.2822
   50CHL1   C12 3657   6.831   4.795   7.321  0.2390 -0.6027 -0.0246
   50CHL1  H12A 3658   6.773   4.847   7.401 -1.3055 -2.7262  0.3342
   50CHL1  H12B 3659   6.880   4.876   7.263 -1.3754 -1.8732 -3.4449
   50CHL1   C11 3660   6.736   4.728   7.221  0.4888 -0.8595  0.1743
   50CHL1  H11A 3661   6.662   4.670   7.281  0.6727 -1.2898 -0.0139
   50CHL1  H11B 3662   6.689   4.812   7.164  2.1533  1.2425  1.7437
   50CHL1    C9 3663   6.806   4.662   7.108  0.3218 -0.0141  0.7133
   50CHL1    H9 3664   6.857   4.751   7.064 -1.9151  0.7233 -0.5094
   50CHL1   C10 3665   6.714   4.614   6.996  0.4696 -0.1631 -0.1746
   50CHL1   C19 3666   6.613   4.514   7.064 -0.3368 -0.2528 -0.2081
   50CHL1  H19A 3667   6.547   4.473   6.984  1.7211 -0.2704 -1.9952
   50CHL1  H19B 3668   6.656   4.421   7.107 -1.1421 -0.3781  0.3401
   50CHL1  H19C 3669   6.549   4.569   7.135  0.4423  3.0979 -1.8903
   50CHL1    C1 3670   6.640   4.729   6.921 -0.5464 -0.5806 -0.3372
   50CHL1   H1A 3671   6.562   4.757   6.995 -0.7171 -0.9494 -0.3769
   50CHL1   H1B 3672   6.701   4.819   6.900  0.5741 -1.2730 -0.1328
   50CHL1    C2 3673   6.554   4.695   6.804  0.5142  0.6091  0.6922
   50CHL1   H2A 3674   6.504   4.778   6.750 -0.9457 -0.4797  0.2863
   50CHL1   H2B 3675   6.463   4.640   6.837 -0.0099  0.9688 -0.1078
   50CHL1   C20 3676   7.056   4.768   7.604  0.5167 -0.1787 -0.8340
   50CHL1   H20 3677   7.018   4.673   7.648 -1.0385  1.3513  1.3735
   50CHL1   C21 3678   6.948   4.874   7.637 -0.0184 -0.6238  0.6459
   50CHL1  H21A 3679   6.942   4.883   7.748  2.1163 -0.7780  0.8277
   50CHL1  H21B 3680   6.850   4.838   7.600  0.2846 -2.1464  1.2265
   50CHL1  H21C 3681   6.975   4.972   7.593 -1.2182 -0.7978 -0.5340
   50CHL1   C22 3682   7.194   4.810   7.666  0.3480  0.9235 -0.4404
   50CHL1  H22A 3683   7.271   4.734   7.641  1.0221  1.4159  0.0676
   50CHL1  H22B 3684   7.238   4.901   7.619  0.3952  0.3490 -1.5229
   50CHL1   C23 3685   7.185   4.823   7.816 -0.2042 -0.0922 -0.8541
   50CHL1  H23A 3686   7.157   4.927   7.843 -3.4355 -0.1535 -3.2818
   50CHL1  H23B 3687   7.095   4.768   7.852  0.2751 -2.0747 -2.4818
   50CHL1   C24 3688   7.324   4.802   7.880  0.2993  0.5440  0.3112
   50CHL1  H24A 3689   7.363   4.704   7.847 -3.3748 -1.2097  0.6901
   50CHL1  H24B 3690   7.392   4.876   7.831 -0.3228  0.2686 -1.0091
   50CHL1   C25 3691   7.331   4.821   8.032 -1.2792  0.1307  0.3580
   50CHL1   H25 3692   7.302   4.927   8.054  1.2402  0.8444  0.5227
   50CHL1   C26 3693   7.249   4.733   8.121  0.5698 -0.2691 -0.0405
   50CHL1  H26A 3694   7.256   4.623   8.103 -0.9128 -0.5496  0.8689
   50CHL1  H26B 3695   7.276   4.741   8.229 -1.2398 -2.5011  0.6667
   50CHL1  H26C 3696   7.144   4.765   8.107  0.0790 -1.4597  0.6960
   50CHL1   C27 3697   7.482   4.810   8.076  0.3281  0.0503 -0.2653
   50CHL1  H27A 3698   7.534   4.894   8.024  1.2435 -0.0277  0.4794
   50CHL1  H27B 3699   7.503   4.824   8.185  1.6585  0.6745 -0.5759
   50CHL1  H27C 3700   7.526   4.709   8.061 -0.7229 -0.4242 -0.2096
   51CHL1    C3 3701   5.064   6.006   6.656 -0.0011 -0.2447  0.2190
   51CHL1    H3 3702   5.059   5.896   6.659  1.9959 -0.3471  1.2463
   51CHL1    O3 3703   5.073   6.045   6.516 -0.3759  0.3874 -0.3315
   51CHL1   H3' 3704   5.078   6.141   6.524  1.1835  0.2764  0.4116
   51CHL1    C4 3705   4.942   6.076   6.714  0.5194  0.7669  0.0576
   51CHL1   H4A 3706   4.958   6.184   6.691 -0.4498  1.0370  0.6049
   51CHL1   H4B 3707   4.857   6.036   6.656  0.2509 -0.0454  0.9846
   51CHL1    C5 3708   4.935   6.050   6.861  0.9031  0.4918 -0.4724
   51CHL1    C6 3709   4.825   5.995   6.915 -0.0059 -0.1156 -0.5985
   51CHL1    H6 3710   4.737   5.959   6.860  1.0176 -1.4643 -1.3893
   51CHL1    C7 3711   4.812   5.983   7.063  0.5612  0.4958 -0.3811
   51CHL1   H7A 3712   4.707   6.006   7.093  0.6894  2.0933 -1.0522
   51CHL1   H7B 3713   4.837   5.876   7.078  0.6410  0.3362 -1.5505
   51CHL1    C8 3714   4.923   6.050   7.154  0.4882 -0.1221  0.0492
   51CHL1    H8 3715   4.893   6.157   7.152 -0.3957 -0.3618 -1.9086
   51CHL1   C14 3716   4.914   6.009   7.299 -0.0922  0.4458 -0.2632
   51CHL1   H14 3717   4.935   5.900   7.304 -0.5336  0.3329 -0.7588
   51CHL1   C15 3718   4.785   6.037   7.377 -0.2853 -0.2316  0.0143
   51CHL1  H15A 3719   4.745   6.139   7.360 -0.9010 -0.4621  0.0610
   51CHL1  H15B 3720   4.717   5.956   7.342 -1.7352  0.5517  0.9677
   51CHL1   C16 3721   4.827   6.021   7.523 -0.5925 -0.0487 -0.2561
   51CHL1  H16A 3722   4.806   6.117   7.576  3.1216 -0.1494  1.7021
   51CHL1  H16B 3723   4.796   5.930   7.578  1.4377 -1.4904 -1.3434
   51CHL1   C17 3724   4.984   6.016   7.525 -0.9649 -0.3027  0.4422
   51CHL1   H17 3725   5.015   5.909   7.530  1.7595  0.4173  0.2856
   51CHL1   C13 3726   5.024   6.074   7.385 -0.0175  0.1547 -0.0885
   51CHL1   C18 3727   5.000   6.235   7.386 -0.0587 -0.2388 -0.3802
   51CHL1  H18A 3728   5.013   6.284   7.287  1.4715 -1.6130 -0.9200
   51CHL1  H18B 3729   4.899   6.254   7.427  0.7132  1.4671  0.8774
   51CHL1  H18C 3730   5.078   6.280   7.452  1.2967  1.4252 -2.9253
   51CHL1   C12 3731   5.162   6.028   7.325 -0.1048 -0.6982 -0.0891
   51CHL1  H12A 3732   5.245   6.076   7.381 -2.2696  3.9482 -0.3260
   51CHL1  H12B 3733   5.166   5.918   7.318 -1.1274 -0.6862 -1.2614
   51CHL1   C11 3734   5.188   6.079   7.184 -0.8759  0.0905  0.2962
   51CHL1  H11A 3735   5.182   6.189   7.191  0.2750  0.2116 -0.4228
   51CHL1  H11B 3736   5.283   6.035   7.147  1.0732  3.0407  1.4655
   51CHL1    C9 3737   5.060   6.031   7.095 -0.0528  0.6147  0.7278
   51CHL1    H9 3738   5.084   5.923   7.098  1.0458  0.8625  1.1706
   51CHL1   C10 3739   5.061   6.079   6.944  0.0288  0.8499 -0.1829
   51CHL1   C19 3740   5.079   6.232   6.951  0.4410  0.4518 -0.3416
   51CHL1  H19A 3741   5.084   6.278   6.850  2.0870  0.4710 -0.2714
   51CHL1  H19B 3742   4.994   6.277   7.006 -0.3662 -1.4667  0.0573
   51CHL1  H19C 3743   5.180   6.243   6.996  0.3466  2.6122 -0.5421
   51CHL1    C1 3744   5.181   6.001   6.876  0.6819 -0.1609 -0.0879
   51CHL1   H1A 3745   5.270   6.034   6.934  0.4843  0.7956 -0.3134
   51CHL1   H1B 3746   5.170   5.890   6.879  0.0243 -0.2166 -2.4270
   51CHL1    C2 3747   5.193   6.049   6.727  0.0683 -0.5671 -0.1283
   51CHL1   H2A 3748   5.282   6.002   6.679  0.8203  0.3528  0.3341
   51CHL1   H2B 3749   5.210   6.158   6.726  2.4724 -0.8431  1.3691
   51CHL1   C20 3750   5.043   6.087   7.644  0.1727  0.4363 -0.1134
   51CHL1   H20 3751   5.010   6.193   7.641  1.3614  0.8251 -0.2526
   51CHL1   C21 3752   5.196   6.064   7.657 -1.0231  0.0146 -0.5234
   51CHL1  H21A 3753   5.229   5.959   7.661  0.2606  0.3741 -1.2015
   51CHL1  H21B 3754   5.236   6.100   7.754  1.2063 -0.8113 -1.0899
   51CHL1  H21C 3755   5.253   6.119   7.579 -1.5821 -0.2280 -1.1176
   51CHL1   C22 3756   4.981   6.023   7.773 -0.2728  0.5974  0.2563
   51CHL1  H22A 3757   4.870   6.031   7.766 -0.7485 -2.6947  1.8589
   51CHL1  H22B 3758   5.009   5.916   7.788  2.3006  1.4531  2.1984
   51CHL1   C23 3759   5.011   6.100   7.903 -0.2304 -0.0047  0.0850
   51CHL1  H23A 3760   5.098   6.055   7.955 -1.0186 -0.0007  1.4734
   51CHL1  H23B 3761   5.028   6.208   7.883 -0.3525  0.0077  0.0441
   51CHL1   C24 3762   4.914   6.083   8.031 -0.5350 -0.3159  0.3364
   51CHL1  H24A 3763   4.811   6.111   7.999 -0.0224  0.4662 -0.6864
   51CHL1  H24B 3764   4.902   5.975   8.054 -1.4754 -0.2662  0.1034
   51CHL1   C25 3765   4.940   6.168   8.152  0.4551 -0.7260 -0.2827
   51CHL1   H25 3766   4.868   6.139   8.231  2.0988  1.1834  2.0866
   51CHL1   C26 3767   5.069   6.147   8.216  0.2102  0.2336  0.6582
   51CHL1  H26A 3768   5.092   6.235   8.279  2.8637 -0.4587  0.8047
   51CHL1  H26B 3769   5.076   6.048   8.268 -2.1661 -0.8321 -0.8858
   51CHL1  H26C 3770   5.153   6.140   8.143  0.5739 -1.1657  1.1592
   51CHL1   C27 3771   4.922   6.322   8.123  0.2292  0.3218  0.2271
   51CHL1  H27A 3772   5.005   6.367   8.065  1.8237  1.5296  3.2054
   51CHL1  H27B 3773   4.821   6.341   8.079  0.3630  0.7937  0.1167
   51CHL1  H27C 3774   4.922   6.368   8.224 -2.4342 -2.9205  1.9188
   52CHL1    C3 3775   5.921   6.491   6.911  0.3829 -0.9125 -0.6062
   52CHL1    H3 3776   5.909   6.592   6.955 -1.3483 -1.2178 -0.3024
   52CHL1    O3 3777   5.898   6.503   6.775 -0.4607  0.3891  0.1148
   52CHL1   H3' 3778   5.806   6.527   6.766 -0.8472 -1.0295  0.0973
   52CHL1    C4 3779   6.073   6.452   6.930  0.3115 -0.4562 -0.1463
   52CHL1   H4A 3780   6.091   6.364   6.866  0.3051  0.5741 -1.6193
   52CHL1   H4B 3781   6.136   6.536   6.893 -0.6793  0.6566  0.6052
   52CHL1    C5 3782   6.109   6.424   7.077  0.0783  0.2894  0.0031
   52CHL1    C6 3783   6.205   6.487   7.137 -0.0657  0.1080 -0.5171
   52CHL1    H6 3784   6.262   6.565   7.085 -0.0577 -0.3352 -1.1919
   52CHL1    C7 3785   6.260   6.455   7.271 -0.4402  0.2282 -0.2729
   52CHL1   H7A 3786   6.369   6.434   7.267 -0.7435 -2.0336  1.4248
   52CHL1   H7B 3787   6.228   6.541   7.334 -2.7832 -2.0143  1.8084
   52CHL1    C8 3788   6.201   6.321   7.329  0.2259  0.2853 -0.1976
   52CHL1    H8 3789   6.255   6.237   7.279  1.0472  0.7115 -0.0508
   52CHL1   C14 3790   6.218   6.307   7.484  0.3100  1.2860 -0.4859
   52CHL1   H14 3791   6.160   6.393   7.524 -0.0451 -0.2687  2.6669
   52CHL1   C15 3792   6.365   6.319   7.541 -0.3886 -0.0914 -1.6518
   52CHL1  H15A 3793   6.428   6.252   7.479  1.6838 -0.4324  0.6831
   52CHL1  H15B 3794   6.401   6.424   7.537  1.8076 -0.8021 -1.4060
   52CHL1   C16 3795   6.354   6.266   7.682 -0.0701  0.2803  0.2002
   52CHL1  H16A 3796   6.432   6.187   7.691  0.5276  0.9528  1.0434
   52CHL1  H16B 3797   6.375   6.340   7.762 -0.6361 -1.6914  2.2782
   52CHL1   C17 3798   6.209   6.209   7.698  0.4524  0.3325 -0.0615
   52CHL1   H17 3799   6.151   6.294   7.739  1.3208  0.0528  1.9051
   52CHL1   C13 3800   6.155   6.182   7.553  0.1013 -0.3184 -0.2289
   52CHL1   C18 3801   6.217   6.050   7.498  0.5855  0.0446 -0.3268
   52CHL1  H18A 3802   6.199   6.042   7.389  1.5223  0.2591 -0.5048
   52CHL1  H18B 3803   6.325   6.034   7.520  0.6841 -2.6403 -2.2332
   52CHL1  H18C 3804   6.151   5.978   7.552 -1.8040  1.8453 -0.6818
   52CHL1   C12 3805   6.004   6.196   7.523  0.4819 -0.0546  0.0082
   52CHL1  H12A 3806   5.941   6.118   7.570 -1.1083  0.9773 -0.3660
   52CHL1  H12B 3807   5.979   6.292   7.573 -1.6454 -1.7155  2.3679
   52CHL1   C11 3808   5.975   6.211   7.374 -0.1427  0.4022 -0.0476
   52CHL1  H11A 3809   5.974   6.110   7.327  0.7762  0.3694 -0.0022
   52CHL1  H11B 3810   5.867   6.238   7.376 -0.1947  0.4218 -1.8595
   52CHL1    C9 3811   6.053   6.318   7.299 -0.2763  0.5340 -0.2040
   52CHL1    H9 3812   6.012   6.412   7.342 -1.6209  0.4983 -1.3333
   52CHL1   C10 3813   6.020   6.323   7.145 -0.0491  0.0613 -0.2383
   52CHL1   C19 3814   6.039   6.184   7.074 -0.1558 -0.0200 -0.2309
   52CHL1  H19A 3815   5.963   6.112   7.111  1.6575 -2.2409 -0.5828
   52CHL1  H19B 3816   6.027   6.193   6.964 -3.2480 -0.0275  0.0108
   52CHL1  H19C 3817   6.144   6.153   7.094  0.0366  1.2800  0.8898
   52CHL1    C1 3818   5.873   6.362   7.127  0.2534 -0.0768  0.0436
   52CHL1   H1A 3819   5.805   6.285   7.168  0.2349  0.1300  0.4028
   52CHL1   H1B 3820   5.862   6.463   7.173  0.6895  1.2920 -2.6229
   52CHL1    C2 3821   5.832   6.385   6.977 -0.2347 -0.4877 -0.0822
   52CHL1   H2A 3822   5.725   6.415   6.972  0.8129  4.0315 -0.1375
   52CHL1   H2B 3823   5.836   6.294   6.914  0.8634  0.0708 -0.8611
   52CHL1   C20 3824   6.195   6.096   7.804 -0.5521  0.1271  0.0620
   52CHL1   H20 3825   6.242   6.007   7.757  1.8456  1.1359  0.3821
   52CHL1   C21 3826   6.042   6.070   7.833  0.3904 -0.5278 -0.2420
   52CHL1  H21A 3827   5.996   6.016   7.748  1.2401 -1.7543  0.0521
   52CHL1  H21B 3828   5.978   6.161   7.832  2.3904  0.9632  0.0589
   52CHL1  H21C 3829   6.024   6.001   7.918  0.1374  0.0741  0.1995
   52CHL1   C22 3830   6.279   6.117   7.934 -0.1673  0.2251 -0.1049
   52CHL1  H22A 3831   6.385   6.127   7.902 -0.1577 -0.3018 -0.2573
   52CHL1  H22B 3832   6.234   6.197   7.996  0.9053 -0.8689  2.1896
   52CHL1   C23 3833   6.286   5.992   8.030  0.0680  0.0062  0.0254
   52CHL1  H23A 3834   6.188   5.943   8.047 -0.5421  1.7129  1.7955
   52CHL1  H23B 3835   6.356   5.913   7.996 -0.3015 -1.4757  2.4197
   52CHL1   C24 3836   6.340   6.021   8.175  0.0103 -0.1714 -0.2777
   52CHL1  H24A 3837   6.448   6.043   8.164 -0.1665  2.3339  2.0448
   52CHL1  H24B 3838   6.286   6.111   8.212 -0.1874 -1.6160  3.4199
   52CHL1   C25 3839   6.328   5.911   8.275  0.0884  0.1750  0.1853
   52CHL1   H25 3840   6.221   5.895   8.297  0.2624 -1.6386 -0.1612
   52CHL1   C26 3841   6.412   5.785   8.231 -0.6536 -0.0531 -0.6305
   52CHL1  H26A 3842   6.516   5.792   8.269 -0.3114 -1.4166 -1.2395
   52CHL1  H26B 3843   6.377   5.695   8.287  0.5930 -1.2112 -1.6386
   52CHL1  H26C 3844   6.396   5.775   8.121  2.0618  0.7054 -1.1589
   52CHL1   C27 3845   6.393   5.966   8.404  0.5048 -0.1958  0.2379
   52CHL1  H27A 3846   6.362   6.072   8.419 -0.1876 -0.2310 -0.8562
   52CHL1  H27B 3847   6.368   5.908   8.495 -1.0742 -0.9753 -0.6468
   52CHL1  H27C 3848   6.504   5.970   8.398  0.5472 -2.0764 -1.0854
   53CHL1    C3 3849   2.595   1.478   7.257 -0.8461 -0.2211 -0.4120
   53CHL1    H3 3850   2.514   1.482   7.333 -1.2999 -0.3358 -0.8848
   53CHL1    O3 3851   2.564   1.552   7.135  0.5534  0.5906 -0.4424
   53CHL1   H3' 3852   2.629   1.515   7.074  1.4429  0.0006  0.8338
   53CHL1    C4 3853   2.723   1.540   7.331  0.4475  0.1787  0.4871
   53CHL1   H4A 3854   2.800   1.550   7.252 -1.4246  0.5929 -1.3907
   53CHL1   H4B 3855   2.688   1.643   7.351  3.3632  1.1644  0.8568
   53CHL1    C5 3856   2.767   1.457   7.455  0.4968  0.0525  0.1861
   53CHL1    C6 3857   2.797   1.520   7.565  0.1674 -0.3997 -0.2473
   53CHL1    H6 3858   2.795   1.628   7.586 -1.5485 -0.5977  0.7968
   53CHL1    C7 3859   2.845   1.448   7.690 -0.6420 -0.5593 -0.3702
   53CHL1   H7A 3860   2.937   1.499   7.725 -2.0888  1.4393  0.6912
   53CHL1   H7B 3861   2.761   1.455   7.763 -2.1824  0.4815 -2.1423
   53CHL1    C8 3862   2.882   1.296   7.669  0.0218  0.4718  0.0654
   53CHL1    H8 3863   2.987   1.288   7.631 -0.1748 -0.4708 -0.3094
   53CHL1   C14 3864   2.894   1.217   7.799  0.1357  0.4458  0.1000
   53CHL1   H14 3865   2.798   1.245   7.849  0.7896 -0.1838  1.7810
   53CHL1   C15 3866   3.001   1.256   7.897  0.4638  0.2305 -0.5226
   53CHL1  H15A 3867   3.091   1.265   7.832  1.8372 -0.3503  1.2433
   53CHL1  H15B 3868   2.978   1.353   7.946  0.2467  0.5243 -1.1898
   53CHL1   C16 3869   3.027   1.136   7.989 -0.6347  0.0300  0.3854
   53CHL1  H16A 3870   3.136   1.114   7.996 -0.5580  0.0736 -0.5481
   53CHL1  H16B 3871   2.991   1.163   8.091 -1.6976 -2.0471  0.6063
   53CHL1   C17 3872   2.942   1.028   7.925  1.2342  1.1741  1.0865
   53CHL1   H17 3873   2.840   1.024   7.968  0.5966  2.1073 -0.2570
   53CHL1   C13 3874   2.909   1.067   7.775 -0.1173  0.5798 -0.0171
   53CHL1   C18 3875   3.037   1.035   7.691 -0.2837  0.1467  0.1893
   53CHL1  H18A 3876   3.046   0.925   7.674  0.2940  0.3685 -1.0244
   53CHL1  H18B 3877   3.019   1.079   7.591 -2.2729 -0.4946  0.2186
   53CHL1  H18C 3878   3.129   1.084   7.730  0.1902  0.0768 -0.8115
   53CHL1   C12 3879   2.789   1.009   7.700  0.4474 -0.0890 -0.7050
   53CHL1  H12A 3880   2.790   0.899   7.688  1.0093 -0.1063 -0.5045
   53CHL1  H12B 3881   2.703   1.029   7.767 -0.1297 -1.6600 -0.9444
   53CHL1   C11 3882   2.766   1.075   7.564  0.3998 -0.5261 -0.1033
   53CHL1  H11A 3883   2.839   1.030   7.493  1.9687 -0.7341  1.5691
   53CHL1  H11B 3884   2.668   1.042   7.525  0.3042 -0.3896  0.0227
   53CHL1    C9 3885   2.778   1.232   7.574  0.7081 -0.1561 -0.2402
   53CHL1    H9 3886   2.679   1.268   7.609  0.3632  2.3279 -3.3051
   53CHL1   C10 3887   2.773   1.303   7.437 -0.5165  0.2933  0.2486
   53CHL1   C19 3888   2.903   1.275   7.363  0.7142 -0.2792 -0.5205
   53CHL1  H19A 3889   2.916   1.165   7.353 -1.8147 -1.1725  3.7960
   53CHL1  H19B 3890   2.895   1.317   7.260  0.9073  0.7656 -0.1203
   53CHL1  H19C 3891   2.998   1.312   7.409  1.9889  0.3616 -3.4333
   53CHL1    C1 3892   2.649   1.252   7.363  0.1668 -0.8692  0.3253
   53CHL1   H1A 3893   2.668   1.147   7.331 -0.6045 -1.1632  0.8059
   53CHL1   H1B 3894   2.561   1.254   7.431 -0.6371 -0.4231 -0.7140
   53CHL1    C2 3895   2.617   1.327   7.232  0.4471 -0.3316 -0.5180
   53CHL1   H2A 3896   2.533   1.283   7.175 -0.2600  0.3977 -0.0457
   53CHL1   H2B 3897   2.708   1.324   7.168  2.0421  2.4760  1.3392
   53CHL1   C20 3898   3.011   0.884   7.946  0.1371  0.7817  0.0245
   53CHL1   H20 3899   3.106   0.901   7.891 -0.8388 -1.1304 -2.4399
   53CHL1   C21 3900   2.937   0.765   7.878 -0.9959 -0.2428  0.4642
   53CHL1  H21A 3901   2.840   0.741   7.927 -0.5942 -0.1384  1.3366
   53CHL1  H21B 3902   2.999   0.674   7.894  0.8188  0.2583 -2.7484
   53CHL1  H21C 3903   2.929   0.779   7.768  0.1219  0.4411  0.4548
   53CHL1   C22 3904   3.038   0.859   8.096  0.6531  0.4685 -0.0570
   53CHL1  H22A 3905   3.065   0.752   8.106 -2.0394 -0.2638  0.1954
   53CHL1  H22B 3906   3.118   0.931   8.122  0.5575  0.0824  1.3829
   53CHL1   C23 3907   2.919   0.877   8.192  0.1344 -0.0896  0.0260
   53CHL1  H23A 3908   2.887   0.983   8.196  1.5602  0.3300  1.3367
   53CHL1  H23B 3909   2.836   0.812   8.158  0.6964  1.2021 -4.3416
   53CHL1   C24 3910   2.961   0.839   8.336 -0.0766 -0.3915 -0.2367
   53CHL1  H24A 3911   3.008   0.738   8.330  0.1478 -0.2860 -0.2395
   53CHL1  H24B 3912   3.049   0.894   8.376 -0.6074  0.9359 -0.8549
   53CHL1   C25 3913   2.841   0.854   8.425  0.2637  0.6428  0.0001
   53CHL1   H25 3914   2.747   0.846   8.365  1.3918 -0.6067 -1.7239
   53CHL1   C26 3915   2.836   0.738   8.521  0.4498  0.1443 -0.5346
   53CHL1  H26A 3916   2.739   0.727   8.574  1.3630 -0.0252  1.2024
   53CHL1  H26B 3917   2.856   0.645   8.464  1.1186  0.6682 -1.1771
   53CHL1  H26C 3918   2.923   0.737   8.590  0.6108  0.1064 -0.7372
   53CHL1   C27 3919   2.839   0.989   8.507 -0.1032  0.4516 -0.5871
   53CHL1  H27A 3920   2.929   1.016   8.566  0.1091  0.8186 -1.0712
   53CHL1  H27B 3921   2.815   1.070   8.435  0.3817 -0.0849 -1.3652
   53CHL1  H27C 3922   2.753   0.991   8.578  1.4034  2.1822  1.3254
   54CHL1    C3 3923   5.087   4.282   7.007 -1.1218  0.0302 -0.6059
   54CHL1    H3 3924   5.192   4.320   7.004 -1.3584  1.6252  3.6972
   54CHL1    O3 3925   5.044   4.236   6.880  0.1148  0.5236  0.3372
   54CHL1   H3' 3926   4.948   4.243   6.883  0.0518 -0.5445  2.4025
   54CHL1    C4 3927   5.078   4.161   7.101  0.2070 -0.0299  0.1159
   54CHL1   H4A 3928   4.971   4.132   7.108  0.1105 -0.1583 -1.5905
   54CHL1   H4B 3929   5.122   4.070   7.055  1.2391  0.3874  0.2479
   54CHL1    C5 3930   5.130   4.189   7.241 -0.1067  0.3306 -0.5105
   54CHL1    C6 3931   5.234   4.122   7.289  0.4392 -0.2270  0.8342
   54CHL1    H6 3932   5.285   4.045   7.229  0.3753 -0.1903  0.7335
   54CHL1    C7 3933   5.275   4.145   7.433  0.2694  1.3033 -0.2672
   54CHL1   H7A 3934   5.295   4.051   7.489  1.1848  0.8421 -1.3347
   54CHL1   H7B 3935   5.368   4.206   7.428 -0.9220  3.0953 -2.4044
   54CHL1    C8 3936   5.171   4.229   7.521 -0.1329  0.4409  1.2321
   54CHL1    H8 3937   5.084   4.167   7.552  0.4515 -1.0712 -0.0707
   54CHL1   C14 3938   5.238   4.288   7.646  0.3249  0.5951  0.6618
   54CHL1   H14 3939   5.311   4.358   7.601  0.5347  0.0559  0.1532
   54CHL1   C15 3940   5.308   4.190   7.739 -0.2632 -0.0714 -0.1798
   54CHL1  H15A 3941   5.246   4.100   7.757 -0.3641  0.0622  0.1429
   54CHL1  H15B 3942   5.402   4.141   7.705 -1.3861 -2.2525 -0.3624
   54CHL1   C16 3943   5.336   4.274   7.866  0.4169 -0.2212 -0.1062
   54CHL1  H16A 3944   5.307   4.226   7.962 -2.4034 -1.9393 -1.6797
   54CHL1  H16B 3945   5.442   4.309   7.863  0.5315 -0.4837  0.5746
   54CHL1   C17 3946   5.261   4.414   7.843 -0.0517 -0.5617  0.0001
   54CHL1   H17 3947   5.332   4.479   7.788  0.6930 -0.5666  0.9316
   54CHL1   C13 3948   5.158   4.380   7.741  0.7417 -0.0198  0.9270
   54CHL1   C18 3949   5.047   4.294   7.798  0.3774  0.6249 -0.7552
   54CHL1  H18A 3950   4.983   4.352   7.868  0.6982 -2.0413  1.9997
   54CHL1  H18B 3951   4.977   4.251   7.723 -1.0990  0.7277  0.5077
   54CHL1  H18C 3952   5.078   4.202   7.853 -4.2988 -1.6753 -1.4601
   54CHL1   C12 3953   5.102   4.495   7.653  1.0709 -0.8429 -0.2452
   54CHL1  H12A 3954   5.030   4.560   7.707  1.9503 -1.0193  1.1820
   54CHL1  H12B 3955   5.184   4.564   7.623 -1.3181  1.0861 -2.8381
   54CHL1   C11 3956   5.025   4.446   7.526  0.1666  0.6367 -0.0778
   54CHL1  H11A 3957   4.932   4.397   7.561 -0.2051  1.3949  0.0168
   54CHL1  H11B 3958   5.005   4.529   7.455 -3.5676  0.0239  0.1006
   54CHL1    C9 3959   5.116   4.348   7.440  0.2709 -0.3613  0.6869
   54CHL1    H9 3960   5.201   4.407   7.398  0.0555 -1.1674 -0.9666
   54CHL1   C10 3961   5.049   4.302   7.307 -0.0204  0.0560 -0.5101
   54CHL1   C19 3962   4.910   4.242   7.338  0.7260 -0.0553 -0.4053
   54CHL1  H19A 3963   4.865   4.194   7.249  1.2056 -0.3981 -0.4642
   54CHL1  H19B 3964   4.911   4.164   7.417 -0.2971 -1.9255 -2.1621
   54CHL1  H19C 3965   4.830   4.312   7.371 -0.9600 -2.3473  0.5889
   54CHL1    C1 3966   5.050   4.427   7.205  0.3823  0.3606 -0.4426
   54CHL1   H1A 3967   4.977   4.497   7.251 -0.3806 -1.4527  1.2322
   54CHL1   H1B 3968   5.152   4.469   7.201  1.7475 -2.5408  0.9401
   54CHL1    C2 3969   4.997   4.384   7.065 -0.3533 -0.6190  0.1489
   54CHL1   H2A 3970   4.989   4.478   7.005  0.4760  0.0886  1.1082
   54CHL1   H2B 3971   4.897   4.336   7.062 -0.6705  0.0708 -2.0040
   54CHL1   C20 3972   5.215   4.485   7.971 -0.4766 -0.1593  0.2331
   54CHL1   H20 3973   5.149   4.568   7.937  0.0851 -0.4145 -1.6222
   54CHL1   C21 3974   5.347   4.554   8.020 -0.4447 -0.2131  0.0866
   54CHL1  H21A 3975   5.418   4.477   8.057 -1.5710 -0.2112  2.3809
   54CHL1  H21B 3976   5.330   4.630   8.100  1.7457 -0.0599  0.4710
   54CHL1  H21C 3977   5.395   4.610   7.936  0.7950 -0.1192  0.8392
   54CHL1   C22 3978   5.153   4.397   8.082 -0.1119 -0.0492 -1.1115
   54CHL1  H22A 3979   5.064   4.337   8.050  0.2287 -0.3230 -1.5501
   54CHL1  H22B 3980   5.228   4.325   8.122  0.5362  0.4384 -1.4638
   54CHL1   C23 3981   5.117   4.483   8.205 -0.4088  0.3765  0.2921
   54CHL1  H23A 3982   5.208   4.529   8.250 -0.2416 -1.1830  1.6951
   54CHL1  H23B 3983   5.054   4.568   8.175  0.1015  1.3113  1.7495
   54CHL1   C24 3984   5.052   4.394   8.319 -0.1796  0.2368  0.8767
   54CHL1  H24A 3985   4.966   4.341   8.273  0.2342 -1.1460  1.6402
   54CHL1  H24B 3986   5.115   4.310   8.355 -0.3688 -1.6013 -2.7357
   54CHL1   C25 3987   4.991   4.477   8.430 -0.1125 -0.1718  0.4400
   54CHL1   H25 3988   5.079   4.530   8.474  1.6677 -0.1060 -2.8497
   54CHL1   C26 3989   4.881   4.579   8.384 -0.3213  0.2858  0.5087
   54CHL1  H26A 3990   4.802   4.523   8.330  0.6443 -1.7496  1.1068
   54CHL1  H26B 3991   4.827   4.638   8.461 -3.9501 -2.2327  0.1623
   54CHL1  H26C 3992   4.930   4.653   8.316  1.3465  0.0224  1.3747
   54CHL1   C27 3993   4.924   4.381   8.531  0.1278  0.2274 -0.5483
   54CHL1  H27A 3994   4.852   4.311   8.485 -1.1400  1.4139 -0.4557
   54CHL1  H27B 3995   5.004   4.321   8.580 -0.8990 -0.9224 -0.2442
   54CHL1  H27C 3996   4.869   4.413   8.622  0.5215 -0.8257  0.0760
   55CHL1    C3 3997   4.515   6.289   6.808  0.0454 -0.2960  0.3860
   55CHL1    H3 3998   4.539   6.181   6.818  1.0219  0.0060  1.4394
   55CHL1    O3 3999   4.523   6.326   6.670  0.2038 -0.1236 -0.6860
   55CHL1   H3' 4000   4.522   6.422   6.672  0.6959 -0.0833  2.5532
   55CHL1    C4 4001   4.375   6.311   6.865 -0.0369 -0.3922  0.1466
   55CHL1   H4A 4002   4.348   6.415   6.837  0.0085 -0.3755  0.1627
   55CHL1   H4B 4003   4.303   6.247   6.812 -0.3663 -0.4780  0.6856
   55CHL1    C5 4004   4.373   6.296   7.019 -0.0072 -0.2272 -0.3706
   55CHL1    C6 4005   4.296   6.209   7.092  0.6244 -0.2977  0.0529
   55CHL1    H6 4006   4.232   6.134   7.041  1.2376 -0.2810 -0.7644
   55CHL1    C7 4007   4.295   6.178   7.239 -0.4404 -0.0479 -0.3018
   55CHL1   H7A 4008   4.194   6.177   7.286 -0.0757  1.2231  0.5622
   55CHL1   H7B 4009   4.355   6.086   7.252 -0.0139  0.3064  0.2678
   55CHL1    C8 4010   4.371   6.298   7.318  0.7707 -0.2980  0.4321
   55CHL1    H8 4011   4.305   6.386   7.304 -1.0533 -1.8408 -1.2265
   55CHL1   C14 4012   4.394   6.257   7.468  0.3646 -0.9066  0.7063
   55CHL1   H14 4013   4.464   6.171   7.467 -0.8275 -1.9121  0.6606
   55CHL1   C15 4014   4.263   6.217   7.549  0.0499  0.3978  0.4955
   55CHL1  H15A 4015   4.177   6.282   7.520 -1.1734 -2.0792 -1.9029
   55CHL1  H15B 4016   4.241   6.110   7.531 -0.3716  0.6130 -0.3049
   55CHL1   C16 4017   4.307   6.244   7.687 -0.4636  0.4192 -0.2378
   55CHL1  H16A 4018   4.240   6.312   7.745 -1.3168 -1.2647  0.8379
   55CHL1  H16B 4019   4.317   6.151   7.748 -0.1395  1.4772  1.4009
   55CHL1   C17 4020   4.454   6.312   7.689  0.1915  0.2311 -0.1018
   55CHL1   H17 4021   4.520   6.224   7.702  2.5374  1.9282  0.0524
   55CHL1   C13 4022   4.459   6.371   7.547 -1.0696  0.6175 -0.0199
   55CHL1   C18 4023   4.383   6.500   7.539 -0.2019 -0.4281  0.7455
   55CHL1  H18A 4024   4.439   6.584   7.585 -1.0489  0.6756 -0.1839
   55CHL1  H18B 4025   4.360   6.525   7.433 -4.0507 -0.8035  1.3468
   55CHL1  H18C 4026   4.285   6.497   7.592 -0.0311  0.5772  1.1458
   55CHL1   C12 4027   4.600   6.383   7.486 -0.4848 -0.6688  0.1059
   55CHL1  H12A 4028   4.656   6.473   7.520  0.8771 -1.5772  0.3314
   55CHL1  H12B 4029   4.661   6.291   7.495  0.4221 -0.0589  0.3783
   55CHL1   C11 4030   4.601   6.412   7.330  0.4427 -0.3643 -0.8530
   55CHL1  H11A 4031   4.564   6.517   7.329  0.0745 -0.3717  2.3875
   55CHL1  H11B 4032   4.701   6.409   7.281  0.4730  1.3269 -0.9663
   55CHL1    C9 4033   4.503   6.332   7.243 -0.2486 -0.6672 -0.8233
   55CHL1    H9 4034   4.551   6.232   7.239 -0.2005 -0.6703 -0.2675
   55CHL1   C10 4035   4.489   6.371   7.091 -0.6795 -0.7114 -0.3741
   55CHL1   C19 4036   4.472   6.520   7.075  0.4668 -0.1457 -0.1674
   55CHL1  H19A 4037   4.422   6.555   6.983 -1.3455  1.4008  1.3109
   55CHL1  H19B 4038   4.428   6.567   7.166  1.1995  4.0572 -1.7881
   55CHL1  H19C 4039   4.573   6.566   7.083  0.9510 -1.1079 -0.5462
   55CHL1    C1 4040   4.623   6.333   7.029 -0.2656  0.0332  0.1470
   55CHL1   H1A 4041   4.708   6.389   7.074 -0.9034  1.5724 -0.4612
   55CHL1   H1B 4042   4.650   6.228   7.053  0.0551  0.3655  1.2927
   55CHL1    C2 4043   4.642   6.346   6.877 -0.1196 -0.1570  0.2678
   55CHL1   H2A 4044   4.734   6.295   6.842  0.7327  1.4280  0.1321
   55CHL1   H2B 4045   4.646   6.452   6.843  1.9487 -0.8213 -1.7560
   55CHL1   C20 4046   4.473   6.407   7.810  0.1911 -0.7211 -0.0636
   55CHL1   H20 4047   4.420   6.500   7.779 -0.7982 -1.0300  0.6607
   55CHL1   C21 4048   4.621   6.451   7.809 -0.0464 -0.1442  0.3393
   55CHL1  H21A 4049   4.685   6.360   7.812  0.8503  0.3089 -2.4173
   55CHL1  H21B 4050   4.638   6.518   7.896 -0.8136  1.3011 -0.5667
   55CHL1  H21C 4051   4.644   6.516   7.722  0.5380  1.0266  1.3279
   55CHL1   C22 4052   4.422   6.368   7.951  0.0082  0.2034  1.2821
   55CHL1  H22A 4053   4.454   6.447   8.022 -0.4944  1.0569  0.5821
   55CHL1  H22B 4054   4.311   6.382   7.952  0.1831  2.4437 -1.0102
   55CHL1   C23 4055   4.470   6.250   8.019  0.1986  0.5501  0.1747
   55CHL1  H23A 4056   4.475   6.151   7.968  1.6196 -0.2115  1.6754
   55CHL1  H23B 4057   4.579   6.259   8.042  0.7240 -1.7970 -1.0453
   55CHL1   C24 4058   4.392   6.227   8.152  0.3076  0.4064 -0.1839
   55CHL1  H24A 4059   4.430   6.284   8.239  0.9588 -0.1531 -0.0923
   55CHL1  H24B 4060   4.287   6.251   8.123 -0.5179 -1.4060  1.0839
   55CHL1   C25 4061   4.366   6.078   8.180  0.1856 -0.1694 -0.4992
   55CHL1   H25 4062   4.300   6.040   8.099 -0.8138  1.6458 -0.5882
   55CHL1   C26 4063   4.490   5.988   8.195  0.2811 -0.2922  0.9156
   55CHL1  H26A 4064   4.555   6.038   8.269  0.8937 -0.6773  0.6419
   55CHL1  H26B 4065   4.455   5.883   8.208 -0.2642 -0.2865 -0.2919
   55CHL1  H26C 4066   4.553   5.996   8.104 -1.9769 -2.1169 -0.9590
   55CHL1   C27 4067   4.275   6.076   8.306 -0.1936  0.2076  0.3431
   55CHL1  H27A 4068   4.197   6.154   8.296  1.4823  1.7912 -1.2393
   55CHL1  H27B 4069   4.246   5.970   8.323 -0.2107  0.3190  1.0663
   55CHL1  H27C 4070   4.336   6.111   8.392  0.7356  1.7564 -0.8775
   56CHL1    C3 4071   4.846   3.862   6.884 -0.7482 -0.9519 -0.1548
   56CHL1    H3 4072   4.919   3.946   6.887 -2.2420  0.4595 -1.2703
   56CHL1    O3 4073   4.822   3.843   6.746 -0.2564  0.3803  0.4049
   56CHL1   H3' 4074   4.907   3.877   6.716 -0.3615 -0.7510 -1.3682
   56CHL1    C4 4075   4.908   3.731   6.938 -1.1233 -0.0500  0.0490
   56CHL1   H4A 4076   4.830   3.652   6.937  0.1883 -1.3802 -0.7251
   56CHL1   H4B 4077   4.987   3.692   6.871 -0.1758 -0.6390  1.4709
   56CHL1    C5 4078   4.948   3.735   7.084  0.4429  0.9459  0.5580
   56CHL1    C6 4079   5.073   3.705   7.122  0.3488 -0.6458 -0.0824
   56CHL1    H6 4080   5.142   3.675   7.042  0.1004  2.1016 -1.4188
   56CHL1    C7 4081   5.132   3.709   7.261 -0.3948 -0.1742 -0.1439
   56CHL1   H7A 4082   5.191   3.617   7.277  0.3453  0.4032  0.5120
   56CHL1   H7B 4083   5.197   3.799   7.267 -0.4479 -0.1453 -0.0056
   56CHL1    C8 4084   5.020   3.726   7.365 -0.4062  0.0556 -0.7417
   56CHL1    H8 4085   4.968   3.633   7.394 -0.5184  0.6173  0.9662
   56CHL1   C14 4086   5.083   3.773   7.495  0.2185  0.6393  0.0930
   56CHL1   H14 4087   5.118   3.877   7.475 -1.7794  1.5931  1.2285
   56CHL1   C15 4088   5.205   3.695   7.549  0.7982  0.3909  0.7127
   56CHL1  H15A 4089   5.191   3.585   7.544 -1.1436  0.6204  0.3138
   56CHL1  H15B 4090   5.302   3.724   7.503  2.2155 -2.4296  1.6529
   56CHL1   C16 4091   5.205   3.731   7.696  0.4627  0.0306 -0.3858
   56CHL1  H16A 4092   5.187   3.642   7.760  0.5801  0.8252  0.7683
   56CHL1  H16B 4093   5.294   3.794   7.718  1.5163 -1.5216 -0.0605
   56CHL1   C17 4094   5.078   3.825   7.724  0.0045 -0.4556 -0.1959
   56CHL1   H17 4095   5.099   3.932   7.699 -1.6059  0.2807  1.3932
   56CHL1   C13 4096   4.981   3.788   7.607 -0.0082 -0.7657 -1.0092
   56CHL1   C18 4097   4.911   3.659   7.652  0.0973 -0.3881 -1.0205
   56CHL1  H18A 4098   4.844   3.683   7.736 -0.3022  1.1978 -1.7519
   56CHL1  H18B 4099   4.855   3.615   7.566  2.0584 -1.0810 -2.0167
   56CHL1  H18C 4100   4.979   3.580   7.692 -1.8946 -0.3292  2.8997
   56CHL1   C12 4101   4.881   3.891   7.566  0.2231 -0.0060 -0.4605
   56CHL1  H12A 4102   4.798   3.907   7.638  0.1560  1.9498 -0.9146
   56CHL1  H12B 4103   4.941   3.984   7.557  0.8311 -0.1963  1.2169
   56CHL1   C11 4104   4.809   3.856   7.435 -0.3717 -0.0960  0.7720
   56CHL1  H11A 4105   4.740   3.773   7.462 -1.0773  0.3224  0.2921
   56CHL1  H11B 4106   4.751   3.944   7.399  0.2528 -0.3297 -0.8918
   56CHL1    C9 4107   4.906   3.824   7.315 -0.8920  0.2064 -0.3226
   56CHL1    H9 4108   4.957   3.918   7.284  1.2055 -0.4481  0.8840
   56CHL1   C10 4109   4.836   3.779   7.179 -0.4040  0.2556  0.8046
   56CHL1   C19 4110   4.745   3.656   7.202 -0.2045  0.6680  0.3520
   56CHL1  H19A 4111   4.702   3.612   7.110  1.5824  0.5158 -0.4280
   56CHL1  H19B 4112   4.787   3.568   7.255  3.4012  2.5507  0.9253
   56CHL1  H19C 4113   4.658   3.695   7.261  0.5678 -0.5931  2.4048
   56CHL1    C1 4114   4.760   3.898   7.110  0.2710  0.0643 -0.0229
   56CHL1   H1A 4115   4.667   3.916   7.168  0.3009 -0.5400  0.2241
   56CHL1   H1B 4116   4.823   3.987   7.134  0.1252 -0.3634  2.1739
   56CHL1    C2 4117   4.721   3.898   6.964 -0.2831 -0.0810 -0.7114
   56CHL1   H2A 4118   4.688   4.002   6.945 -0.1094 -0.2848 -2.3139
   56CHL1   H2B 4119   4.634   3.833   6.941 -1.0321 -0.2613  2.2739
   56CHL1   C20 4120   5.041   3.823   7.873  0.8781 -0.3919  0.0455
   56CHL1   H20 4121   5.022   3.716   7.897 -0.4487 -0.7501 -2.3058
   56CHL1   C21 4122   4.909   3.899   7.901 -0.2962  0.3356  0.1236
   56CHL1  H21A 4123   4.884   3.907   8.009 -3.4997 -1.1066 -0.3820
   56CHL1  H21B 4124   4.820   3.848   7.858 -0.6512  2.3653 -1.7087
   56CHL1  H21C 4125   4.932   4.005   7.875 -1.0858  0.6765  0.7498
   56CHL1   C22 4126   5.158   3.893   7.946 -0.3427  0.0612 -0.2763
   56CHL1  H22A 4127   5.257   3.868   7.902 -0.5740 -1.2819 -0.0851
   56CHL1  H22B 4128   5.146   4.003   7.944  1.7882  0.3839 -3.8733
   56CHL1   C23 4129   5.169   3.850   8.095  0.1090  0.1663  0.4724
   56CHL1  H23A 4130   5.084   3.888   8.155  0.4945 -0.9235  1.7579
   56CHL1  H23B 4131   5.163   3.740   8.102 -1.2201  0.0944 -1.1177
   56CHL1   C24 4132   5.290   3.911   8.149  0.0123 -0.2347 -0.3397
   56CHL1  H24A 4133   5.379   3.849   8.126 -0.4525 -1.9475  2.0290
   56CHL1  H24B 4134   5.301   4.011   8.101 -2.4855  1.0514  1.4735
   56CHL1   C25 4135   5.298   3.943   8.300  0.5332 -0.1378  0.0810
   56CHL1   H25 4136   5.273   3.847   8.350 -0.8427 -0.7947 -1.7591
   56CHL1   C26 4137   5.436   3.996   8.342 -0.3733  0.1985  0.4980
   56CHL1  H26A 4138   5.431   4.031   8.447  1.3879 -1.5933  1.2470
   56CHL1  H26B 4139   5.466   4.080   8.276 -0.7362 -0.1390 -0.1071
   56CHL1  H26C 4140   5.513   3.916   8.333 -0.3478  0.4222 -2.0749
   56CHL1   C27 4141   5.187   4.045   8.342 -0.3739 -0.1697 -0.4452
   56CHL1  H27A 4142   5.082   4.011   8.339  0.1177 -1.7095 -1.4449
   56CHL1  H27B 4143   5.217   4.081   8.442  2.6977  0.9479 -1.6426
   56CHL1  H27C 4144   5.200   4.135   8.278  1.7164  0.3440  0.5908
   57SAPC     N 4145   5.518   0.183  11.098 -0.7800 -0.2680  0.0925
   57SAPC   C12 4146   5.598   0.260  10.992 -0.1309 -0.0434 -0.2082
   57SAPC  H12A 4147   5.548   0.352  10.966  1.2144  0.1893 -2.1271
   57SAPC  H12B 4148   5.600   0.198  10.904 -0.6010  1.7796 -1.5521
   57SAPC   C13 4149   5.376   0.166  11.041  0.0740  0.2628 -0.7822
   57SAPC  H13A 4150   5.315   0.110  11.109  1.7219 -1.7924 -0.8843
   57SAPC  H13B 4151   5.338   0.262  11.011 -0.7776 -0.0835 -0.8369
   57SAPC  H13C 4152   5.384   0.115  10.946 -0.6026 -2.4591  0.5411
   57SAPC   C14 4153   5.576   0.051  11.129  0.4086 -0.5908  0.3347
   57SAPC  H14A 4154   5.680   0.077  11.142  0.1214  0.6785  0.2275
   57SAPC  H14B 4155   5.539   0.002  11.217 -1.4258  1.2251  0.6454
   57SAPC  H14C 4156   5.566  -0.012  11.042 -0.2075  1.4066 -1.1191
   57SAPC   C15 4157   5.512   0.261  11.226 -0.3361 -0.7671 -0.3347
   57SAPC  H15A 4158   5.427   0.237  11.289 -1.1822  0.9649 -0.7422
   57SAPC  H15B 4159   5.599   0.267  11.289 -0.6123  3.9470 -0.0305
   57SAPC  H15C 4160   5.486   0.365  11.211 -2.0807 -1.1173 -0.0106
   57SAPC   C11 4161   5.751   0.284  11.026  0.1384  0.0697 -0.7043
   57SAPC  H11A 4162   5.744   0.328  11.128  1.1864 -1.2362 -0.0419
   57SAPC  H11B 4163   5.803   0.370  10.978 -0.7682  0.8328 -0.3678
   57SAPC     P 4164   5.899   0.100  10.925 -0.4388  0.0120  0.0210
   57SAPC   O13 4165   6.015   0.185  10.887 -0.5234  1.3391  0.3802
   57SAPC   O14 4166   5.925  -0.041  10.961 -0.2830 -0.3138 -0.7641
   57SAPC   O12 4167   5.830   0.171  11.043 -0.4943 -0.3769 -0.7291
   57SAPC   O11 4168   5.788   0.109  10.809  0.4812  0.2168  0.1535
   57SAPC    C1 4169   5.776   0.193  10.696 -0.6398 -0.4093 -0.1806
   57SAPC    HA 4170   5.670   0.205  10.665 -0.9584  0.7603  1.2312
   57SAPC    HB 4171   5.819   0.294  10.717  1.3149 -1.2121 -0.1478
   57SAPC    C2 4172   5.874   0.143  10.586 -0.1606 -0.5108 -0.3343
   57SAPC    HS 4173   5.973   0.156  10.635 -1.6997  1.3991  2.5567
   57SAPC   O21 4174   5.846   0.225  10.466  0.0171 -0.0290 -0.6040
   57SAPC   C21 4175   5.909   0.342  10.450  0.0215  0.6918 -0.3357
   57SAPC   O22 4176   5.988   0.383  10.531  0.0266 -0.4568  0.1734
   57SAPC   C22 4177   5.873   0.409  10.318 -0.1311 -0.1236  0.4761
   57SAPC   H2R 4178   5.877   0.331  10.239  0.4806 -0.3202  0.6975
   57SAPC   H2S 4179   5.767   0.441  10.313 -0.3041 -0.8851 -1.2311
   57SAPC    C3 4180   5.848  -0.006  10.558 -0.0602 -0.0565  0.4029
   57SAPC    HX 4181   5.744  -0.018  10.521  0.0367  2.8533 -1.1471
   57SAPC    HY 4182   5.858  -0.065  10.651 -1.4249 -1.7777 -0.4871
   57SAPC   O31 4183   5.949  -0.035  10.460 -0.0053 -0.0612 -0.3218
   57SAPC   C31 4184   5.944  -0.160  10.422  0.2181  0.3948  0.1649
   57SAPC   O32 4185   5.887  -0.251  10.485 -0.0598 -0.2985  0.3013
   57SAPC   C32 4186   6.022  -0.192  10.294 -0.1059 -0.1973 -0.6266
   57SAPC   H2X 4187   6.085  -0.281  10.319 -0.5355  0.1593  1.9620
   57SAPC   H2Y 4188   6.080  -0.102  10.266 -0.2699  0.0034 -0.3130
   57SAPC   C23 4189   5.965   0.531  10.285 -0.4836 -0.0312  0.1992
   57SAPC   H3R 4190   6.069   0.496  10.300 -0.8025 -2.1096 -1.9129
   57SAPC   H3S 4191   5.931   0.616  10.348 -0.2280 -1.1078  1.8518
   57SAPC   C24 4192   5.963   0.563  10.137  0.1523  0.4365  0.0262
   57SAPC   H4R 4193   5.968   0.463  10.090  0.3620 -0.2885  1.5109
   57SAPC   H4S 4194   6.064   0.605  10.117 -1.2070  3.2207 -1.5672
   57SAPC   C25 4195   5.862   0.668  10.096 -0.9143  0.0716 -0.4737
   57SAPC   H5R 4196   5.850   0.749  10.170  0.0529  1.5011 -1.8095
   57SAPC   C26 4197   5.786   0.673   9.985  1.0051  0.2580 -0.3197
   57SAPC   H6R 4198   5.712   0.755   9.990  1.3195  0.4790  3.4238
   57SAPC   C27 4199   5.774   0.574   9.880 -0.7933  0.8326 -0.4309
   57SAPC   H7R 4200   5.738   0.476   9.919 -0.8018  1.0549  0.1247
   57SAPC   H7S 4201   5.878   0.560   9.844  0.0291  1.0381  1.7065
   57SAPC   C28 4202   5.676   0.612   9.776  0.5878 -1.0946 -0.3973
   57SAPC   H8R 4203   5.591   0.672   9.810 -0.1325 -2.2462 -0.1195
   57SAPC   C29 4204   5.669   0.577   9.644 -0.0077  0.0315 -0.5027
   57SAPC   H9R 4205   5.596   0.624   9.576  0.1919  0.3278 -0.5132
   57SAPC  C210 4206   5.769   0.482   9.582 -0.0143  0.3111 -0.0367
   57SAPC  H10R 4207   5.714   0.423   9.505  1.4377 -1.3953  0.1445
   57SAPC  H10S 4208   5.812   0.405   9.650  0.0033  0.5288  0.1961
   57SAPC  C211 4209   5.884   0.569   9.537  0.1700 -0.0528  0.5752
   57SAPC  H11R 4210   5.896   0.656   9.603  1.6357  0.7847 -0.6948
   57SAPC  C212 4211   5.951   0.557   9.424  0.1242  0.0177 -0.4137
   57SAPC  H12R 4212   6.045   0.611   9.401  0.4481 -1.3206 -2.4724
   57SAPC  C213 4213   5.919   0.441   9.334  0.3397 -0.2431  0.0030
   57SAPC  H13R 4214   5.813   0.447   9.302 -0.9913 -4.3667  2.7191
   57SAPC  H13S 4215   5.937   0.344   9.384 -2.2497 -0.9586 -0.3092
   57SAPC  C214 4216   6.008   0.440   9.219  0.2975  0.2131 -0.1729
   57SAPC  H14R 4217   6.077   0.523   9.201  0.7861 -0.5345 -2.0742
   57SAPC  C215 4218   6.018   0.340   9.128 -0.8174  0.5137  1.1526
   57SAPC  H15R 4219   6.067   0.350   9.030 -1.7983  0.6350  0.6702
   57SAPC  C216 4220   5.934   0.213   9.135  0.0174 -0.6089 -0.4291
   57SAPC  H16R 4221   5.909   0.193   9.241 -1.1765 -1.6850 -0.8776
   57SAPC  H16S 4222   5.980   0.127   9.081 -0.1242 -1.0574  0.1531
   57SAPC  C217 4223   5.792   0.225   9.080 -0.0733 -0.6741  0.5420
   57SAPC  H17R 4224   5.746   0.316   9.122 -1.4992 -0.4211 -1.4454
   57SAPC  H17S 4225   5.739   0.129   9.098 -3.4799  0.6580 -1.3995
   57SAPC  C218 4226   5.779   0.258   8.930 -0.8515 -0.0423  0.9219
   57SAPC  H18R 4227   5.816   0.174   8.868 -0.6568 -0.1270  1.1485
   57SAPC  H18S 4228   5.847   0.341   8.904  0.7562 -0.9295  2.1094
   57SAPC  C219 4229   5.633   0.266   8.875  0.5506  0.4056 -0.4759
   57SAPC  H19R 4230   5.570   0.180   8.905 -0.0515 -0.3571 -3.5867
   57SAPC  H19S 4231   5.644   0.272   8.765 -1.1822 -1.5418 -0.8142
   57SAPC  C220 4232   5.576   0.400   8.917  0.3691 -0.3438 -0.2108
   57SAPC  H20R 4233   5.579   0.419   9.027  0.6089  0.9620 -0.4265
   57SAPC  H20S 4234   5.471   0.419   8.889  0.3993 -0.4133 -0.3719
   57SAPC  H20T 4235   5.637   0.482   8.874  1.1108 -1.2069 -0.8433
   57SAPC   C33 4236   5.928  -0.225  10.172 -0.1852  0.3424  0.0839
   57SAPC   H3X 4237   5.991  -0.218  10.080 -0.7224 -2.2836 -0.5641
   57SAPC   H3Y 4238   5.842  -0.156  10.164 -0.9111 -0.6290 -0.7746
   57SAPC   C34 4239   5.890  -0.367  10.172  0.7130  0.3669 -0.4998
   57SAPC   H4X 4240   5.843  -0.389  10.270  0.5603 -0.4220 -0.7397
   57SAPC   H4Y 4241   5.977  -0.433  10.155  0.5290 -0.4111  1.3452
   57SAPC   C35 4242   5.780  -0.396  10.069  0.2131  0.5204  0.6852
   57SAPC   H5X 4243   5.679  -0.353  10.084 -0.4595 -1.1096  1.0580
   57SAPC   H5Y 4244   5.764  -0.505  10.083 -2.1619  0.6593 -0.4094
   57SAPC   C36 4245   5.819  -0.355   9.918 -0.5768 -0.0627 -0.6700
   57SAPC   H6X 4246   5.915  -0.404   9.891 -1.0627 -1.1020 -0.5715
   57SAPC   H6Y 4247   5.838  -0.246   9.906 -0.1587 -0.2270 -1.5059
   57SAPC   C37 4248   5.722  -0.417   9.816  0.6358  0.2751  0.3108
   57SAPC   H7X 4249   5.617  -0.405   9.851  0.8003 -0.8124  1.2252
   57SAPC   H7Y 4250   5.736  -0.527   9.816  1.3305  0.3086 -2.0242
   57SAPC   C38 4251   5.729  -0.363   9.672 -0.1724  0.3429 -0.7303
   57SAPC   H8X 4252   5.828  -0.399   9.638 -1.6048 -4.8509 -0.2996
   57SAPC   H8Y 4253   5.722  -0.252   9.672 -1.6975  0.2699 -1.3248
   57SAPC   C39 4254   5.624  -0.412   9.581  0.0366  0.6795  0.2430
   57SAPC   H9X 4255   5.525  -0.378   9.618 -2.6083 -3.4343 -2.2184
   57SAPC   H9Y 4256   5.618  -0.523   9.581  2.3760  0.4643 -1.8966
   57SAPC  C310 4257   5.636  -0.353   9.437 -0.1112 -0.0156  0.0937
   57SAPC  H10X 4258   5.736  -0.374   9.395  0.4689  1.0998  0.8741
   57SAPC  H10Y 4259   5.633  -0.242   9.440  0.6128  0.0499 -1.2372
   57SAPC  C311 4260   5.529  -0.407   9.343  0.2264 -0.2700  0.2042
   57SAPC  H11X 4261   5.555  -0.370   9.242  1.0030  0.6731  0.7305
   57SAPC  H11Y 4262   5.432  -0.364   9.378 -0.1741 -0.7218 -0.3252
   57SAPC  C312 4263   5.525  -0.565   9.340  0.1594 -0.0880 -0.3906
   57SAPC  H12X 4264   5.481  -0.607   9.432  0.5291  2.5248  1.0851
   57SAPC  H12Y 4265   5.627  -0.608   9.349 -0.1859 -0.6198  1.2033
   57SAPC  C313 4266   5.451  -0.621   9.218  0.2749 -0.2475  0.3246
   57SAPC  H13X 4267   5.456  -0.732   9.212 -0.6911 -0.2184 -2.6775
   57SAPC  H13Y 4268   5.497  -0.590   9.122 -1.4557  1.0964 -0.1242
   57SAPC  C314 4269   5.308  -0.575   9.207 -0.7154  0.0345 -0.2238
   57SAPC  H14X 4270   5.299  -0.464   9.215 -3.7701 -0.2249  1.5343
   57SAPC  H14Y 4271   5.247  -0.616   9.290  0.2959 -0.5248  0.2647
   57SAPC  C315 4272   5.259  -0.602   9.063 -0.4179  0.0497  0.2111
   57SAPC  H15X 4273   5.251  -0.712   9.048  1.0829 -0.2591  1.5162
   57SAPC  H15Y 4274   5.334  -0.574   8.987 -1.1032 -0.2322 -0.5819
   57SAPC  C316 4275   5.131  -0.517   9.034  0.0361 -0.0982  0.6553
   57SAPC  H16X 4276   5.155  -0.413   9.065  0.6525  0.0763 -0.3455
   57SAPC  H16Y 4277   5.064  -0.542   9.119  0.9518 -0.8048  1.1838
   57SAPC  C317 4278   5.061  -0.537   8.893 -0.0484 -0.0890 -1.3923
   57SAPC  H17X 4279   5.137  -0.509   8.818  1.2171  2.6149  0.7107
   57SAPC  H17Y 4280   4.991  -0.451   8.885  1.9519  1.5991 -1.6151
   57SAPC  C318 4281   4.987  -0.671   8.883 -0.8821 -0.3963 -0.1244
   57SAPC  H18X 4282   5.043  -0.757   8.925 -0.1515 -1.1789 -2.4926
   57SAPC  H18Y 4283   4.964  -0.684   8.775 -2.0567 -0.3703  0.1139
   57SAPC  H18Z 4284   4.891  -0.661   8.937 -0.3438  0.6751  0.6508
   58SAPC     N 4285   5.492   2.512  11.198  0.0921 -0.4061  0.0602
   58SAPC   C12 4286   5.597   2.604  11.154 -0.6596  0.1150 -0.1480
   58SAPC  H12A 4287   5.619   2.667  11.239  0.5003  2.3992 -2.0396
   58SAPC  H12B 4288   5.557   2.671  11.080 -1.0463 -0.4507 -0.4629
   58SAPC   C13 4289   5.424   2.436  11.089  0.2012 -0.0514  0.2271
   58SAPC  H13A 4290   5.508   2.393  11.037  2.1464  2.0785  1.4140
   58SAPC  H13B 4291   5.347   2.371  11.127 -1.4333  1.1078 -0.9424
   58SAPC  H13C 4292   5.370   2.499  11.019  0.6441 -0.8335 -0.8535
   58SAPC   C14 4293   5.538   2.408  11.294  0.4849 -0.0254  0.4459
   58SAPC  H14A 4294   5.605   2.339  11.244 -1.2130 -1.1044 -0.4650
   58SAPC  H14B 4295   5.575   2.452  11.385 -2.3528 -0.7871  2.0838
   58SAPC  H14C 4296   5.451   2.347  11.316  0.0094  0.0267 -1.1300
   58SAPC   C15 4297   5.382   2.586  11.269 -0.2426  0.3520 -0.1889
   58SAPC  H15A 4298   5.356   2.672  11.209 -2.0834  0.4858  0.7361
   58SAPC  H15B 4299   5.292   2.526  11.270  1.0721 -1.8627 -2.8415
   58SAPC  H15C 4300   5.407   2.623  11.368 -0.3369  0.0451 -0.0479
   58SAPC   C11 4301   5.725   2.537  11.087  0.4592 -0.4277  0.8167
   58SAPC  H11A 4302   5.761   2.448  11.142  0.1844 -1.0492 -0.0003
   58SAPC  H11B 4303   5.801   2.618  11.092  0.9126 -0.8046  0.1749
   58SAPC     P 4304   5.682   2.617  10.838 -0.0554  0.1480 -0.0026
   58SAPC   O13 4305   5.550   2.682  10.854  0.0299 -0.1966 -0.1398
   58SAPC   O14 4306   5.799   2.704  10.838 -0.0147  0.4100 -0.0557
   58SAPC   O12 4307   5.689   2.506  10.952  0.7580  0.7100 -0.1704
   58SAPC   O11 4308   5.665   2.530  10.704  0.2037 -0.0457  0.2607
   58SAPC    C1 4309   5.577   2.423  10.674  0.2561 -0.1352 -0.1740
   58SAPC    HA 4310   5.633   2.331  10.697  0.5371  0.1214  0.1734
   58SAPC    HB 4311   5.485   2.440  10.734  0.5751  1.2967 -0.0510
   58SAPC    C2 4312   5.532   2.420  10.521  0.0170 -0.5264 -0.0682
   58SAPC    HS 4313   5.426   2.388  10.506  0.1469 -0.6304 -0.7775
   58SAPC   O21 4314   5.630   2.335  10.460 -0.2965 -0.0270  0.4343
   58SAPC   C21 4315   5.576   2.238  10.371  0.6460 -0.4603  0.5200
   58SAPC   O22 4316   5.455   2.202  10.374 -0.6510 -0.2782 -0.3752
   58SAPC   C22 4317   5.685   2.187  10.282 -0.3347 -0.9626 -0.2711
   58SAPC   H2R 4318   5.729   2.278  10.236 -1.6887  0.1388  0.5223
   58SAPC   H2S 4319   5.757   2.129  10.343 -0.6392  0.6864  1.8006
   58SAPC    C3 4320   5.531   2.569  10.456  0.4233  0.0648 -0.2679
   58SAPC    HX 4321   5.639   2.593  10.446  0.1856  2.6598  2.2217
   58SAPC    HY 4322   5.472   2.636  10.522 -0.8732 -0.1030 -1.2171
   58SAPC   O31 4323   5.462   2.555  10.326  0.4262 -0.2594  0.0815
   58SAPC   C31 4324   5.385   2.655  10.284  0.1859 -0.5583 -0.0443
   58SAPC   O32 4325   5.380   2.760  10.336  0.2072 -0.2370  0.1066
   58SAPC   C32 4326   5.306   2.627  10.157  0.2167 -0.2103  0.2209
   58SAPC   H2X 4327   5.359   2.672  10.070 -0.5220 -0.3331 -0.3032
   58SAPC   H2Y 4328   5.201   2.662  10.160 -0.4302 -1.7640 -1.7134
   58SAPC   C23 4329   5.645   2.089  10.167 -0.3371 -1.5238  0.6835
   58SAPC   H3R 4330   5.601   1.997  10.210 -2.3526 -0.6543  0.5654
   58SAPC   H3S 4331   5.731   2.046  10.111 -0.0153 -2.5024  1.8725
   58SAPC   C24 4332   5.535   2.144  10.073 -0.1752  0.9703 -0.0098
   58SAPC   H4R 4333   5.566   2.246  10.042 -3.4658  1.4330 -2.2755
   58SAPC   H4S 4334   5.436   2.154  10.122 -1.2860 -2.7690 -1.1300
   58SAPC   C25 4335   5.513   2.052   9.947 -0.1930  0.3359 -0.1205
   58SAPC   H5R 4336   5.488   1.949   9.978  1.8283  0.4898  2.4253
   58SAPC   C26 4337   5.526   2.087   9.817  0.0930 -0.0064  0.3156
   58SAPC   H6R 4338   5.512   2.012   9.738 -0.9884  0.8156 -0.3039
   58SAPC   C27 4339   5.567   2.223   9.761  0.2857 -0.5161  0.0091
   58SAPC   H7R 4340   5.573   2.304   9.837  2.6786 -3.4030  3.1907
   58SAPC   H7S 4341   5.483   2.247   9.692 -0.2558 -3.3399 -0.4159
   58SAPC   C28 4342   5.699   2.219   9.696 -0.1480 -0.1623 -0.0248
   58SAPC   H8R 4343   5.783   2.205   9.765  0.1632  2.2604  0.1577
   58SAPC   C29 4344   5.719   2.236   9.566 -0.3357  0.0010 -0.3315
   58SAPC   H9R 4345   5.816   2.213   9.520 -1.6431 -0.9731 -2.7464
   58SAPC  C210 4346   5.625   2.270   9.454  0.3792  0.6201  0.6169
   58SAPC  H10R 4347   5.540   2.198   9.455  1.6690 -1.1895 -2.7092
   58SAPC  H10S 4348   5.674   2.239   9.359 -1.3529  0.4515 -0.2802
   58SAPC  C211 4349   5.566   2.408   9.448 -0.0528  0.2265  0.3179
   58SAPC  H11R 4350   5.530   2.444   9.545 -4.0895 -1.0298 -0.5282
   58SAPC  C212 4351   5.543   2.481   9.332 -0.0236  0.0483 -0.3645
   58SAPC  H12R 4352   5.479   2.569   9.346 -1.7909 -0.9802 -1.5968
   58SAPC  C213 4353   5.564   2.443   9.192 -0.1719  0.4225  0.6175
   58SAPC  H13R 4354   5.564   2.332   9.191 -1.7959  0.3890  1.3984
   58SAPC  H13S 4355   5.661   2.481   9.154  0.3750 -0.1263  1.4138
   58SAPC  C214 4356   5.440   2.493   9.115  1.7109  0.1302  0.9924
   58SAPC  H14R 4357   5.338   2.474   9.151  2.2197 -1.7837  1.5086
   58SAPC  C215 4358   5.441   2.554   9.000  0.1561 -0.1238  0.2139
   58SAPC  H15R 4359   5.341   2.577   8.960  1.9676  3.0698 -3.1292
   58SAPC  C216 4360   5.560   2.618   8.917  0.2230  0.1958 -0.1315
   58SAPC  H16R 4361   5.657   2.583   8.957  0.1215 -0.9802 -0.8391
   58SAPC  H16S 4362   5.561   2.728   8.935  1.4995  0.5501 -2.0332
   58SAPC  C217 4363   5.552   2.595   8.768 -0.0430 -0.4896  0.1656
   58SAPC  H17R 4364   5.452   2.620   8.727 -0.4001 -1.1642  0.6085
   58SAPC  H17S 4365   5.552   2.485   8.754  0.1983 -0.6313  1.2029
   58SAPC  C218 4366   5.665   2.654   8.685  0.0395 -0.5658  0.4565
   58SAPC  H18R 4367   5.761   2.610   8.718 -0.2597  0.3903  2.8024
   58SAPC  H18S 4368   5.668   2.763   8.706 -0.1623 -0.2098 -1.2204
   58SAPC  C219 4369   5.657   2.627   8.535  0.0751 -0.1264 -0.8748
   58SAPC  H19R 4370   5.693   2.526   8.508 -0.3290  0.0649 -2.1785
   58SAPC  H19S 4371   5.727   2.696   8.484  2.3383 -1.9392 -0.3453
   58SAPC  C220 4372   5.523   2.660   8.467  0.1289 -0.6968  0.0253
   58SAPC  H20R 4373   5.460   2.569   8.470 -0.2760 -0.4687 -1.0016
   58SAPC  H20S 4374   5.533   2.688   8.359  0.0463  1.6611  0.5686
   58SAPC  H20T 4375   5.465   2.741   8.517 -2.9284 -3.0705  0.5931
   58SAPC   C33 4376   5.280   2.465  10.131 -1.1401  0.2835 -0.3522
   58SAPC   H3X 4377   5.256   2.423  10.231 -0.2664 -0.5930 -0.4920
   58SAPC   H3Y 4378   5.377   2.421  10.100 -0.3688  2.0800 -0.6128
   58SAPC   C34 4379   5.162   2.435  10.042 -0.3462  0.3744  0.7708
   58SAPC   H4X 4380   5.083   2.508  10.070 -1.8371 -1.9639  3.1385
   58SAPC   H4Y 4381   5.115   2.338  10.069  0.0146 -0.2911 -0.8421
   58SAPC   C35 4382   5.202   2.424   9.897  0.2785 -0.5275 -0.3669
   58SAPC   H5X 4383   5.299   2.372   9.888  0.2701 -0.6166  0.0448
   58SAPC   H5Y 4384   5.216   2.530   9.865 -0.2862 -0.9521 -2.1291
   58SAPC   C36 4385   5.110   2.344   9.805 -0.1040 -0.5244  0.0605
   58SAPC   H6X 4386   5.005   2.374   9.827 -0.9575 -2.8923 -0.4352
   58SAPC   H6Y 4387   5.115   2.233   9.816 -0.5020 -0.3552  2.3048
   58SAPC   C37 4388   5.132   2.379   9.654  0.6569  0.4895 -0.1726
   58SAPC   H7X 4389   5.225   2.326   9.625  0.8586  0.9160 -0.3129
   58SAPC   H7Y 4390   5.148   2.489   9.654  1.0038  0.4450  0.4931
   58SAPC   C38 4391   5.008   2.351   9.570 -0.4483  0.9206 -0.2121
   58SAPC   H8X 4392   4.920   2.399   9.617 -0.3703  1.6462 -0.7824
   58SAPC   H8Y 4393   4.979   2.244   9.571  0.5782  0.6195 -0.6352
   58SAPC   C39 4394   5.038   2.390   9.421  0.1289  0.2398 -0.1764
   58SAPC   H9X 4395   5.126   2.329   9.389 -0.8233 -0.3300 -1.8204
   58SAPC   H9Y 4396   5.066   2.497   9.433 -0.2551  0.4942 -1.3974
   58SAPC  C310 4397   4.929   2.368   9.327 -0.1273 -0.2563  1.4167
   58SAPC  H10X 4398   4.836   2.419   9.358  0.4851  2.3162 -0.6826
   58SAPC  H10Y 4399   4.906   2.259   9.330 -0.1652 -0.2661  0.7562
   58SAPC  C311 4400   4.956   2.411   9.180  0.3493 -0.2578 -1.1566
   58SAPC  H11X 4401   4.976   2.520   9.177  0.1499 -0.0196  1.9686
   58SAPC  H11Y 4402   4.863   2.399   9.121  0.6681 -1.0106 -1.5176
   58SAPC  C312 4403   5.048   2.320   9.103 -0.3923  0.0571 -0.5903
   58SAPC  H12X 4404   5.010   2.216   9.111  1.1391 -0.5218 -0.4520
   58SAPC  H12Y 4405   5.149   2.326   9.149 -0.6900  2.4292 -0.1325
   58SAPC  C313 4406   5.060   2.367   8.955 -0.5053 -0.4806 -0.3875
   58SAPC  H13X 4407   5.057   2.478   8.962 -2.5255 -0.5538  0.8026
   58SAPC  H13Y 4408   4.962   2.335   8.913 -0.2277 -1.7348 -0.1294
   58SAPC  C314 4409   5.174   2.304   8.869 -0.4091 -0.7417 -0.8921
   58SAPC  H14X 4410   5.176   2.193   8.882  0.1966 -0.5516  0.9051
   58SAPC  H14Y 4411   5.273   2.341   8.901 -1.0365 -1.0845  1.7019
   58SAPC  C315 4412   5.163   2.342   8.722  0.0750 -0.0620  0.4220
   58SAPC  H15X 4413   5.189   2.450   8.728 -2.2335  0.7043 -1.8102
   58SAPC  H15Y 4414   5.058   2.345   8.686 -0.6843  3.7819  2.4389
   58SAPC  C316 4415   5.261   2.282   8.621 -0.2989  0.4856 -0.5413
   58SAPC  H16X 4416   5.235   2.174   8.614 -0.4641  0.5706 -1.3127
   58SAPC  H16Y 4417   5.368   2.297   8.646 -1.3891  2.1537  4.2015
   58SAPC  C317 4418   5.249   2.343   8.487 -0.5312 -0.7863 -0.0731
   58SAPC  H17X 4419   5.264   2.453   8.488 -1.3807 -0.4564 -4.5362
   58SAPC  H17Y 4420   5.145   2.334   8.449 -0.9923  0.1093  0.9269
   58SAPC  C318 4421   5.327   2.274   8.386  0.2936 -0.7794  0.6997
   58SAPC  H18X 4422   5.436   2.274   8.408  0.2641 -1.6666  0.8652
   58SAPC  H18Y 4423   5.318   2.322   8.286  1.2223  2.2694  1.9679
   58SAPC  H18Z 4424   5.298   2.167   8.384  1.9737 -1.2677 -2.2489
   59SAPC     N 4425   0.946   2.400  11.211 -0.4473 -0.0442  0.8385
   59SAPC   C12 4426   1.036   2.467  11.109 -0.1356  0.3227  0.2675
   59SAPC  H12A 4427   1.085   2.398  11.041 -0.1803  2.7257 -2.4396
   59SAPC  H12B 4428   1.120   2.515  11.157 -1.8594  4.5553 -0.4780
   59SAPC   C13 4429   1.031   2.320  11.311 -0.0588  0.0641 -0.9705
   59SAPC  H13A 4430   0.967   2.289  11.392  0.1846  1.5102 -0.1920
   59SAPC  H13B 4431   1.076   2.231  11.269  1.3687 -0.3151  1.1920
   59SAPC  H13C 4432   1.112   2.370  11.362  1.5108 -0.8856 -2.4229
   59SAPC   C14 4433   0.889   2.510  11.301 -0.1718  0.6660  0.9036
   59SAPC  H14A 4434   0.962   2.566  11.358 -0.9712 -0.6064  3.3116
   59SAPC  H14B 4435   0.821   2.569  11.240 -0.5646 -1.5548 -0.9453
   59SAPC  H14C 4436   0.822   2.464  11.372 -1.4089  0.1192 -0.5499
   59SAPC   C15 4437   0.846   2.308  11.154 -0.1391 -0.0818 -0.4844
   59SAPC  H15A 4438   0.805   2.260  11.242 -0.9076  0.2812 -0.6394
   59SAPC  H15B 4439   0.775   2.365  11.096 -0.7335 -1.6415 -1.3200
   59SAPC  H15C 4440   0.884   2.230  11.090  0.3422 -0.4029  0.1735
   59SAPC   C11 4441   0.959   2.571  11.016 -0.2279 -0.0007  0.2630
   59SAPC  H11A 4442   0.865   2.523  10.981 -0.4081  1.7359 -1.8737
   59SAPC  H11B 4443   1.030   2.589  10.932 -0.6352  1.2048  0.1723
   59SAPC     P 4444   1.019   2.803  11.123  0.4151  0.0411  0.0352
   59SAPC   O13 4445   0.966   2.883  11.234 -0.5007  0.1078 -0.1835
   59SAPC   O14 4446   1.154   2.751  11.143  0.1072  0.8771  0.1334
   59SAPC   O12 4447   0.918   2.692  11.084 -0.4444 -0.2239  0.4014
   59SAPC   O11 4448   1.007   2.880  10.991 -0.0104  0.1558  0.2341
   59SAPC    C1 4449   0.898   2.940  10.937  0.1767 -0.0951  0.2545
   59SAPC    HA 4450   0.805   2.880  10.946 -0.4094  0.6546 -0.5547
   59SAPC    HB 4451   0.877   3.035  10.991 -0.5007 -0.5998  0.8992
   59SAPC    C2 4452   0.923   2.979  10.790  0.9352 -0.4018 -0.2804
   59SAPC    HS 4453   0.826   3.006  10.743  0.0826 -2.2183  0.3586
   59SAPC   O21 4454   0.996   2.880  10.712  0.6414  0.0377  0.1460
   59SAPC   C21 4455   0.938   2.761  10.694 -0.1672 -0.2208 -0.2945
   59SAPC   O22 4456   0.824   2.732  10.732 -0.0353  0.1648  0.2206
   59SAPC   C22 4457   1.035   2.662  10.621  0.0498 -0.1360  0.3641
   59SAPC   H2R 4458   1.123   2.652  10.689 -1.6215 -0.2107  2.6398
   59SAPC   H2S 4459   0.979   2.567  10.610  0.3469 -0.2881  0.1627
   59SAPC    C3 4460   1.000   3.110  10.798 -0.1545 -0.5904  0.1998
   59SAPC    HX 4461   1.105   3.089  10.829  0.6522  0.3551 -1.6770
   59SAPC    HY 4462   0.974   3.193  10.866  2.2163  0.4699 -0.0983
   59SAPC   O31 4463   0.989   3.167  10.665 -0.0799 -0.1940 -0.0706
   59SAPC   C31 4464   1.097   3.172  10.593  0.1676 -0.5888  0.0575
   59SAPC   O32 4465   1.206   3.135  10.630 -0.6406 -0.2188 -0.3370
   59SAPC   C32 4466   1.057   3.236  10.456 -0.2718  0.2289 -0.1102
   59SAPC   H2X 4467   1.057   3.346  10.474  0.7796  0.4192 -1.2024
   59SAPC   H2Y 4468   0.950   3.207  10.442 -0.8301  2.4637 -0.8741
   59SAPC   C23 4469   1.072   2.712  10.482  0.1034 -0.7372  0.2998
   59SAPC   H3R 4470   1.163   2.658  10.447  1.2248  0.2381  1.5823
   59SAPC   H3S 4471   1.098   2.820  10.485  2.6739 -1.3020  0.7412
   59SAPC   C24 4472   0.964   2.696  10.371  0.3070 -0.2035 -0.8668
   59SAPC   H4R 4473   0.985   2.781  10.301  3.5473 -0.3241 -0.1783
   59SAPC   H4S 4474   0.875   2.726  10.430  0.3000 -0.3560 -0.8015
   59SAPC   C25 4475   0.938   2.561  10.307 -0.3410 -0.0027  0.0764
   59SAPC   H5R 4476   0.938   2.481  10.383  1.0230  0.1951  0.3115
   59SAPC   C26 4477   0.900   2.532  10.189  0.1840 -0.0637 -0.2278
   59SAPC   H6R 4478   0.887   2.426  10.161  0.1313  0.6555 -3.2613
   59SAPC   C27 4479   0.870   2.633  10.077 -0.1411  0.1023  0.3122
   59SAPC   H7R 4480   0.927   2.604   9.987 -0.7272  1.5656 -0.5736
   59SAPC   H7S 4481   0.883   2.734  10.120  0.4885 -1.2582  3.6425
   59SAPC   C28 4482   0.719   2.620  10.036 -0.7417  0.7575 -0.0928
   59SAPC   H8R 4483   0.649   2.661  10.110  0.2842  2.8389 -0.1914
   59SAPC   C29 4484   0.663   2.589   9.920  0.2789  0.1178  0.4626
   59SAPC   H9R 4485   0.553   2.596   9.909  0.4330  1.2320 -0.5901
   59SAPC  C210 4486   0.733   2.537   9.798  0.3074  0.8850  0.7812
   59SAPC  H10R 4487   0.679   2.458   9.742  0.3754  1.1021  0.4035
   59SAPC  H10S 4488   0.825   2.484   9.827  0.4703 -0.6273 -2.1182
   59SAPC  C211 4489   0.784   2.644   9.708 -0.0089 -0.3563 -0.4544
   59SAPC  H11R 4490   0.874   2.699   9.742  0.2157 -0.8207 -0.2846
   59SAPC  C212 4491   0.721   2.680   9.594  0.3057  1.1140  0.7391
   59SAPC  H12R 4492   0.768   2.753   9.527  2.8190  0.8494  2.0721
   59SAPC  C213 4493   0.594   2.622   9.542 -0.3136  0.0906  0.5134
   59SAPC  H13R 4494   0.596   2.511   9.534  1.8094  0.1026  0.2822
   59SAPC  H13S 4495   0.597   2.642   9.433 -1.7870 -0.6933  0.2958
   59SAPC  C214 4496   0.474   2.688   9.605 -0.5940 -0.4174  0.3578
   59SAPC  H14R 4497   0.483   2.720   9.710  0.1166  1.0313 -0.1211
   59SAPC  C215 4498   0.365   2.721   9.537 -0.1014  0.0392  0.2326
   59SAPC  H15R 4499   0.286   2.780   9.588  1.2149  1.7218  0.4089
   59SAPC  C216 4500   0.338   2.676   9.390 -0.2136  0.3322  0.4485
   59SAPC  H16R 4501   0.257   2.599   9.394 -0.9879  1.0788 -0.4707
   59SAPC  H16S 4502   0.423   2.626   9.340 -1.3847  0.7438 -2.1045
   59SAPC  C217 4503   0.274   2.785   9.300 -0.4702  0.4130 -0.7144
   59SAPC  H17R 4504   0.297   2.888   9.335  0.6801  0.2034 -0.7905
   59SAPC  H17S 4505   0.164   2.777   9.292 -0.5473  0.7366 -0.0449
   59SAPC  C218 4506   0.325   2.782   9.155  0.2101 -0.1549  0.5616
   59SAPC  H18R 4507   0.229   2.810   9.106 -1.3421 -1.4794  2.6654
   59SAPC  H18S 4508   0.349   2.680   9.118  2.5886  0.3665  0.5403
   59SAPC  C219 4509   0.442   2.875   9.132 -0.2825  0.2562 -0.1473
   59SAPC  H19R 4510   0.528   2.855   9.199  0.7329  2.3638 -0.7411
   59SAPC  H19S 4511   0.399   2.976   9.150  2.2358  1.2695  0.5098
   59SAPC  C220 4512   0.496   2.865   8.985 -0.4645  0.6379  0.6630
   59SAPC  H20R 4513   0.541   2.765   8.963  1.2648  1.2610  1.2194
   59SAPC  H20S 4514   0.572   2.941   8.958 -2.0829  1.2856 -2.4765
   59SAPC  H20T 4515   0.420   2.898   8.912  1.0035  1.0085 -0.7606
   59SAPC   C33 4516   1.143   3.190  10.333 -0.1453 -0.1125 -0.2347
   59SAPC   H3X 4517   1.130   3.080  10.328  1.6193 -0.4667  1.8258
   59SAPC   H3Y 4518   1.253   3.201  10.339 -0.1208  3.6207 -3.2025
   59SAPC   C34 4519   1.119   3.255  10.191  0.2855  0.1417 -0.4770
   59SAPC   H4X 4520   1.180   3.189  10.126 -0.6184  0.7886 -2.0124
   59SAPC   H4Y 4521   1.166   3.356  10.196  0.2002  0.1506  0.2570
   59SAPC   C35 4522   0.977   3.264  10.150  0.2835 -0.1543 -0.3009
   59SAPC   H5X 4523   0.962   3.302  10.046  0.4469  0.9025  0.0577
   59SAPC   H5Y 4524   0.930   3.340  10.216 -1.3322 -0.7675 -0.6988
   59SAPC   C36 4525   0.898   3.131  10.162 -0.5618  0.3592  0.1935
   59SAPC   H6X 4526   0.792   3.162  10.153 -0.3075  1.5452  0.9485
   59SAPC   H6Y 4527   0.920   3.091  10.264  1.4665  1.3370  0.1913
   59SAPC   C37 4528   0.942   3.031  10.046 -0.3291  0.4989  0.1316
   59SAPC   H7X 4529   0.935   2.929  10.089  2.1007  0.4451  0.5416
   59SAPC   H7Y 4530   1.046   3.062  10.020  1.1316 -2.1960  2.2120
   59SAPC   C38 4531   0.855   3.050   9.921  0.2114  0.0435  0.3980
   59SAPC   H8X 4532   0.829   3.158   9.916 -1.2427 -0.1971  2.0548
   59SAPC   H8Y 4533   0.753   3.007   9.925  0.3897 -0.7012 -1.9945
   59SAPC   C39 4534   0.922   3.001   9.786  0.1468 -0.2023 -0.0399
   59SAPC   H9X 4535   0.939   2.891   9.794 -0.9139 -0.5259 -1.7513
   59SAPC   H9Y 4536   1.012   3.064   9.775 -0.3294  0.2859 -1.2458
   59SAPC  C310 4537   0.823   3.040   9.677 -0.1599  0.4761 -0.4384
   59SAPC  H10X 4538   0.805   3.149   9.694  3.3234  0.7764  2.6621
   59SAPC  H10Y 4539   0.727   2.989   9.699 -0.2833  0.8198 -0.1690
   59SAPC  C311 4540   0.871   3.024   9.527 -0.6372 -1.0155 -0.4495
   59SAPC  H11X 4541   0.911   2.925   9.497  1.2245 -0.4395  0.0209
   59SAPC  H11Y 4542   0.964   3.084   9.527 -1.1746 -0.1029 -2.3586
   59SAPC  C312 4543   0.774   3.084   9.418  0.0838  0.1461 -0.6223
   59SAPC  H12X 4544   0.719   3.156   9.482 -0.7178 -2.2476  1.5386
   59SAPC  H12Y 4545   0.701   3.016   9.369  0.1373  0.2346 -0.8235
   59SAPC  C313 4546   0.848   3.156   9.308 -1.0730  0.3555  0.2104
   59SAPC  H13X 4547   0.902   3.249   9.340 -0.4363  0.2121 -0.4217
   59SAPC  H13Y 4548   0.764   3.194   9.247 -2.6910  1.4808  2.9476
   59SAPC  C314 4549   0.949   3.072   9.230 -0.8210  0.4042  0.1333
   59SAPC  H14X 4550   0.907   2.969   9.221 -2.4180  0.7432  2.7337
   59SAPC  H14Y 4551   1.038   3.084   9.295  0.3103  1.3201 -1.5151
   59SAPC  C315 4552   0.987   3.120   9.086 -0.0914  0.3129 -0.1769
   59SAPC  H15X 4553   1.068   3.050   9.055 -1.6204 -1.0051 -1.3668
   59SAPC  H15Y 4554   1.026   3.224   9.088  0.5009  0.1652 -2.1853
   59SAPC  C316 4555   0.877   3.111   8.981  0.2064 -0.3138  0.4238
   59SAPC  H16X 4556   0.796   3.184   8.999 -0.3466  0.1219 -3.0708
   59SAPC  H16Y 4557   0.837   3.009   9.001  0.4654 -0.5686 -0.3218
   59SAPC  C317 4558   0.932   3.126   8.843  0.2525 -0.5628  0.8313
   59SAPC  H17X 4559   1.017   3.054   8.831 -0.0400 -1.0081  1.3761
   59SAPC  H17Y 4560   0.972   3.229   8.832  0.3172 -0.5252  1.3995
   59SAPC  C318 4561   0.834   3.102   8.720  0.0054 -0.5239 -0.1747
   59SAPC  H18X 4562   0.744   3.167   8.717  0.8779  0.6923 -2.7120
   59SAPC  H18Y 4563   0.788   3.001   8.733  1.6782 -1.2420  0.4227
   59SAPC  H18Z 4564   0.882   3.115   8.621 -1.2039  1.8943 -0.5128
   60SAPC     N 4565   1.583   1.926  10.897  0.3513 -0.4019  0.4554
   60SAPC   C12 4566   1.674   1.860  10.789 -0.0840 -0.7482 -0.1587
   60SAPC  H12A 4567   1.643   1.757  10.778 -0.2751 -0.5257 -2.0183
   60SAPC  H12B 4568   1.777   1.867  10.822 -0.1587 -0.5047  0.0244
   60SAPC   C13 4569   1.563   1.829  11.007 -0.0810 -0.5174  0.2327
   60SAPC  H13A 4570   1.521   1.862  11.101 -0.8411 -2.8839  0.7794
   60SAPC  H13B 4571   1.511   1.739  10.979  1.3280 -0.9261 -1.2052
   60SAPC  H13C 4572   1.656   1.783  11.037 -0.2714 -0.4825  0.8867
   60SAPC   C14 4573   1.639   2.055  10.933 -0.6052 -1.0612 -0.2335
   60SAPC  H14A 4574   1.651   2.105  10.839  1.0729 -1.8713 -0.4824
   60SAPC  H14B 4575   1.583   2.122  10.997  1.0604  1.6312 -1.4278
   60SAPC  H14C 4576   1.739   2.052  10.974 -0.7002 -0.2018  0.0833
   60SAPC   C15 4577   1.452   1.955  10.843 -0.2607 -0.0397 -0.2857
   60SAPC  H15A 4578   1.458   2.025  10.761  0.0042  0.0842 -0.1631
   60SAPC  H15B 4579   1.399   1.868  10.810  0.1819  0.1567 -1.5911
   60SAPC  H15C 4580   1.390   2.004  10.916 -0.1666  0.7181 -0.7024
   60SAPC   C11 4581   1.666   1.909  10.647  0.2968  0.2824  0.6743
   60SAPC  H11A 4582   1.557   1.916  10.623  0.3304  4.1371  1.0651
   60SAPC  H11B 4583   1.719   1.837  10.582  1.9221  0.8744  1.2998
   60SAPC     P 4584   1.874   2.060  10.615 -0.1365 -0.5032  0.3572
   60SAPC   O13 4585   1.925   2.164  10.710 -0.3708 -0.2902  0.3831
   60SAPC   O14 4586   1.942   1.931  10.615  0.2365 -0.1250  0.8186
   60SAPC   O12 4587   1.719   2.041  10.632 -0.5950  0.0045  0.4673
   60SAPC   O11 4588   1.899   2.118  10.471  0.1294 -0.2005  0.1689
   60SAPC    C1 4589   1.810   2.063  10.365 -0.5690 -0.0521 -0.0001
   60SAPC    HA 4590   1.716   2.026  10.410 -1.2135  1.5196  0.0134
   60SAPC    HB 4591   1.777   2.135  10.287 -0.1537 -0.8052 -0.8971
   60SAPC    C2 4592   1.874   1.940  10.298 -0.7610 -0.5526 -0.4693
   60SAPC    HS 4593   1.903   1.860  10.369  1.2069  0.1559 -0.4181
   60SAPC   O21 4594   1.988   1.975  10.213 -0.1983 -0.0606 -0.0303
   60SAPC   C21 4595   2.077   1.872  10.197  0.3100 -0.5696 -0.6479
   60SAPC   O22 4596   2.070   1.766  10.251 -0.0375  0.1833 -0.0524
   60SAPC   C22 4597   2.190   1.921  10.101 -0.0281  0.2363 -1.2041
   60SAPC   H2R 4598   2.171   2.028  10.081  2.5155  1.0468  0.2510
   60SAPC   H2S 4599   2.291   1.916  10.148 -0.8983  1.7960  0.9921
   60SAPC    C3 4600   1.775   1.868  10.198 -0.4520  0.2808 -0.5683
   60SAPC    HX 4601   1.672   1.857  10.237  0.0677 -3.2009  0.1687
   60SAPC    HY 4602   1.812   1.764  10.208  0.8695  0.9318  2.6980
   60SAPC   O31 4603   1.782   1.896  10.055  0.6624 -0.2894  0.1643
   60SAPC   C31 4604   1.705   2.003  10.012 -0.1190  0.4667 -0.0218
   60SAPC   O32 4605   1.634   2.064  10.090 -0.2827 -0.2146 -0.2032
   60SAPC   C32 4606   1.723   2.029   9.860 -0.0831  0.1927  0.1173
   60SAPC   H2X 4607   1.684   1.950   9.793 -1.7068  1.2274 -0.2215
   60SAPC   H2Y 4608   1.832   2.035   9.840  0.0141 -1.7588 -0.1614
   60SAPC   C23 4609   2.196   1.842   9.968  0.1055 -0.1377 -0.7614
   60SAPC   H3R 4610   2.237   1.740   9.984  2.1403  0.7805  0.2320
   60SAPC   H3S 4611   2.272   1.893   9.904 -0.2530  0.9767 -0.3168
   60SAPC   C24 4612   2.065   1.844   9.899 -0.1883  0.1941 -0.3386
   60SAPC   H4R 4613   2.032   1.949   9.879  0.2236  0.6863  1.4234
   60SAPC   H4S 4614   1.984   1.799   9.960  0.0218  0.3617  0.0622
   60SAPC   C25 4615   2.074   1.768   9.768 -0.6581 -0.1458  0.2411
   60SAPC   H5R 4616   2.079   1.659   9.782  2.8506 -0.0892  0.3486
   60SAPC   C26 4617   2.115   1.816   9.651 -0.5750  0.1745  0.1118
   60SAPC   H6R 4618   2.112   1.748   9.565  1.5225 -0.4355  0.4622
   60SAPC   C27 4619   2.140   1.959   9.611  0.1955 -0.7471  0.8109
   60SAPC   H7R 4620   2.140   2.037   9.689 -1.2305 -1.2525  1.3536
   60SAPC   H7S 4621   2.058   1.993   9.544 -0.9004 -0.7595  2.1073
   60SAPC   C28 4622   2.275   1.970   9.549  0.3172 -0.5467 -0.4149
   60SAPC   H8R 4623   2.358   1.968   9.621  1.4397 -1.1505 -1.6896
   60SAPC   C29 4624   2.304   1.991   9.421  0.2900 -0.0664  0.5743
   60SAPC   H9R 4625   2.405   2.015   9.383 -0.1255  1.6801  0.4738
   60SAPC  C210 4626   2.208   2.002   9.306  0.1675 -0.5994 -0.1177
   60SAPC  H10R 4627   2.191   2.107   9.273  0.7824  0.5181  2.8211
   60SAPC  H10S 4628   2.104   1.973   9.332 -0.3622  1.6840  0.5761
   60SAPC  C211 4629   2.251   1.911   9.197 -0.0265  0.1798 -0.4350
   60SAPC  H11R 4630   2.263   1.806   9.228  0.1628  0.0069 -1.0813
   60SAPC  C212 4631   2.299   1.954   9.075 -0.5758  0.5914  0.6328
   60SAPC  H12R 4632   2.305   1.885   8.989 -0.6612  3.2168 -1.6276
   60SAPC  C213 4633   2.325   2.094   9.034 -0.6582  0.4602  0.3587
   60SAPC  H13R 4634   2.373   2.148   9.119  1.2384  0.6475 -0.7907
   60SAPC  H13S 4635   2.230   2.147   9.011 -0.4493 -0.0339 -1.7973
   60SAPC  C214 4636   2.418   2.097   8.920 -0.5660  0.7910  0.7511
   60SAPC  H14R 4637   2.521   2.087   8.959 -1.0646  0.0537  1.9352
   60SAPC  C215 4638   2.390   2.139   8.794 -0.0960  0.0806 -0.2253
   60SAPC  H15R 4639   2.470   2.154   8.721  0.6235 -1.2262  0.2590
   60SAPC  C216 4640   2.254   2.197   8.746 -0.0992 -0.7085 -0.3044
   60SAPC  H16R 4641   2.271   2.281   8.676 -2.7732  0.0440 -0.1815
   60SAPC  H16S 4642   2.193   2.234   8.832  0.3095  2.2182 -1.2021
   60SAPC  C217 4643   2.161   2.091   8.678  0.2738  0.2701 -0.7771
   60SAPC  H17R 4644   2.057   2.128   8.666  0.6305  1.2565 -0.9177
   60SAPC  H17S 4645   2.139   2.006   8.745 -0.5869  1.3284  0.3236
   60SAPC  C218 4646   2.198   2.043   8.533 -0.2724  0.5149 -0.4944
   60SAPC  H18R 4647   2.299   1.999   8.546 -0.3088  1.0726  2.1740
   60SAPC  H18S 4648   2.205   2.139   8.477  1.1169  0.6642 -0.0952
   60SAPC  C219 4649   2.110   1.926   8.483 -0.8172 -0.4457 -0.7513
   60SAPC  H19R 4650   2.122   1.916   8.373  0.3672 -0.9447 -0.5901
   60SAPC  H19S 4651   2.006   1.960   8.498 -0.2551  2.0513 -1.8848
   60SAPC  C220 4652   2.145   1.799   8.550 -0.2605 -0.0610 -0.9489
   60SAPC  H20R 4653   2.103   1.710   8.499  0.0055 -0.0869 -1.1230
   60SAPC  H20S 4654   2.107   1.793   8.654 -0.6755  1.0909 -1.0249
   60SAPC  H20T 4655   2.255   1.779   8.548 -0.3575 -0.6215 -0.9603
   60SAPC   C33 4656   1.648   2.157   9.826 -0.2923  0.0179  0.4448
   60SAPC   H3X 4657   1.696   2.245   9.875  2.1707  0.2286 -2.1135
   60SAPC   H3Y 4658   1.542   2.138   9.851  0.1586 -2.9853  0.4161
   60SAPC   C34 4659   1.666   2.191   9.677  0.6001 -0.3550 -0.4417
   60SAPC   H4X 4660   1.772   2.164   9.660 -0.0393 -2.3856 -1.6714
   60SAPC   H4Y 4661   1.650   2.301   9.676  1.2050 -0.1911  1.8476
   60SAPC   C35 4662   1.570   2.109   9.588 -0.6172  0.0788 -0.9064
   60SAPC   H5X 4663   1.467   2.144   9.608  0.3525  2.0763  1.0897
   60SAPC   H5Y 4664   1.585   2.005   9.623  0.1805  0.2563 -0.6886
   60SAPC   C36 4665   1.619   2.126   9.442  0.3187  0.2460 -0.0751
   60SAPC   H6X 4666   1.627   2.234   9.419 -0.6735  0.3927  0.1949
   60SAPC   H6Y 4667   1.539   2.079   9.381  0.1457  0.7713 -0.2569
   60SAPC   C37 4668   1.761   2.091   9.411 -0.1245  0.1606 -0.3099
   60SAPC   H7X 4669   1.784   1.988   9.445  0.0924  0.0318 -0.8346
   60SAPC   H7Y 4670   1.830   2.166   9.455 -1.4198  1.2527 -0.0768
   60SAPC   C38 4671   1.801   2.097   9.260 -0.4844 -0.4919  0.1923
   60SAPC   H8X 4672   1.911   2.095   9.246 -0.7469  0.1034 -2.4637
   60SAPC   H8Y 4673   1.775   2.195   9.214  1.4584  0.3057  0.6675
   60SAPC   C39 4674   1.744   1.987   9.169  0.2320  0.3285  0.1756
   60SAPC   H9X 4675   1.640   1.956   9.192  0.9013 -0.2264  2.7151
   60SAPC   H9Y 4676   1.799   1.896   9.203 -1.8821 -0.2923  2.2185
   60SAPC  C310 4677   1.780   1.993   9.019 -0.0181  0.2977  0.7506
   60SAPC  H10X 4678   1.748   1.890   8.992  0.2985 -0.4261  2.9051
   60SAPC  H10Y 4679   1.890   2.000   9.001 -0.1246 -1.7519 -1.1025
   60SAPC  C311 4680   1.712   2.100   8.948  0.1470  0.2662 -0.7040
   60SAPC  H11X 4681   1.726   2.194   9.005  0.1969 -0.1128 -0.0844
   60SAPC  H11Y 4682   1.603   2.080   8.944  0.1570 -0.7124  2.0802
   60SAPC  C312 4683   1.755   2.110   8.799  0.3939 -0.3980  0.0437
   60SAPC  H12X 4684   1.720   2.028   8.732 -1.4675 -1.1669  1.8696
   60SAPC  H12Y 4685   1.866   2.098   8.797  0.3080 -1.1746 -0.3661
   60SAPC  C313 4686   1.722   2.248   8.729 -0.5696  0.5524  0.3624
   60SAPC  H13X 4687   1.749   2.342   8.781  2.1055 -1.2513  2.5127
   60SAPC  H13Y 4688   1.612   2.249   8.710 -0.7176  0.7424  1.2185
   60SAPC  C314 4689   1.797   2.256   8.593  0.1582  0.6131  0.2124
   60SAPC  H14X 4690   1.721   2.263   8.512  1.6493 -1.4644 -1.4419
   60SAPC  H14Y 4691   1.860   2.165   8.591  1.1093  1.0688  3.2992
   60SAPC  C315 4692   1.885   2.383   8.575  0.3690  0.5622 -0.1173
   60SAPC  H15X 4693   1.968   2.379   8.649  1.7941  0.1545 -1.6759
   60SAPC  H15Y 4694   1.820   2.468   8.605 -0.3598 -0.7057  2.1248
   60SAPC  C316 4695   1.958   2.393   8.442  0.7270  0.6898 -0.0718
   60SAPC  H16X 4696   1.885   2.356   8.368 -0.0779  0.3662  0.8619
   60SAPC  H16Y 4697   2.046   2.326   8.450  1.2004  1.4079  0.9844
   60SAPC  C317 4698   2.019   2.531   8.407  0.3833  0.3841  0.0519
   60SAPC  H17X 4699   2.097   2.555   8.482  0.5755  1.4549 -0.4675
   60SAPC  H17Y 4700   1.945   2.613   8.419  0.4902  0.3019  1.4465
   60SAPC  C318 4701   2.083   2.531   8.264 -0.0406  0.4960 -0.9359
   60SAPC  H18X 4702   2.147   2.621   8.251 -2.5094  2.3963 -0.7464
   60SAPC  H18Y 4703   2.007   2.529   8.183  0.1528 -0.3805 -1.1050
   60SAPC  H18Z 4704   2.142   2.438   8.253  1.1256  0.8182  1.8319
   61SAPC     N 4705   3.553   1.173  11.366  0.1328  0.2356 -0.2162
   61SAPC   C12 4706   3.560   1.147  11.220 -0.6460  0.0503 -0.2083
   61SAPC  H12A 4707   3.463   1.114  11.187 -1.2736  1.6550 -0.0821
   61SAPC  H12B 4708   3.623   1.061  11.204  1.4908  1.5061 -0.0798
   61SAPC   C13 4709   3.693   1.172  11.415  0.3953  0.0140 -0.3577
   61SAPC  H13A 4710   3.757   1.224  11.346  2.4058 -3.2189 -1.1522
   61SAPC  H13B 4711   3.700   1.215  11.514  3.2236  1.4140 -1.0513
   61SAPC  H13C 4712   3.737   1.073  11.421 -0.9693 -0.7738 -2.2681
   61SAPC   C14 4713   3.486   1.301  11.402 -0.1493 -0.9578 -0.2796
   61SAPC  H14A 4714   3.525   1.374  11.334 -1.2161  1.1995  1.2947
   61SAPC  H14B 4715   3.379   1.307  11.393 -0.0562 -0.5900 -1.1604
   61SAPC  H14C 4716   3.507   1.325  11.506  0.4363 -1.1929 -0.3398
   61SAPC   C15 4717   3.486   1.061  11.444 -0.2701  0.6688  0.0718
   61SAPC  H15A 4718   3.525   0.967  11.407 -0.7809  0.3529  0.3164
   61SAPC  H15B 4719   3.515   1.078  11.546  0.0231  0.1850  0.0725
   61SAPC  H15C 4720   3.379   1.056  11.431 -0.4334 -2.0521  1.6165
   61SAPC   C11 4721   3.631   1.250  11.129  0.1157  0.2461  0.6034
   61SAPC  H11A 4722   3.575   1.340  11.162 -0.2012  0.2984 -0.0448
   61SAPC  H11B 4723   3.603   1.212  11.028  0.1884 -0.2218  0.7544
   61SAPC     P 4724   3.861   1.154  11.076  0.1140 -0.4048  0.0361
   61SAPC   O13 4725   4.007   1.167  11.108  0.0340 -0.0051  0.3907
   61SAPC   O14 4726   3.802   1.026  11.109 -0.6223  0.3895 -0.4895
   61SAPC   O12 4727   3.769   1.254  11.150 -0.0832 -0.6038  0.0983
   61SAPC   O11 4728   3.834   1.177  10.926 -0.6596  0.2423  0.3108
   61SAPC    C1 4729   3.834   1.304  10.863  0.3868  0.5107 -0.0219
   61SAPC    HA 4730   3.732   1.346  10.865  0.6147  1.0444  1.1231
   61SAPC    HB 4731   3.895   1.380  10.916  0.0333  1.2752 -0.6961
   61SAPC    C2 4732   3.888   1.292  10.719 -0.1555  0.0323  0.3881
   61SAPC    HS 4733   3.887   1.393  10.673  2.0899  0.0686  0.3239
   61SAPC   O21 4734   3.804   1.199  10.651  0.4526 -0.2597 -0.3192
   61SAPC   C21 4735   3.689   1.252  10.620 -0.2711  0.1630  0.4041
   61SAPC   O22 4736   3.655   1.366  10.643 -0.0949  0.6077  0.4630
   61SAPC   C22 4737   3.606   1.154  10.533  0.1580 -0.4805 -1.7227
   61SAPC   H2R 4738   3.678   1.116  10.458 -1.3980 -3.1304 -1.9749
   61SAPC   H2S 4739   3.576   1.068  10.596  2.6994 -0.9000 -0.9842
   61SAPC    C3 4740   4.033   1.245  10.701  0.2103  0.2334 -0.3711
   61SAPC    HX 4741   4.049   1.145  10.745  0.1866  0.3885 -0.0095
   61SAPC    HY 4742   4.096   1.316  10.758 -0.3633  1.4823 -1.2279
   61SAPC   O31 4743   4.057   1.262  10.559  0.2905 -0.5217  0.3220
   61SAPC   C31 4744   4.122   1.161  10.500  0.0725  0.2438 -0.8630
   61SAPC   O32 4745   4.153   1.060  10.556 -0.3389 -0.4030 -0.1126
   61SAPC   C32 4746   4.161   1.199  10.363  0.3194 -0.1009  0.7437
   61SAPC   H2X 4747   4.075   1.229  10.299  2.2651 -0.0622 -2.0554
   61SAPC   H2Y 4748   4.207   1.116  10.305  1.3607  0.2934  0.9841
   61SAPC   C23 4749   3.479   1.225  10.485 -0.2540 -0.1092  0.6251
   61SAPC   H3R 4750   3.513   1.315  10.429 -1.9540  0.3540  0.2632
   61SAPC   H3S 4751   3.423   1.267  10.571  0.4603 -0.5523  1.3140
   61SAPC   C24 4752   3.384   1.151  10.393  0.4568  0.0966 -0.1993
   61SAPC   H4R 4753   3.445   1.135  10.301  2.2208  0.6397  0.8407
   61SAPC   H4S 4754   3.306   1.228  10.370 -0.4071  0.4071  3.2164
   61SAPC   C25 4755   3.308   1.028  10.434 -0.3053 -0.0716 -0.1516
   61SAPC   H5R 4756   3.262   1.037  10.534 -2.1101  1.4960 -1.0847
   61SAPC   C26 4757   3.295   0.919  10.360 -0.0944 -0.5535  0.1906
   61SAPC   H6R 4758   3.230   0.840  10.400 -1.6767  0.5437 -0.1073
   61SAPC   C27 4759   3.343   0.885  10.225 -0.0437 -0.0016 -0.3722
   61SAPC   H7R 4760   3.354   0.776  10.209 -1.3041 -0.6204  2.2857
   61SAPC   H7S 4761   3.447   0.923  10.212 -1.0506  2.1384 -3.3125
   61SAPC   C28 4762   3.275   0.960  10.113  0.5655 -0.3712  0.6669
   61SAPC   H8R 4763   3.220   1.052  10.136  0.4625 -0.1978 -0.2326
   61SAPC   C29 4764   3.256   0.916   9.981  0.0290 -0.0609 -0.1544
   61SAPC   H9R 4765   3.190   0.978   9.918 -1.1734 -1.9053 -0.7845
   61SAPC  C210 4766   3.302   0.792   9.897 -0.4536  0.3649  0.1658
   61SAPC  H10R 4767   3.374   0.734   9.958 -0.9337 -0.4962 -0.0791
   61SAPC  H10S 4768   3.360   0.834   9.812  1.6774 -1.5581  0.5744
   61SAPC  C211 4769   3.186   0.699   9.863 -0.5244  0.8852 -0.0589
   61SAPC  H11R 4770   3.142   0.647   9.949  1.9132 -2.6321 -0.7251
   61SAPC  C212 4771   3.139   0.676   9.733 -0.9438  0.0349 -0.3170
   61SAPC  H12R 4772   3.058   0.604   9.722  0.3662 -1.3927 -0.9751
   61SAPC  C213 4773   3.191   0.739   9.611 -0.9433 -0.0617  0.1542
   61SAPC  H13R 4774   3.199   0.850   9.614 -1.3080 -0.0134 -0.4965
   61SAPC  H13S 4775   3.106   0.719   9.542 -0.8378  4.6535 -1.7337
   61SAPC  C214 4776   3.302   0.675   9.535 -0.4211 -0.3670  0.4078
   61SAPC  H14R 4777   3.382   0.639   9.601  0.2240  1.0824  0.4679
   61SAPC  C215 4778   3.323   0.652   9.403  0.0390 -0.3222  0.1005
   61SAPC  H15R 4779   3.417   0.617   9.357  0.2380  3.3240 -2.7777
   61SAPC  C216 4780   3.223   0.694   9.293  0.3274 -0.5587  0.7451
   61SAPC  H16R 4781   3.127   0.727   9.338  0.1656 -0.6155  0.4381
   61SAPC  H16S 4782   3.203   0.605   9.229 -0.5702  0.6371 -0.6939
   61SAPC  C217 4783   3.284   0.796   9.201  0.0738  0.0652 -0.3794
   61SAPC  H17R 4784   3.309   0.887   9.259 -2.7009 -0.1300  1.3228
   61SAPC  H17S 4785   3.201   0.828   9.134  0.3578 -0.1869 -0.8600
   61SAPC  C218 4786   3.408   0.749   9.128 -0.7736  0.5088  0.2075
   61SAPC  H18R 4787   3.392   0.643   9.097  2.7522  0.4775 -2.0473
   61SAPC  H18S 4788   3.500   0.742   9.191 -0.2740  0.1690 -0.5440
   61SAPC  C219 4789   3.414   0.830   8.999 -0.3747  0.5977 -0.7067
   61SAPC  H19R 4790   3.410   0.940   9.013  0.3428  0.6235 -0.6661
   61SAPC  H19S 4791   3.317   0.799   8.955 -0.7588  0.1135  0.4317
   61SAPC  C220 4792   3.539   0.793   8.919 -0.4794 -0.2042 -0.3513
   61SAPC  H20R 4793   3.628   0.806   8.984 -0.5833 -0.9135 -0.0641
   61SAPC  H20S 4794   3.565   0.860   8.834  0.3337  3.5073  2.5481
   61SAPC  H20T 4795   3.537   0.687   8.885  2.8314 -0.0552 -1.3513
   61SAPC   C33 4796   4.244   1.326  10.357  0.5267 -0.5912 -0.1918
   61SAPC   H3X 4797   4.335   1.315  10.420  1.2185 -0.5448 -1.1622
   61SAPC   H3Y 4798   4.188   1.414  10.393 -0.6552 -0.9469 -1.1251
   61SAPC   C34 4799   4.310   1.355  10.224  0.2114  0.3185  0.2044
   61SAPC   H4X 4800   4.389   1.277  10.218 -0.9877 -0.8623 -0.5901
   61SAPC   H4Y 4801   4.353   1.457  10.235  0.1592  0.2761  0.8607
   61SAPC   C35 4802   4.221   1.358  10.097 -0.0034  0.4640 -0.5937
   61SAPC   H5X 4803   4.152   1.444  10.109 -2.1240 -1.2882  0.5101
   61SAPC   H5Y 4804   4.152   1.271  10.086 -2.7203  2.4248  0.1763
   61SAPC   C36 4805   4.306   1.370   9.959  0.9867  0.3533 -0.0615
   61SAPC   H6X 4806   4.369   1.281   9.940  2.1799  1.2418 -0.4539
   61SAPC   H6Y 4807   4.368   1.462   9.971 -0.4820  1.6171 -1.7222
   61SAPC   C37 4808   4.214   1.406   9.841 -0.0689  0.0440  0.2357
   61SAPC   H7X 4809   4.138   1.474   9.883  1.0871  0.8748  1.0660
   61SAPC   H7Y 4810   4.165   1.309   9.816 -0.6337 -0.4827  3.0522
   61SAPC   C38 4811   4.298   1.475   9.725  0.4221 -0.4893  0.1991
   61SAPC   H8X 4812   4.374   1.398   9.697  0.8752  0.3823 -1.1031
   61SAPC   H8Y 4813   4.350   1.563   9.768 -2.9305  1.6660  0.2145
   61SAPC   C39 4814   4.209   1.516   9.603 -0.1345 -0.2802 -0.1812
   61SAPC   H9X 4815   4.129   1.590   9.626  0.1339 -0.5382  1.6823
   61SAPC   H9Y 4816   4.162   1.417   9.583  1.2453 -0.5453 -2.4612
   61SAPC  C310 4817   4.287   1.559   9.486 -0.2130 -0.4048 -0.0723
   61SAPC  H10X 4818   4.357   1.477   9.462  0.7108  0.6032 -0.9407
   61SAPC  H10Y 4819   4.345   1.652   9.507 -0.6048 -0.7540  2.8779
   61SAPC  C311 4820   4.201   1.570   9.364 -0.6245 -0.1025 -0.4487
   61SAPC  H11X 4821   4.134   1.659   9.371 -0.1586  0.1703  0.8986
   61SAPC  H11Y 4822   4.136   1.480   9.365  0.7770 -1.2039  2.1545
   61SAPC  C312 4823   4.279   1.569   9.236 -0.1828 -0.7336 -0.0150
   61SAPC  H12X 4824   4.351   1.485   9.238 -1.0629 -1.5280 -0.9186
   61SAPC  H12Y 4825   4.345   1.658   9.223  0.9631 -1.6376 -0.4753
   61SAPC  C313 4826   4.185   1.563   9.111 -0.3079  0.3774  0.2579
   61SAPC  H13X 4827   4.117   1.652   9.113  1.9099  2.3365 -2.8532
   61SAPC  H13Y 4828   4.129   1.468   9.123  1.6003 -0.6428  1.3975
   61SAPC  C314 4829   4.243   1.561   8.966 -0.1536 -0.2722 -0.1194
   61SAPC  H14X 4830   4.160   1.551   8.893  0.5076  0.2627 -0.9624
   61SAPC  H14Y 4831   4.296   1.464   8.961  0.2256 -0.2103  1.9884
   61SAPC  C315 4832   4.342   1.674   8.917  1.0945  0.6044 -0.3972
   61SAPC  H15X 4833   4.420   1.699   8.992 -0.6436  2.2285  0.9737
   61SAPC  H15Y 4834   4.278   1.765   8.921 -0.3133 -0.4027  1.5482
   61SAPC  C316 4835   4.395   1.635   8.778 -0.0290 -0.9079 -0.0374
   61SAPC  H16X 4836   4.448   1.723   8.735 -0.3668  0.3121  1.9019
   61SAPC  H16Y 4837   4.305   1.607   8.720 -0.4604  1.3440 -0.5482
   61SAPC  C317 4838   4.494   1.516   8.781  0.2385 -0.2199 -0.5585
   61SAPC  H17X 4839   4.444   1.425   8.822  3.2046 -1.5975  0.2573
   61SAPC  H17Y 4840   4.575   1.530   8.855  0.2758 -2.6619 -0.0701
   61SAPC  C318 4841   4.555   1.497   8.645 -0.1190  0.2186  0.4399
   61SAPC  H18X 4842   4.476   1.512   8.568 -0.3403  0.7899  0.7705
   61SAPC  H18Y 4843   4.600   1.397   8.628 -1.6493 -0.1918 -1.6227
   61SAPC  H18Z 4844   4.633   1.573   8.624 -0.1112 -0.2005 -1.2413
   62SAPC     N 4845   2.690   6.521  10.819 -0.1216 -0.3734 -0.0306
   62SAPC   C12 4846   2.646   6.386  10.869 -0.2559  0.6098 -0.2156
   62SAPC  H12A 4847   2.711   6.341  10.943  0.5766  2.4251  0.2121
   62SAPC  H12B 4848   2.638   6.323  10.782  0.9491 -1.2531  0.9581
   62SAPC   C13 4849   2.604   6.582  10.716 -0.3089 -0.0228  0.0972
   62SAPC  H13A 4850   2.625   6.531  10.622 -0.5927 -1.5477  0.8325
   62SAPC  H13B 4851   2.502   6.588  10.751 -0.3714 -0.2979 -0.0350
   62SAPC  H13C 4852   2.638   6.683  10.699 -1.1793  0.3577  0.5624
   62SAPC   C14 4853   2.705   6.616  10.932  0.2281 -0.3145 -0.5802
   62SAPC  H14A 4854   2.746   6.566  11.018 -2.9575 -0.1449  1.2198
   62SAPC  H14B 4855   2.754   6.710  10.911 -0.1621  0.2303  0.8370
   62SAPC  H14C 4856   2.609   6.644  10.973 -0.0447 -1.4487 -0.4209
   62SAPC   C15 4857   2.829   6.501  10.773  0.1242  0.0049 -0.4445
   62SAPC  H15A 4858   2.867   6.588  10.721  0.9422  0.5652  1.0437
   62SAPC  H15B 4859   2.904   6.471  10.844 -0.8762  0.6277  0.9276
   62SAPC  H15C 4860   2.827   6.414  10.708  2.6117 -2.1846  2.1736
   62SAPC   C11 4861   2.503   6.385  10.923 -0.0093  0.3815  0.3730
   62SAPC  H11A 4862   2.505   6.465  11.000  0.1146  0.6356  0.1041
   62SAPC  H11B 4863   2.494   6.294  10.987 -0.5318  0.7376  0.8115
   62SAPC     P 4864   2.373   6.250  10.750 -0.1464 -0.7190 -0.1438
   62SAPC   O13 4865   2.499   6.200  10.696  0.6506  0.5240  0.2466
   62SAPC   O14 4866   2.292   6.159  10.831 -0.0611  0.8523 -0.4221
   62SAPC   O12 4867   2.399   6.391  10.821 -0.0277 -0.9381 -0.0144
   62SAPC   O11 4868   2.273   6.282  10.621 -0.4462 -0.3096 -0.5566
   62SAPC    C1 4869   2.300   6.393  10.536  0.1639  0.0386 -0.0310
   62SAPC    HA 4870   2.211   6.459  10.527  0.2698  0.0360 -1.3209
   62SAPC    HB 4871   2.392   6.453  10.554 -0.4835  0.7798  0.9384
   62SAPC    C2 4872   2.325   6.338  10.393  0.5383  0.3834 -0.4023
   62SAPC    HS 4873   2.228   6.290  10.366  0.8295 -1.3550  1.4084
   62SAPC   O21 4874   2.437   6.240  10.395  0.2198  0.4272 -0.3985
   62SAPC   C21 4875   2.419   6.136  10.322  0.1894  0.8525  0.5908
   62SAPC   O22 4876   2.329   6.120  10.239 -0.3617 -0.1562 -0.1107
   62SAPC   C22 4877   2.509   6.024  10.388  0.1113 -0.4160  0.1510
   62SAPC   H2R 4878   2.603   6.065  10.432  2.2829 -2.8951 -1.8117
   62SAPC   H2S 4879   2.452   5.989  10.477 -0.8322 -0.0853 -0.3081
   62SAPC    C3 4880   2.345   6.452  10.282 -0.1610 -0.2488  0.3740
   62SAPC    HX 4881   2.424   6.517  10.325 -1.4098  1.6888 -0.1504
   62SAPC    HY 4882   2.253   6.514  10.281 -0.1106 -0.1744 -1.0286
   62SAPC   O31 4883   2.373   6.403  10.146 -0.3836  0.2528 -0.5319
   62SAPC   C31 4884   2.278   6.377  10.067  0.3023 -0.3583  0.8541
   62SAPC   O32 4885   2.161   6.410  10.090 -0.1008 -0.0149 -0.0044
   62SAPC   C32 4886   2.327   6.305   9.940 -0.0188 -0.4180 -0.0218
   62SAPC   H2X 4887   2.313   6.197   9.959  1.0117 -0.2838  1.6668
   62SAPC   H2Y 4888   2.433   6.335   9.931 -0.8706  3.2966  0.7244
   62SAPC   C23 4889   2.542   5.903  10.300  0.5257 -0.4941  0.6330
   62SAPC   H3R 4890   2.602   5.918  10.207  0.5330 -0.6406  0.6151
   62SAPC   H3S 4891   2.441   5.883  10.259  1.5583  1.4156 -3.4868
   62SAPC   C24 4892   2.612   5.793  10.370 -0.4322  0.1570 -0.2978
   62SAPC   H4R 4893   2.604   5.707  10.300 -0.8159  0.7998 -1.0643
   62SAPC   H4S 4894   2.553   5.772  10.461  0.4253  1.7937  0.6812
   62SAPC   C25 4895   2.761   5.800  10.400 -0.4246  0.0003 -0.4817
   62SAPC   H5R 4896   2.781   5.842  10.500  0.0391  2.5424 -1.5669
   62SAPC   C26 4897   2.860   5.754  10.323 -0.2001 -0.1728 -0.2977
   62SAPC   H6R 4898   2.961   5.774  10.360 -0.5800  1.5745 -0.1378
   62SAPC   C27 4899   2.858   5.699  10.181 -0.1114 -0.2658 -1.0442
   62SAPC   H7R 4900   2.953   5.730  10.132 -0.6883  0.0555 -1.9753
   62SAPC   H7S 4901   2.779   5.756  10.128 -0.0862  1.4769  0.6454
   62SAPC   C28 4902   2.828   5.548  10.176  0.4390  0.2027 -0.1095
   62SAPC   H8R 4903   2.798   5.493  10.267  0.7822 -0.8604 -0.6199
   62SAPC   C29 4904   2.835   5.469  10.068  0.6447 -0.0664  0.5612
   62SAPC   H9R 4905   2.825   5.362  10.090 -0.2231 -0.0545  0.2940
   62SAPC  C210 4906   2.876   5.525   9.930  0.0997  0.0109  0.3528
   62SAPC  H10R 4907   2.955   5.458   9.889 -1.3293 -1.3036 -0.3775
   62SAPC  H10S 4908   2.923   5.625   9.930  1.1172 -0.4506 -0.1305
   62SAPC  C211 4909   2.758   5.531   9.843 -0.5093  0.0961  0.0716
   62SAPC  H11R 4910   2.675   5.595   9.877  1.1797  2.0643  0.6379
   62SAPC  C212 4911   2.743   5.462   9.728 -0.0763  0.1433  0.0601
   62SAPC  H12R 4912   2.654   5.495   9.671 -0.9487  0.5666  1.5933
   62SAPC  C213 4913   2.838   5.372   9.662  0.2393  0.0356 -0.5165
   62SAPC  H13R 4914   2.794   5.276   9.626  2.5117 -1.0035 -0.7051
   62SAPC  H13S 4915   2.912   5.339   9.739  1.4679  2.5418 -0.5322
   62SAPC  C214 4916   2.908   5.450   9.556  0.2828 -0.0021 -0.0211
   62SAPC  H14R 4917   2.983   5.524   9.590  2.2207 -0.8633 -2.2133
   62SAPC  C215 4918   2.902   5.431   9.428 -0.0583  0.4526  0.2434
   62SAPC  H15R 4919   2.961   5.495   9.361  1.2930  0.1302  1.0721
   62SAPC  C216 4920   2.808   5.331   9.361  0.5600  0.2464 -0.3076
   62SAPC  H16R 4921   2.750   5.374   9.277 -1.4149  0.8243  1.2776
   62SAPC  H16S 4922   2.729   5.290   9.428 -1.1099 -1.3942 -3.0741
   62SAPC  C217 4923   2.879   5.205   9.303  0.1840 -0.2870 -0.4769
   62SAPC  H17R 4924   2.803   5.131   9.271 -1.8990  0.7739  1.6238
   62SAPC  H17S 4925   2.933   5.157   9.388 -1.2420 -0.7499  0.1926
   62SAPC  C218 4926   2.977   5.242   9.189  0.0065  0.4178 -0.0272
   62SAPC  H18R 4927   3.044   5.324   9.223  0.3492  0.9204 -1.8518
   62SAPC  H18S 4928   2.921   5.287   9.104  0.0280 -0.0799 -0.3015
   62SAPC  C219 4929   3.039   5.110   9.141 -0.7032 -0.3554 -0.1382
   62SAPC  H19R 4930   2.983   5.071   9.054 -1.5569  1.1712 -0.3037
   62SAPC  H19S 4931   3.023   5.042   9.227 -1.7741  0.0148 -0.0340
   62SAPC  C220 4932   3.189   5.128   9.104 -0.5859  0.3158  0.0218
   62SAPC  H20R 4933   3.239   5.183   9.186  0.5788 -1.6478  0.7085
   62SAPC  H20S 4934   3.205   5.179   9.007 -0.5019 -2.7532 -1.7015
   62SAPC  H20T 4935   3.243   5.031   9.100 -0.5466  0.2452  1.6220
   62SAPC   C33 4936   2.255   6.368   9.821 -0.7305  0.9394  0.6627
   62SAPC   H3X 4937   2.267   6.479   9.827 -1.0715  0.9260  1.7246
   62SAPC   H3Y 4938   2.150   6.333   9.819  0.0343 -1.4846  0.2800
   62SAPC   C34 4939   2.334   6.321   9.691  0.8748 -0.1326  0.1188
   62SAPC   H4X 4940   2.302   6.215   9.678  1.5171 -0.3839  0.5625
   62SAPC   H4Y 4941   2.443   6.341   9.687  0.6368  1.9790  1.8664
   62SAPC   C35 4942   2.261   6.406   9.580  0.1915  0.2709 -0.2106
   62SAPC   H5X 4943   2.294   6.509   9.605  0.0150  0.4092 -0.5402
   62SAPC   H5Y 4944   2.152   6.416   9.595  0.1791  1.5007 -0.9972
   62SAPC   C36 4945   2.297   6.368   9.435 -0.2768 -0.6201  0.2001
   62SAPC   H6X 4946   2.408   6.367   9.430 -0.2353  2.0156 -1.6254
   62SAPC   H6Y 4947   2.257   6.444   9.365  2.3984 -0.8509 -1.7031
   62SAPC   C37 4948   2.243   6.233   9.396  0.1794 -0.5468 -0.2886
   62SAPC   H7X 4949   2.135   6.226   9.421 -0.2518  1.9942 -1.1539
   62SAPC   H7Y 4950   2.290   6.156   9.462  0.9629 -0.7133 -1.0279
   62SAPC   C38 4951   2.265   6.197   9.248  0.1847 -0.7562  0.1109
   62SAPC   H8X 4952   2.221   6.274   9.181  0.2688 -1.3859 -0.6816
   62SAPC   H8Y 4953   2.210   6.103   9.228  1.4918 -1.6407  0.5575
   62SAPC   C39 4954   2.410   6.180   9.202  0.8490 -0.0627  0.3396
   62SAPC   H9X 4955   2.449   6.100   9.268  1.3875  1.7981  2.3904
   62SAPC   H9Y 4956   2.456   6.281   9.215  0.3215  0.0100  1.7641
   62SAPC  C310 4957   2.419   6.131   9.054  0.4425  0.7246 -0.2209
   62SAPC  H10X 4958   2.373   6.220   9.005 -1.9466 -0.3012 -0.0083
   62SAPC  H10Y 4959   2.360   6.038   9.035 -0.6461  1.6936 -1.8912
   62SAPC  C311 4960   2.568   6.109   9.004 -0.5627  0.0415 -0.7313
   62SAPC  H11X 4961   2.606   6.028   9.070 -1.2292  1.0883  1.0021
   62SAPC  H11Y 4962   2.625   6.197   9.041  0.4281 -1.9767  2.9933
   62SAPC  C312 4963   2.588   6.085   8.855  0.5299  0.0215 -0.2517
   62SAPC  H12X 4964   2.559   6.178   8.801 -0.6000 -0.4153 -0.4189
   62SAPC  H12Y 4965   2.524   6.006   8.812 -0.6262  0.5033  0.5471
   62SAPC  C313 4966   2.734   6.055   8.817 -0.2470 -0.5782 -0.5101
   62SAPC  H13X 4967   2.763   5.976   8.890  0.4042  2.0332  2.2650
   62SAPC  H13Y 4968   2.794   6.140   8.855  1.2889 -2.5794  1.8921
   62SAPC  C314 4969   2.754   6.029   8.667  0.0914 -0.3767 -0.5160
   62SAPC  H14X 4970   2.712   6.114   8.609 -0.8121 -0.0459  0.5811
   62SAPC  H14Y 4971   2.698   5.938   8.636 -1.8149  0.1149  1.2038
   62SAPC  C315 4972   2.900   6.023   8.627 -0.2251 -0.1474 -0.0268
   62SAPC  H15X 4973   2.968   5.952   8.680  0.3439 -0.9014 -1.7159
   62SAPC  H15Y 4974   2.946   6.116   8.668  1.9313 -1.7719  1.5086
   62SAPC  C316 4975   2.927   6.013   8.475 -0.4298 -0.8277  0.2913
   62SAPC  H16X 4976   2.876   6.094   8.419 -0.0849 -0.0984  1.0094
   62SAPC  H16Y 4977   2.894   5.919   8.425  1.0581  0.5140 -3.5969
   62SAPC  C317 4978   3.084   6.028   8.440 -0.0019 -0.1024 -0.1936
   62SAPC  H17X 4979   3.137   5.941   8.485 -0.5105 -0.4191 -0.1950
   62SAPC  H17Y 4980   3.119   6.113   8.503  0.1335 -0.9941  0.9689
   62SAPC  C318 4981   3.127   6.056   8.293 -0.4238 -0.1499 -0.4356
   62SAPC  H18X 4982   3.118   5.968   8.226  1.0237  0.7474 -1.8801
   62SAPC  H18Y 4983   3.234   6.086   8.298 -0.0170 -1.7179  0.9229
   62SAPC  H18Z 4984   3.067   6.136   8.244 -0.5249 -1.4123 -2.4453
   63SAPC     N 4985   6.463   2.582   6.015 -0.0668 -0.5442 -0.0964
   63SAPC   C12 4986   6.420   2.626   6.154 -0.6517 -0.6939  1.0539
   63SAPC  H12A 4987   6.364   2.718   6.142  0.7872  0.0509 -0.3179
   63SAPC  H12B 4988   6.507   2.650   6.214 -1.2325 -2.1738  2.5500
   63SAPC   C13 4989   6.347   2.583   5.921 -0.4092  0.6413 -0.2666
   63SAPC  H13A 4990   6.260   2.534   5.963 -1.7136  1.0073 -2.4278
   63SAPC  H13B 4991   6.322   2.688   5.910  1.0091  0.9786 -0.5570
   63SAPC  H13C 4992   6.387   2.551   5.826  4.0021  0.9214  1.2683
   63SAPC   C14 4993   6.573   2.677   5.976 -0.0134  0.1746 -0.0620
   63SAPC  H14A 4994   6.614   2.657   5.878  1.0183  1.3497  0.1007
   63SAPC  H14B 4995   6.537   2.779   5.982 -2.9639 -0.7941  0.1080
   63SAPC  H14C 4996   6.650   2.668   6.051 -0.7954  1.3249  0.9130
   63SAPC   C15 4997   6.523   2.444   6.017 -0.6948  0.0250  0.1836
   63SAPC  H15A 4998   6.441   2.375   6.032 -0.6532 -0.2768 -0.8931
   63SAPC  H15B 4999   6.575   2.423   5.925 -1.6942  0.8595 -0.6018
   63SAPC  H15C 5000   6.590   2.435   6.100  1.6909  0.4907 -1.5809
   63SAPC   C11 5001   6.328   2.527   6.233 -0.1129  0.0509 -0.0327
   63SAPC  H11A 5002   6.313   2.569   6.335  1.3784 -1.1565  0.7325
   63SAPC  H11B 5003   6.383   2.432   6.252 -0.9530 -0.7718 -1.5025
   63SAPC     P 5004   6.080   2.602   6.190 -0.0581 -0.0399  0.9303
   63SAPC   O13 5005   6.117   2.735   6.137  0.0750  0.7610 -0.3138
   63SAPC   O14 5006   5.955   2.548   6.125  0.2142 -0.2339 -0.5676
   63SAPC   O12 5007   6.203   2.498   6.169  0.2414  0.1017  0.0634
   63SAPC   O11 5008   6.057   2.608   6.351  0.4153 -0.1607  0.7375
   63SAPC    C1 5009   6.083   2.493   6.431 -0.5180  0.7083 -0.0973
   63SAPC    HA 5010   6.158   2.423   6.390  0.3454 -0.1311  2.6782
   63SAPC    HB 5011   6.126   2.530   6.527  0.0482 -0.2801  0.0473
   63SAPC    C2 5012   5.963   2.404   6.453  0.2364  0.5603 -0.1511
   63SAPC    HS 5013   5.926   2.374   6.352 -0.5934 -1.2202  0.6334
   63SAPC   O21 5014   5.860   2.475   6.521 -0.0336  0.2844  0.1543
   63SAPC   C21 5015   5.746   2.421   6.522  0.2531  0.7174 -0.0148
   63SAPC   O22 5016   5.702   2.328   6.451 -0.7098 -0.2717  0.0973
   63SAPC   C22 5017   5.653   2.499   6.616 -0.7308  0.3421 -0.3785
   63SAPC   H2R 5018   5.621   2.432   6.699 -2.6010  1.4467 -0.1592
   63SAPC   H2S 5019   5.694   2.593   6.658 -4.3445  2.0433 -0.3054
   63SAPC    C3 5020   6.004   2.271   6.521 -0.3499  0.0988  0.1199
   63SAPC    HX 5021   6.097   2.237   6.471  1.2479  1.7535  1.7884
   63SAPC    HY 5022   5.928   2.190   6.518  0.2119 -0.5938  2.5302
   63SAPC   O31 5023   6.049   2.285   6.653 -0.2459  0.0984 -0.0302
   63SAPC   C31 5024   5.954   2.282   6.750 -0.1443 -0.0810 -0.2077
   63SAPC   O32 5025   5.839   2.256   6.736  0.9300  0.0389 -0.4470
   63SAPC   C32 5026   6.019   2.305   6.885 -0.6700  0.0093  0.1205
   63SAPC   H2X 5027   6.107   2.371   6.871 -0.9926  0.5454  0.5884
   63SAPC   H2Y 5028   6.035   2.200   6.918 -1.3304 -0.6260 -1.4528
   63SAPC   C23 5029   5.526   2.540   6.545 -0.2093 -0.1935  0.3826
   63SAPC   H3R 5030   5.500   2.459   6.473  1.2909 -0.2148 -0.1573
   63SAPC   H3S 5031   5.548   2.634   6.491  0.5319 -0.9940 -0.7625
   63SAPC   C24 5032   5.402   2.570   6.634 -0.2395 -0.2894  0.3680
   63SAPC   H4R 5033   5.331   2.627   6.571 -0.2986 -1.5166 -0.7000
   63SAPC   H4S 5034   5.448   2.630   6.716  0.3395  0.7337 -0.6722
   63SAPC   C25 5035   5.338   2.450   6.695 -0.1450  0.1791  0.7553
   63SAPC   H5R 5036   5.317   2.363   6.630 -0.8234  0.3717  0.7060
   63SAPC   C26 5037   5.293   2.418   6.819  0.2178 -0.7801  0.3545
   63SAPC   H6R 5038   5.249   2.318   6.833 -1.8368 -0.2152 -1.4874
   63SAPC   C27 5039   5.300   2.509   6.938  0.0935  0.0465  0.2602
   63SAPC   H7R 5040   5.221   2.479   7.010  0.8847 -1.6244  0.4568
   63SAPC   H7S 5041   5.280   2.614   6.908  1.3620  0.0612 -0.6218
   63SAPC   C28 5042   5.435   2.497   7.002 -0.2453  0.0648 -0.7126
   63SAPC   H8R 5043   5.519   2.506   6.932  0.2102  0.1698 -0.1612
   63SAPC   C29 5044   5.459   2.477   7.135 -0.0442 -0.3143  1.2896
   63SAPC   H9R 5045   5.566   2.476   7.159  0.4101 -0.7125 -0.6367
   63SAPC  C210 5046   5.362   2.468   7.251 -0.3096 -0.0471 -0.5082
   63SAPC  H10R 5047   5.317   2.367   7.254  0.7669 -0.5840 -1.7026
   63SAPC  H10S 5048   5.275   2.537   7.240  0.4711  1.4515  1.9150
   63SAPC  C211 5049   5.414   2.502   7.395 -0.3184 -0.3961 -0.4957
   63SAPC  H11R 5050   5.371   2.587   7.449  1.7805 -1.3177  2.9597
   63SAPC  C212 5051   5.493   2.428   7.476 -0.2985 -0.7348  0.2271
   63SAPC  H12R 5052   5.513   2.468   7.577 -1.1623 -2.6179  1.2055
   63SAPC  C213 5053   5.551   2.299   7.449 -1.2650  0.7669 -0.1109
   63SAPC  H13R 5054   5.662   2.304   7.447 -1.0232 -0.4728  3.3459
   63SAPC  H13S 5055   5.524   2.259   7.348 -2.4617  0.1708  0.4286
   63SAPC  C214 5056   5.504   2.197   7.552  0.4579 -0.1244  0.3836
   63SAPC  H14R 5057   5.406   2.148   7.538  1.0898 -1.6279  1.0180
   63SAPC  C215 5058   5.561   2.173   7.670  0.3833  0.3274 -0.0307
   63SAPC  H15R 5059   5.507   2.108   7.741 -0.4137  0.9335 -0.0676
   63SAPC  C216 5060   5.689   2.227   7.735  0.6485  0.0243 -0.2889
   63SAPC  H16R 5061   5.747   2.288   7.661 -0.3010 -0.7253 -1.7000
   63SAPC  H16S 5062   5.749   2.145   7.779  2.5473  0.3969 -2.0365
   63SAPC  C217 5063   5.654   2.327   7.856 -0.6300 -0.3120  0.1355
   63SAPC  H17R 5064   5.615   2.416   7.802 -0.5116 -0.2174  0.2042
   63SAPC  H17S 5065   5.752   2.363   7.896 -0.8355 -1.2081  1.5173
   63SAPC  C218 5066   5.558   2.276   7.961 -0.1920 -0.3093  0.4195
   63SAPC  H18R 5067   5.452   2.264   7.928  0.5580  0.1979 -2.3869
   63SAPC  H18S 5068   5.559   2.361   8.033 -1.8471  0.7143 -0.6986
   63SAPC  C219 5069   5.601   2.142   8.020  0.3894  0.0945 -0.1743
   63SAPC  H19R 5070   5.591   2.058   7.948  2.7200  1.2963 -2.0709
   63SAPC  H19S 5071   5.527   2.107   8.095 -2.0082 -0.3800 -2.5855
   63SAPC  C220 5072   5.750   2.127   8.073  0.5725 -0.3101  0.6241
   63SAPC  H20R 5073   5.768   2.209   8.146  0.0694 -0.7883  1.2952
   63SAPC  H20S 5074   5.818   2.151   7.988 -0.0569  0.7393  0.3995
   63SAPC  H20T 5075   5.762   2.023   8.112  0.3642 -0.2461  0.8614
   63SAPC   C33 5076   5.926   2.359   6.994 -0.4442  0.4310  0.0355
   63SAPC   H3X 5077   5.832   2.298   6.993  0.2457 -0.8026  2.5706
   63SAPC   H3Y 5078   5.896   2.464   6.977 -0.3693  0.5353  0.5604
   63SAPC   C34 5079   5.986   2.333   7.129  0.1065 -0.9344 -0.4024
   63SAPC   H4X 5080   6.049   2.423   7.144  1.2875 -1.6848 -0.6514
   63SAPC   H4Y 5081   6.052   2.244   7.145  0.3903 -0.3605  2.0858
   63SAPC   C35 5082   5.880   2.322   7.249 -0.5302 -0.0444  0.2884
   63SAPC   H5X 5083   5.804   2.241   7.237  0.5273 -1.2565  1.5254
   63SAPC   H5Y 5084   5.832   2.422   7.256 -0.7784 -0.1980  0.8128
   63SAPC   C36 5085   5.946   2.282   7.386 -0.2412  0.1692 -0.1166
   63SAPC   H6X 5086   5.988   2.179   7.383 -0.8872 -0.0777 -1.0236
   63SAPC   H6Y 5087   5.865   2.281   7.461 -0.5474 -1.6481 -0.4282
   63SAPC   C37 5088   6.053   2.378   7.430  0.4496  0.0740  0.1629
   63SAPC   H7X 5089   5.997   2.466   7.469 -0.9707  0.7249 -3.0443
   63SAPC   H7Y 5090   6.119   2.389   7.342 -0.6942  0.5738 -0.6448
   63SAPC   C38 5091   6.132   2.325   7.548 -0.2488 -0.3200 -0.1051
   63SAPC   H8X 5092   6.210   2.399   7.576  1.3428 -1.6540 -0.8354
   63SAPC   H8Y 5093   6.190   2.236   7.514  1.4441  0.4836  0.5391
   63SAPC   C39 5094   6.056   2.281   7.670  0.3555  0.3993 -0.4335
   63SAPC   H9X 5095   6.012   2.179   7.661  0.6682  0.2424 -0.2076
   63SAPC   H9Y 5096   5.973   2.355   7.681 -1.8950 -2.2904  3.2248
   63SAPC  C310 5097   6.147   2.281   7.792  0.0238 -0.4146 -0.7461
   63SAPC  H10X 5098   6.174   2.385   7.821 -2.1517 -0.3264  1.2671
   63SAPC  H10Y 5099   6.232   2.215   7.763 -1.2202 -2.3662 -0.1370
   63SAPC  C311 5100   6.083   2.203   7.912  0.6935  0.8648  0.2165
   63SAPC  H11X 5101   6.045   2.104   7.880 -1.6061  1.3747  1.1507
   63SAPC  H11Y 5102   5.996   2.256   7.957 -1.2409 -0.4816 -1.7162
   63SAPC  C312 5103   6.179   2.199   8.030  0.2847 -0.1982  0.4405
   63SAPC  H12X 5104   6.227   2.298   8.046  0.3688  0.1028 -1.4501
   63SAPC  H12Y 5105   6.256   2.126   7.998  0.3614  0.2065 -0.3021
   63SAPC  C313 5106   6.125   2.136   8.158  0.8553  0.7090  0.7818
   63SAPC  H13X 5107   6.074   2.042   8.128  0.6986  0.2442  2.3864
   63SAPC  H13Y 5108   6.053   2.204   8.208  0.3720  0.2820  0.6716
   63SAPC  C314 5109   6.243   2.101   8.254  0.3493 -0.0258  0.8235
   63SAPC  H14X 5110   6.294   2.197   8.273  0.2499 -0.0853  1.4258
   63SAPC  H14Y 5111   6.308   2.024   8.207  2.4546  1.1515  1.6925
   63SAPC  C315 5112   6.200   2.048   8.391  0.1274 -0.3502 -0.1040
   63SAPC  H15X 5113   6.137   1.957   8.375  0.5940 -1.0081  1.5558
   63SAPC  H15Y 5114   6.140   2.133   8.427 -0.1248 -1.1061  1.3667
   63SAPC  C316 5115   6.313   1.997   8.473 -0.0104 -0.0762  0.3640
   63SAPC  H16X 5116   6.362   2.094   8.497 -1.8756  0.6716  1.3581
   63SAPC  H16Y 5117   6.381   1.938   8.408  1.3899  0.8354  0.9484
   63SAPC  C317 5118   6.278   1.910   8.599 -0.4663 -0.6410 -0.5121
   63SAPC  H17X 5119   6.218   1.964   8.675 -1.1290 -0.4082 -1.1824
   63SAPC  H17Y 5120   6.373   1.884   8.651 -0.4941  0.1391 -0.0636
   63SAPC  C318 5121   6.219   1.776   8.558 -0.8459 -0.1864  0.3119
   63SAPC  H18X 5122   6.275   1.742   8.468  1.0532  3.3481 -0.0298
   63SAPC  H18Y 5123   6.114   1.786   8.524 -1.0540  2.5395  1.4870
   63SAPC  H18Z 5124   6.211   1.700   8.639  0.6333 -0.5256  0.1763
   64SAPC     N 5125   4.330   2.762   6.209  0.2111  0.1406 -0.3223
   64SAPC   C12 5126   4.322   2.620   6.267 -0.6466 -0.6083 -0.4903
   64SAPC  H12A 5127   4.223   2.616   6.310 -1.8125  2.1567 -2.5271
   64SAPC  H12B 5128   4.396   2.612   6.345 -0.2210  1.0665 -0.6757
   64SAPC   C13 5129   4.314   2.858   6.326  0.4797  0.2566 -0.0873
   64SAPC  H13A 5130   4.301   2.954   6.279 -1.5572  0.8275  1.5531
   64SAPC  H13B 5131   4.226   2.839   6.385 -0.4311  1.7250 -0.9156
   64SAPC  H13C 5132   4.401   2.861   6.390  0.4849  1.2128 -0.1281
   64SAPC   C14 5133   4.458   2.779   6.126 -0.9940 -0.4825  0.0538
   64SAPC  H14A 5134   4.448   2.720   6.036 -1.2407  0.2566 -0.4098
   64SAPC  H14B 5135   4.475   2.882   6.100  2.5013 -0.5930  1.4072
   64SAPC  H14C 5136   4.544   2.737   6.177  0.4663  0.5585 -1.4617
   64SAPC   C15 5137   4.219   2.793   6.113  0.1605 -1.0607  0.5227
   64SAPC  H15A 5138   4.209   2.710   6.044 -0.8548  0.1746 -0.8971
   64SAPC  H15B 5139   4.125   2.809   6.164 -0.1190  0.0130 -0.2648
   64SAPC  H15C 5140   4.244   2.883   6.057  0.0968 -1.9337 -0.9727
   64SAPC   C11 5141   4.327   2.496   6.169 -0.0471 -0.1356  0.2666
   64SAPC  H11A 5142   4.335   2.406   6.234 -1.2127  0.3323  1.1008
   64SAPC  H11B 5143   4.423   2.512   6.116  0.6754 -1.3849  1.1492
   64SAPC     P 5144   4.074   2.455   6.120  0.1420  0.0185  0.2714
   64SAPC   O13 5145   3.982   2.569   6.098  0.0656 -0.5196 -0.3524
   64SAPC   O14 5146   4.031   2.332   6.055  0.9070  0.3356 -0.0012
   64SAPC   O12 5147   4.222   2.490   6.069  0.7360  0.4830 -0.4082
   64SAPC   O11 5148   4.093   2.433   6.274  0.1285 -1.0184  0.1389
   64SAPC    C1 5149   3.976   2.390   6.356  0.6411  0.0244 -0.1976
   64SAPC    HA 5150   3.881   2.376   6.299 -0.2438  1.0778  0.9763
   64SAPC    HB 5151   4.001   2.295   6.407  0.4227  0.1058  0.0645
   64SAPC    C2 5152   3.974   2.489   6.476 -0.3980 -0.8135  0.1346
   64SAPC    HS 5153   3.949   2.593   6.448 -1.3101 -0.8639  0.7058
   64SAPC   O21 5154   4.102   2.474   6.540 -0.2464  0.3666 -0.2193
   64SAPC   C21 5155   4.169   2.576   6.583  0.5161  0.8191 -0.1971
   64SAPC   O22 5156   4.150   2.694   6.552 -0.2230  0.2363  0.1789
   64SAPC   C22 5157   4.262   2.522   6.685  0.4804 -0.3993 -0.0354
   64SAPC   H2R 5158   4.323   2.442   6.638  3.2780  0.6316  1.6040
   64SAPC   H2S 5159   4.337   2.598   6.714  0.4832  0.2505 -1.6498
   64SAPC    C3 5160   3.863   2.463   6.586  0.5589 -0.1391 -0.3704
   64SAPC    HX 5161   3.881   2.357   6.614  1.5110  0.1539  0.1594
   64SAPC    HY 5162   3.769   2.477   6.529  0.2572 -0.3224  0.0715
   64SAPC   O31 5163   3.877   2.550   6.703 -0.3616 -0.7652  0.2122
   64SAPC   C31 5164   3.853   2.679   6.688  0.4671 -0.7155 -0.0965
   64SAPC   O32 5165   3.817   2.737   6.587  0.3658  0.2223 -0.2234
   64SAPC   C32 5166   3.850   2.738   6.820 -0.6173 -1.1361 -0.6077
   64SAPC   H2X 5167   3.949   2.712   6.864  0.4084  2.2191 -0.6148
   64SAPC   H2Y 5168   3.764   2.703   6.881 -1.5167  0.8748 -0.6329
   64SAPC   C23 5169   4.187   2.466   6.805 -0.9696  0.3903  0.2402
   64SAPC   H3R 5170   4.118   2.387   6.767 -0.7696  0.0950  0.4800
   64SAPC   H3S 5171   4.116   2.543   6.841 -3.2551  1.0076 -4.8668
   64SAPC   C24 5172   4.279   2.421   6.921 -0.1843 -1.0177  0.0190
   64SAPC   H4R 5173   4.340   2.506   6.957 -1.2358 -0.8749  1.5549
   64SAPC   H4S 5174   4.345   2.334   6.901 -0.5433 -1.0374 -1.1591
   64SAPC   C25 5175   4.184   2.376   7.037  0.7805  0.6614  0.2305
   64SAPC   H5R 5176   4.131   2.283   7.010 -2.4723  1.3140  3.5359
   64SAPC   C26 5177   4.151   2.437   7.154 -0.1743 -0.2597  0.3055
   64SAPC   H6R 5178   4.068   2.393   7.211 -1.4716  0.1768 -1.1443
   64SAPC   C27 5179   4.199   2.574   7.187  0.0707 -0.2572 -0.0978
   64SAPC   H7R 5180   4.131   2.638   7.248  1.4830  1.2192 -0.0110
   64SAPC   H7S 5181   4.203   2.642   7.099 -0.2138 -0.8174 -0.5459
   64SAPC   C28 5182   4.344   2.561   7.235 -0.5190 -0.1363  0.2867
   64SAPC   H8R 5183   4.410   2.496   7.175  0.6028  0.8398  0.3981
   64SAPC   C29 5184   4.396   2.612   7.346 -0.4466  0.6092  0.0718
   64SAPC   H9R 5185   4.499   2.581   7.370 -0.7884 -0.8722 -0.2947
   64SAPC  C210 5186   4.325   2.692   7.452  0.5589  0.4108 -0.4161
   64SAPC  H10R 5187   4.236   2.734   7.401  1.6883  2.7965 -0.5521
   64SAPC  H10S 5188   4.366   2.791   7.482  0.3363  0.2592  0.4072
   64SAPC  C211 5189   4.279   2.608   7.571  0.0441 -0.3843  0.7470
   64SAPC  H11R 5190   4.237   2.516   7.529 -0.4997  0.8076 -1.4632
   64SAPC  C212 5191   4.293   2.632   7.703  0.0379  0.1218  0.0970
   64SAPC  H12R 5192   4.254   2.565   7.781  1.8433  0.7124  1.5747
   64SAPC  C213 5193   4.362   2.761   7.753 -0.4157  0.4765 -0.5281
   64SAPC  H13R 5194   4.437   2.802   7.682  0.0610  1.9872  0.7875
   64SAPC  H13S 5195   4.421   2.719   7.837  0.7189 -2.7470 -2.7496
   64SAPC  C214 5196   4.264   2.867   7.793  0.5155 -0.8550 -0.5120
   64SAPC  H14R 5197   4.256   2.950   7.721  1.9784 -1.7514 -1.7801
   64SAPC  C215 5198   4.190   2.878   7.912  0.5488  0.1146 -0.7668
   64SAPC  H15R 5199   4.132   2.968   7.935  1.6228  0.2884  1.5748
   64SAPC  C216 5200   4.186   2.788   8.032  0.6842  0.3316 -0.4546
   64SAPC  H16R 5201   4.217   2.850   8.119 -0.8440  1.5891 -0.7656
   64SAPC  H16S 5202   4.260   2.705   8.026  0.0487 -0.3373  0.7555
   64SAPC  C217 5203   4.045   2.726   8.061  0.1827 -0.2304 -0.0139
   64SAPC  H17R 5204   4.059   2.624   8.103 -1.5726 -0.5223 -0.0664
   64SAPC  H17S 5205   3.992   2.701   7.967  0.4301 -0.2437 -0.1506
   64SAPC  C218 5206   3.952   2.797   8.155 -1.1537  0.1603 -1.1171
   64SAPC  H18R 5207   3.854   2.747   8.140  0.2053 -2.2099 -2.8423
   64SAPC  H18S 5208   3.937   2.901   8.121  0.8718 -0.0300 -2.8203
   64SAPC  C219 5209   3.997   2.790   8.304  0.0134  0.2553  0.2287
   64SAPC  H19R 5210   3.948   2.873   8.360 -1.4023 -0.1239 -0.4107
   64SAPC  H19S 5211   4.107   2.799   8.314 -0.0219  0.9906  0.0534
   64SAPC  C220 5212   3.948   2.660   8.370  0.2058  0.0237 -0.9492
   64SAPC  H20R 5213   3.933   2.661   8.480 -1.9918  2.9616 -1.1672
   64SAPC  H20S 5214   4.022   2.582   8.342 -0.2518 -0.8764  0.2780
   64SAPC  H20T 5215   3.848   2.628   8.335 -0.6615  2.1024 -0.4836
   64SAPC   C33 5216   3.861   2.889   6.801  0.3832  0.4490  0.3141
   64SAPC   H3X 5217   3.771   2.922   6.747  0.1661 -1.2194 -0.4053
   64SAPC   H3Y 5218   3.953   2.908   6.741 -0.6268  1.0769 -1.0819
   64SAPC   C34 5219   3.874   2.971   6.928 -0.5860  0.9086  0.2872
   64SAPC   H4X 5220   3.782   2.961   6.989 -1.1037 -2.6514 -0.8668
   64SAPC   H4Y 5221   3.876   3.076   6.893 -1.3722  0.7569 -0.2592
   64SAPC   C35 5222   3.995   2.934   7.016  0.2110 -0.1710 -0.3213
   64SAPC   H5X 5223   4.083   2.919   6.951  1.1265  3.9341 -0.3004
   64SAPC   H5Y 5224   3.975   2.845   7.079  0.9358  0.6603  1.1429
   64SAPC   C36 5225   4.021   3.055   7.109  0.8414  0.6057  0.1449
   64SAPC   H6X 5226   3.927   3.095   7.153  1.2105  0.1105  1.4287
   64SAPC   H6Y 5227   4.070   3.132   7.045  1.8323 -0.3034 -0.2252
   64SAPC   C37 5228   4.102   3.017   7.233 -0.4992  0.3023 -0.0511
   64SAPC   H7X 5229   4.205   2.994   7.198 -0.0989  0.3406  1.0318
   64SAPC   H7Y 5230   4.053   2.925   7.271  1.5471 -0.5117  0.7612
   64SAPC   C38 5231   4.120   3.128   7.337  0.1192 -0.0442  0.0862
   64SAPC   H8X 5232   4.183   3.212   7.301 -0.6609  0.5392  0.0831
   64SAPC   H8Y 5233   4.177   3.075   7.418 -0.9990  0.6000  1.3347
   64SAPC   C39 5234   3.990   3.185   7.391 -0.3973  0.2695  0.0129
   64SAPC   H9X 5235   3.933   3.099   7.431 -0.5595  0.4082  0.0780
   64SAPC   H9Y 5236   3.931   3.225   7.306  0.2099  1.1001 -0.0306
   64SAPC  C310 5237   4.019   3.287   7.504  0.1712 -0.7752 -0.4778
   64SAPC  H10X 5238   3.921   3.318   7.546  0.7763  0.8424 -0.1952
   64SAPC  H10Y 5239   4.077   3.371   7.458  1.5921 -0.2612  2.0861
   64SAPC  C311 5240   4.100   3.229   7.623 -0.2927 -0.1629 -0.6868
   64SAPC  H11X 5241   4.200   3.198   7.586 -0.5883  0.4420 -2.0548
   64SAPC  H11Y 5242   4.045   3.138   7.658  0.9811 -1.3369 -1.6482
   64SAPC  C312 5243   4.121   3.327   7.736 -0.9429 -0.5799 -0.4239
   64SAPC  H12X 5244   4.033   3.394   7.737 -0.5202 -0.0178  0.7905
   64SAPC  H12Y 5245   4.211   3.385   7.707 -0.0144 -1.0547  1.3214
   64SAPC  C313 5246   4.151   3.263   7.879  0.8187  0.3477 -0.0047
   64SAPC  H13X 5247   4.227   3.182   7.869  0.1697 -0.0206 -2.8006
   64SAPC  H13Y 5248   4.058   3.217   7.922  0.2960  1.5693  0.2117
   64SAPC  C314 5249   4.205   3.373   7.969  0.3844  0.3788 -0.4137
   64SAPC  H14X 5250   4.139   3.462   7.963 -2.8624 -1.7227  1.0563
   64SAPC  H14Y 5251   4.309   3.387   7.933  1.2241 -0.2248  1.6455
   64SAPC  C315 5252   4.208   3.330   8.114 -0.2516  0.6986  0.1718
   64SAPC  H15X 5253   4.100   3.318   8.138 -0.2872  1.8265  0.6510
   64SAPC  H15Y 5254   4.243   3.415   8.176  1.3491  0.4522 -0.3610
   64SAPC  C316 5255   4.287   3.205   8.155  0.2733 -0.1671  0.6230
   64SAPC  H16X 5256   4.395   3.231   8.157 -0.2376  2.1192  1.6332
   64SAPC  H16Y 5257   4.267   3.121   8.086  1.4115  0.2342 -0.2376
   64SAPC  C317 5258   4.240   3.152   8.286 -0.5518  0.1159 -0.6671
   64SAPC  H17X 5259   4.230   3.041   8.275  0.5889 -0.0993  0.2880
   64SAPC  H17Y 5260   4.140   3.194   8.309 -0.1265  0.9716 -0.3468
   64SAPC  C318 5261   4.329   3.181   8.410 -0.4761  0.1541 -0.5014
   64SAPC  H18X 5262   4.314   3.114   8.497 -0.6806  0.3176 -0.4080
   64SAPC  H18Y 5263   4.306   3.283   8.450  3.3932 -0.2021  3.3205
   64SAPC  H18Z 5264   4.434   3.196   8.379 -1.1799  0.7755 -2.8055
   65SAPC     N 5265   2.164   4.176   5.889  0.3342  0.5571 -0.5113
   65SAPC   C12 5266   2.279   4.077   5.881 -0.0428  0.4995 -0.8333
   65SAPC  H12A 5267   2.322   4.059   5.784  0.4437 -2.1557 -0.1926
   65SAPC  H12B 5268   2.238   3.982   5.910  0.9131 -0.0490 -1.2530
   65SAPC   C13 5269   2.117   4.196   6.025  0.3181  0.5456 -0.1003
   65SAPC  H13A 5270   2.044   4.275   6.035 -1.7707 -1.2656 -0.2890
   65SAPC  H13B 5271   2.067   4.109   6.066 -2.0113  1.8507  0.0333
   65SAPC  H13C 5272   2.195   4.218   6.095  2.3158 -2.7148 -1.0923
   65SAPC   C14 5273   2.193   4.311   5.830 -0.3627 -0.9859 -0.1158
   65SAPC  H14A 5274   2.282   4.344   5.881 -0.6980  0.8711 -0.6681
   65SAPC  H14B 5275   2.211   4.311   5.723 -2.2246 -2.9350 -0.4889
   65SAPC  H14C 5276   2.120   4.387   5.854 -0.4682 -1.5212  1.3219
   65SAPC   C15 5277   2.050   4.120   5.809 -0.5747  0.6551 -0.1877
   65SAPC  H15A 5278   2.074   4.104   5.705  0.7747 -0.4628  0.2576
   65SAPC  H15B 5279   2.012   4.027   5.848  1.7010 -0.0983  0.3657
   65SAPC  H15C 5280   1.972   4.195   5.813 -2.2121 -1.0215  0.7500
   65SAPC   C11 5281   2.410   4.102   5.969  0.1090 -0.0418  0.3192
   65SAPC  H11A 5282   2.470   4.012   5.947 -1.1439 -0.9612  0.5425
   65SAPC  H11B 5283   2.388   4.105   6.078 -0.8550 -0.5377  0.1454
   65SAPC     P 5284   2.523   4.339   6.001  0.2168  0.2619 -0.6650
   65SAPC   O13 5285   2.667   4.350   5.979  0.4365  0.5296  0.2675
   65SAPC   O14 5286   2.434   4.454   5.966  0.1685 -0.5225  0.3661
   65SAPC   O12 5287   2.471   4.220   5.924  0.1968  0.1220  0.8356
   65SAPC   O11 5288   2.495   4.294   6.145  0.0904 -0.6536 -0.1411
   65SAPC    C1 5289   2.594   4.286   6.247  0.5659  0.9310 -0.0787
   65SAPC    HA 5290   2.671   4.366   6.243  0.1379  1.3658  0.2386
   65SAPC    HB 5291   2.535   4.296   6.341  0.9498  0.9302  0.1635
   65SAPC    C2 5292   2.649   4.145   6.253  1.0032  0.0929 -0.2501
   65SAPC    HS 5293   2.637   4.099   6.153 -1.7491 -0.9091  0.4305
   65SAPC   O21 5294   2.564   4.067   6.339 -0.0448 -0.0609 -0.2436
   65SAPC   C21 5295   2.567   3.934   6.358 -0.1640 -0.0382  0.2222
   65SAPC   O22 5296   2.638   3.857   6.298 -0.1096  0.0140 -0.7420
   65SAPC   C22 5297   2.473   3.905   6.470  0.3238  0.1195  0.0912
   65SAPC   H2R 5298   2.514   3.963   6.556  0.8103 -0.3627  0.1849
   65SAPC   H2S 5299   2.377   3.951   6.435  1.0145 -0.3888 -2.6905
   65SAPC    C3 5300   2.800   4.145   6.300 -0.3589  0.5840  0.9521
   65SAPC    HX 5301   2.862   4.207   6.231 -0.6920 -0.3985 -0.2518
   65SAPC    HY 5302   2.839   4.041   6.294 -0.1571  0.7387 -2.3349
   65SAPC   O31 5303   2.815   4.204   6.429  0.2940  0.2701 -0.6469
   65SAPC   C31 5304   2.827   4.117   6.532  0.2327  0.5084  0.5666
   65SAPC   O32 5305   2.850   3.998   6.528 -0.0638 -0.4617  0.1865
   65SAPC   C32 5306   2.810   4.205   6.653  0.1438 -0.5197 -0.1972
   65SAPC   H2X 5307   2.712   4.255   6.662  1.3399  1.9281  0.1692
   65SAPC   H2Y 5308   2.883   4.290   6.653 -0.4491 -0.0076 -0.5758
   65SAPC   C23 5309   2.466   3.752   6.508 -0.4613  0.5597 -0.0054
   65SAPC   H3R 5310   2.569   3.711   6.503 -0.5274  0.3810  0.1082
   65SAPC   H3S 5311   2.406   3.705   6.427  2.2672 -0.2144 -1.7475
   65SAPC   C24 5312   2.406   3.728   6.647 -0.1555 -0.3180  0.0690
   65SAPC   H4R 5313   2.302   3.767   6.639 -0.2011 -0.7800 -2.3915
   65SAPC   H4S 5314   2.450   3.781   6.734  0.2114 -0.7310  0.1397
   65SAPC   C25 5315   2.427   3.577   6.666  0.7547 -0.3047  0.3642
   65SAPC   H5R 5316   2.370   3.515   6.596  3.4213 -0.5730 -1.7404
   65SAPC   C26 5317   2.501   3.525   6.761  0.0515 -0.4734 -0.4213
   65SAPC   H6R 5318   2.495   3.415   6.770 -0.6286 -0.3149  1.5257
   65SAPC   C27 5319   2.595   3.589   6.868 -0.0289  0.2097  0.3275
   65SAPC   H7R 5320   2.642   3.689   6.854  1.1646 -0.5696 -1.5900
   65SAPC   H7S 5321   2.686   3.527   6.862 -0.0587  0.1449  0.5464
   65SAPC   C28 5322   2.527   3.573   7.002 -0.8775 -0.2994 -0.5735
   65SAPC   H8R 5323   2.446   3.645   7.013  0.4539  1.0469  1.0434
   65SAPC   C29 5324   2.569   3.503   7.108  0.0528  0.4101 -1.1919
   65SAPC   H9R 5325   2.515   3.505   7.204 -0.4116 -3.7649 -1.1597
   65SAPC  C210 5326   2.695   3.422   7.106 -0.2630 -0.0916 -0.4126
   65SAPC  H10R 5327   2.751   3.402   7.012  1.4926 -1.6128  0.8848
   65SAPC  H10S 5328   2.660   3.321   7.137  1.4675 -0.0169  2.0778
   65SAPC  C211 5329   2.793   3.484   7.206 -1.0377  0.3630  0.1846
   65SAPC  H11R 5330   2.842   3.578   7.177 -0.5543 -0.9382 -3.8620
   65SAPC  C212 5331   2.838   3.434   7.325  0.4222  0.4163  0.2545
   65SAPC  H12R 5332   2.917   3.488   7.378 -0.9419  2.2144  0.5492
   65SAPC  C213 5333   2.796   3.302   7.391 -0.2672 -0.1926  0.9993
   65SAPC  H13R 5334   2.705   3.266   7.339 -0.4722  2.8758 -1.0420
   65SAPC  H13S 5335   2.764   3.313   7.497 -2.6589  0.3306  0.2820
   65SAPC  C214 5336   2.901   3.202   7.403 -0.6420 -0.6723 -0.1945
   65SAPC  H14R 5337   2.875   3.111   7.346 -1.8217  0.0288 -0.8212
   65SAPC  C215 5338   3.011   3.203   7.483 -0.8408 -0.2848  0.1578
   65SAPC  H15R 5339   3.082   3.119   7.488  0.9477  1.2252  1.4114
   65SAPC  C216 5340   3.050   3.312   7.584 -0.5159 -0.8586  0.0017
   65SAPC  H16R 5341   3.089   3.280   7.682  0.2816  1.2100  0.4195
   65SAPC  H16S 5342   2.959   3.376   7.594 -0.0364 -0.1307 -0.2036
   65SAPC  C217 5343   3.160   3.401   7.523 -0.0051  0.2562  0.7246
   65SAPC  H17R 5344   3.130   3.420   7.418 -1.0777  2.0363  1.3227
   65SAPC  H17S 5345   3.261   3.354   7.524  0.4003  1.1060  1.0264
   65SAPC  C218 5346   3.162   3.533   7.593  0.0327 -0.9575 -0.9855
   65SAPC  H18R 5347   3.062   3.580   7.605  1.2757  1.3635  1.4208
   65SAPC  H18S 5348   3.223   3.606   7.536 -0.5503 -0.2480 -0.7144
   65SAPC  C219 5349   3.214   3.527   7.737  0.1115  0.1769  0.3644
   65SAPC  H19R 5350   3.298   3.455   7.729  0.6358  1.0094 -3.5199
   65SAPC  H19S 5351   3.135   3.498   7.810  0.8547 -1.6540  0.4909
   65SAPC  C220 5352   3.269   3.659   7.784 -0.3794  0.0877  0.1700
   65SAPC  H20R 5353   3.323   3.663   7.881 -0.4335 -0.0083  0.2045
   65SAPC  H20S 5354   3.189   3.733   7.808 -4.3400 -3.6761 -0.1118
   65SAPC  H20T 5355   3.330   3.716   7.711 -0.0585  0.1203  0.4626
   65SAPC   C33 5356   2.861   4.131   6.779  0.0921  0.0430  0.0594
   65SAPC   H3X 5357   2.969   4.106   6.775  0.5689  2.0669 -1.0575
   65SAPC   H3Y 5358   2.817   4.029   6.785  1.7979 -0.6350  1.8859
   65SAPC   C34 5359   2.844   4.209   6.913  0.2479  0.2307 -0.3100
   65SAPC   H4X 5360   2.874   4.316   6.909  0.8613  0.0436 -0.8285
   65SAPC   H4Y 5361   2.897   4.156   6.996 -0.1157  0.5871  0.1578
   65SAPC   C35 5362   2.698   4.191   6.952  0.3770 -0.0787 -0.1065
   65SAPC   H5X 5363   2.668   4.084   6.956  0.7659 -0.2942 -2.1258
   65SAPC   H5Y 5364   2.629   4.233   6.876 -0.0682 -0.0097  0.3302
   65SAPC   C36 5365   2.675   4.252   7.097 -0.1520 -0.2071  0.5898
   65SAPC   H6X 5366   2.695   4.361   7.097 -2.7405  0.3818 -2.2315
   65SAPC   H6Y 5367   2.753   4.204   7.161  0.2044 -0.6095 -0.1357
   65SAPC   C37 5368   2.535   4.228   7.147  0.0912  0.4144 -0.2155
   65SAPC   H7X 5369   2.515   4.119   7.153  1.5842  0.1247 -0.0611
   65SAPC   H7Y 5370   2.461   4.280   7.083 -0.4555 -1.3911 -1.1181
   65SAPC   C38 5371   2.510   4.270   7.296  0.2241  0.1984 -0.4396
   65SAPC   H8X 5372   2.528   4.380   7.303  1.9612 -0.0311 -0.8388
   65SAPC   H8Y 5373   2.592   4.227   7.358 -1.4835 -0.2511  1.6261
   65SAPC   C39 5374   2.373   4.232   7.348  0.1806 -0.4451  0.1689
   65SAPC   H9X 5375   2.359   4.122   7.353  1.6620 -0.6064  1.5198
   65SAPC   H9Y 5376   2.294   4.265   7.278 -0.0100 -0.9563  0.1344
   65SAPC  C310 5377   2.331   4.296   7.485  0.1644 -0.4799  0.2320
   65SAPC  H10X 5378   2.223   4.274   7.497 -0.3384  2.1449  1.1311
   65SAPC  H10Y 5379   2.336   4.407   7.489  1.4631 -0.3274 -2.7013
   65SAPC  C311 5380   2.413   4.220   7.588 -0.4785 -0.2087  0.3095
   65SAPC  H11X 5381   2.523   4.218   7.569 -0.2796  2.5256  0.7760
   65SAPC  H11Y 5382   2.379   4.115   7.596 -0.9476  0.0201  1.4807
   65SAPC  C312 5383   2.408   4.288   7.724  0.3426  0.6956  0.0627
   65SAPC  H12X 5384   2.306   4.323   7.749  0.4245 -1.4397  4.3616
   65SAPC  H12Y 5385   2.477   4.374   7.710  0.5979  0.4480 -0.2116
   65SAPC  C313 5386   2.460   4.209   7.846 -0.3078 -0.0279  0.5147
   65SAPC  H13X 5387   2.560   4.174   7.814  0.6355  0.4191  2.8058
   65SAPC  H13Y 5388   2.401   4.117   7.865  1.2609 -1.3811 -0.8259
   65SAPC  C314 5389   2.479   4.293   7.975 -0.1698  0.2220  0.1251
   65SAPC  H14X 5390   2.381   4.310   8.024  1.1205  0.4575  2.7560
   65SAPC  H14Y 5391   2.536   4.386   7.951  1.1255 -0.3820  0.7507
   65SAPC  C315 5392   2.558   4.217   8.085  0.6509  0.4665 -0.6943
   65SAPC  H15X 5393   2.583   4.289   8.166  1.5201  0.2280 -0.7450
   65SAPC  H15Y 5394   2.655   4.185   8.043 -0.9145 -1.9872 -2.7250
   65SAPC  C316 5395   2.472   4.109   8.141 -0.1307 -0.1480 -0.4066
   65SAPC  H16X 5396   2.438   4.037   8.063 -1.6202 -0.7218  0.7275
   65SAPC  H16Y 5397   2.378   4.154   8.179 -1.8654 -4.6436  1.3970
   65SAPC  C317 5398   2.534   4.024   8.255  0.0051  0.4265  0.4109
   65SAPC  H17X 5399   2.576   4.085   8.337  1.0417 -0.7148  0.7598
   65SAPC  H17Y 5400   2.612   3.967   8.199 -0.5096 -1.5294  1.5826
   65SAPC  C318 5401   2.441   3.922   8.323  0.2719  0.7071  0.5003
   65SAPC  H18X 5402   2.505   3.859   8.390  1.1778  1.2498  0.1702
   65SAPC  H18Y 5403   2.396   3.852   8.251  1.8880 -0.9349  1.0014
   65SAPC  H18Z 5404   2.358   3.971   8.377 -0.7177 -2.1048  1.6898
   66SAPC     N 5405   4.462   4.053   6.263 -0.1959 -0.0257  0.4726
   66SAPC   C12 5406   4.603   4.110   6.230  0.0967 -0.6106 -0.0889
   66SAPC  H12A 5407   4.641   4.047   6.151 -0.3256 -0.8434 -0.1119
   66SAPC  H12B 5408   4.676   4.093   6.308  1.1582 -2.0985 -1.3343
   66SAPC   C13 5409   4.393   4.147   6.355  0.3717 -0.3885 -0.1121
   66SAPC  H13A 5410   4.394   4.249   6.318 -1.0841 -0.0516  0.6914
   66SAPC  H13B 5411   4.291   4.112   6.362 -0.2029  1.3584  0.8565
   66SAPC  H13C 5412   4.434   4.155   6.455  2.1709  0.6944 -0.8873
   66SAPC   C14 5413   4.376   4.058   6.138  0.4815  0.1513  0.2688
   66SAPC  H14A 5414   4.346   4.160   6.120 -0.9633 -0.7031 -2.9070
   66SAPC  H14B 5415   4.426   4.018   6.051  1.3944  2.7136 -0.4747
   66SAPC  H14C 5416   4.285   4.004   6.160  0.4932 -1.6725 -3.3168
   66SAPC   C15 5417   4.487   3.912   6.325  0.4919 -0.2284 -0.0705
   66SAPC  H15A 5418   4.395   3.897   6.380 -0.0788  2.0126 -0.3396
   66SAPC  H15B 5419   4.500   3.833   6.252 -2.0829 -1.4166  0.6444
   66SAPC  H15C 5420   4.564   3.915   6.400 -0.8997 -0.1696  1.4112
   66SAPC   C11 5421   4.601   4.264   6.200  0.4074  0.4865  0.2393
   66SAPC  H11A 5422   4.531   4.295   6.119  1.5659  1.3885 -0.4387
   66SAPC  H11B 5423   4.698   4.281   6.149  1.9429 -0.5236  2.6617
   66SAPC     P 5424   4.701   4.446   6.358  0.2947 -0.5507  0.0531
   66SAPC   O13 5425   4.771   4.385   6.474 -0.3837 -0.0758 -0.8559
   66SAPC   O14 5426   4.786   4.479   6.236 -0.2092  0.2951 -0.6402
   66SAPC   O12 5427   4.586   4.356   6.309 -0.2333  0.7128 -0.1104
   66SAPC   O11 5428   4.630   4.580   6.389  0.2543 -0.3729 -0.0541
   66SAPC    C1 5429   4.509   4.580   6.469 -0.0231 -0.1906  0.2709
   66SAPC    HA 5430   4.451   4.674   6.462  0.0859 -0.0030  1.6180
   66SAPC    HB 5431   4.441   4.499   6.433  2.0868 -1.9970  0.1502
   66SAPC    C2 5432   4.534   4.556   6.629  0.0867  0.1789  0.1923
   66SAPC    HS 5433   4.572   4.452   6.633 -1.6739 -0.4979  0.1193
   66SAPC   O21 5434   4.406   4.551   6.697  0.1681  0.0942 -0.4086
   66SAPC   C21 5435   4.329   4.442   6.682 -0.3106  0.0801 -0.0499
   66SAPC   O22 5436   4.375   4.335   6.655 -0.1846  0.3286  0.6820
   66SAPC   C22 5437   4.178   4.475   6.711  0.6393 -0.0316 -0.5710
   66SAPC   H2R 5438   4.172   4.578   6.754  1.0802 -0.2598  0.0545
   66SAPC   H2S 5439   4.110   4.452   6.627 -0.0441  0.4250 -0.1583
   66SAPC    C3 5440   4.626   4.661   6.691  0.8870  0.5040  0.3137
   66SAPC    HX 5441   4.605   4.743   6.619  2.5915  1.5924  1.0119
   66SAPC    HY 5442   4.734   4.638   6.683  0.7174 -0.2099 -0.0532
   66SAPC   O31 5443   4.597   4.700   6.832 -0.0539 -1.0422  0.3245
   66SAPC   C31 5444   4.626   4.609   6.927  0.4372 -0.2245  0.3723
   66SAPC   O32 5445   4.692   4.509   6.918  0.7138  0.8937  0.1757
   66SAPC   C32 5446   4.558   4.653   7.060  0.5616  0.1674 -0.1298
   66SAPC   H2X 5447   4.477   4.578   7.076  1.7256 -0.5738  3.0030
   66SAPC   H2Y 5448   4.522   4.757   7.052 -0.8929 -0.4255 -2.4144
   66SAPC   C23 5449   4.127   4.393   6.835 -0.5751 -0.2715 -0.1463
   66SAPC   H3R 5450   4.134   4.284   6.812  0.7890 -0.0725 -0.7765
   66SAPC   H3S 5451   4.020   4.414   6.856 -0.9234 -2.6743  0.8664
   66SAPC   C24 5452   4.210   4.414   6.969 -0.2576 -0.3956 -0.1820
   66SAPC   H4R 5453   4.203   4.519   7.004  2.1323 -0.0854 -0.4961
   66SAPC   H4S 5454   4.313   4.382   6.944  0.0441 -1.0365  1.6803
   66SAPC   C25 5455   4.150   4.320   7.074  0.2184  0.5986 -0.1035
   66SAPC   H5R 5456   4.047   4.350   7.095 -0.4022 -1.5178  0.0826
   66SAPC   C26 5457   4.207   4.225   7.149  0.5845 -0.1480 -0.1840
   66SAPC   H6R 5458   4.134   4.159   7.199 -0.5094  0.9467 -0.2819
   66SAPC   C27 5459   4.346   4.179   7.130 -1.6978 -0.0333 -0.5359
   66SAPC   H7R 5460   4.413   4.266   7.117 -2.3340  0.1151 -3.5559
   66SAPC   H7S 5461   4.357   4.128   7.032  2.5568 -1.0198  0.2526
   66SAPC   C28 5462   4.398   4.092   7.242 -0.4526 -0.2300  0.5969
   66SAPC   H8R 5463   4.397   3.982   7.236  1.6814 -0.3765  1.8515
   66SAPC   C29 5464   4.463   4.143   7.344 -0.3087  0.2029 -0.0719
   66SAPC   H9R 5465   4.477   4.069   7.424 -0.1854 -0.0912 -0.3648
   66SAPC  C210 5466   4.508   4.284   7.377 -0.4483 -0.0147 -0.3455
   66SAPC  H10R 5467   4.529   4.336   7.281  0.4722  1.2918  0.5185
   66SAPC  H10S 5468   4.608   4.287   7.425 -0.4970  1.1063 -0.2791
   66SAPC  C211 5469   4.408   4.356   7.461 -0.0892  0.3787  0.0993
   66SAPC  H11R 5470   4.331   4.404   7.398 -1.4808 -0.9207  0.7453
   66SAPC  C212 5471   4.400   4.368   7.595  0.6081  0.3869  0.2259
   66SAPC  H12R 5472   4.322   4.429   7.641 -0.1071 -0.0859 -0.3453
   66SAPC  C213 5473   4.500   4.304   7.688  0.6653  0.6961  0.2886
   66SAPC  H13R 5474   4.520   4.386   7.760 -1.1157  2.4042 -1.0800
   66SAPC  H13S 5475   4.595   4.286   7.633  0.3349 -1.0812  0.2178
   66SAPC  C214 5476   4.473   4.175   7.769  0.1286  0.6191  0.0995
   66SAPC  H14R 5477   4.371   4.136   7.753 -0.8550  0.8403  4.5021
   66SAPC  C215 5478   4.556   4.131   7.866  0.5089  0.3375  0.1324
   66SAPC  H15R 5479   4.526   4.042   7.924 -0.2729  0.2780 -0.3556
   66SAPC  C216 5480   4.683   4.193   7.911 -0.1677 -0.6550  0.6175
   66SAPC  H16R 5481   4.712   4.285   7.855 -1.4442  0.0320  1.0500
   66SAPC  H16S 5482   4.764   4.126   7.877  0.7116  0.4700  0.4291
   66SAPC  C217 5483   4.674   4.211   8.064  0.2437  0.3548  0.2559
   66SAPC  H17R 5484   4.581   4.261   8.097  1.0107  1.4615  0.7853
   66SAPC  H17S 5485   4.755   4.280   8.097  0.2487  0.0688  0.8534
   66SAPC  C218 5486   4.697   4.079   8.137  0.8152  0.1735 -0.3385
   66SAPC  H18R 5487   4.802   4.066   8.172  1.0277  1.4765 -0.4287
   66SAPC  H18S 5488   4.686   3.996   8.065 -0.5036 -0.3922  0.4695
   66SAPC  C219 5489   4.598   4.063   8.259  0.3412 -0.0643 -0.6381
   66SAPC  H19R 5490   4.625   3.970   8.313  0.0791 -0.7814 -1.7028
   66SAPC  H19S 5491   4.497   4.040   8.219  0.0022  0.8013 -0.3024
   66SAPC  C220 5492   4.583   4.188   8.349  0.2484 -0.1480  1.2415
   66SAPC  H20R 5493   4.506   4.256   8.305 -0.4725 -0.7530  1.5453
   66SAPC  H20S 5494   4.670   4.252   8.373  0.7243  0.1078 -0.9264
   66SAPC  H20T 5495   4.534   4.152   8.441  0.8878 -4.2505  0.1750
   66SAPC   C33 5496   4.671   4.648   7.170 -0.2742  0.1335 -0.0887
   66SAPC   H3X 5497   4.751   4.722   7.151 -0.5174 -0.2115 -2.7275
   66SAPC   H3Y 5498   4.710   4.544   7.179 -1.5612 -0.3738 -0.1325
   66SAPC   C34 5499   4.604   4.676   7.304 -0.4935 -0.0855 -0.3192
   66SAPC   H4X 5500   4.512   4.614   7.311  0.1942 -1.2238 -0.9813
   66SAPC   H4Y 5501   4.578   4.784   7.301 -2.4943 -0.5575 -1.2628
   66SAPC   C35 5502   4.694   4.647   7.426 -0.4382  0.0629 -0.3398
   66SAPC   H5X 5503   4.777   4.721   7.426 -1.0410  0.7675 -1.0860
   66SAPC   H5Y 5504   4.744   4.549   7.411 -1.3248 -0.1195 -2.6627
   66SAPC   C36 5505   4.629   4.660   7.567 -0.9355 -0.1478  0.8107
   66SAPC   H6X 5506   4.537   4.599   7.575 -0.8807  0.0464  4.5581
   66SAPC   H6Y 5507   4.588   4.762   7.582  0.1235  0.2616  1.0821
   66SAPC   C37 5508   4.721   4.638   7.682 -0.2546 -0.4223 -0.4114
   66SAPC   H7X 5509   4.809   4.703   7.665 -0.8501  0.2804 -0.8815
   66SAPC   H7Y 5510   4.750   4.531   7.685 -0.1014 -0.3664  0.0721
   66SAPC   C38 5511   4.658   4.677   7.818 -0.9655  0.2041  0.1598
   66SAPC   H8X 5512   4.561   4.622   7.821 -0.8619 -0.0633 -0.9407
   66SAPC   H8Y 5513   4.629   4.784   7.824 -0.8399  0.2802 -0.5627
   66SAPC   C39 5514   4.758   4.653   7.938  0.6902 -0.5205  0.3777
   66SAPC   H9X 5515   4.851   4.711   7.923  0.3424 -0.1671 -0.4404
   66SAPC   H9Y 5516   4.785   4.546   7.948 -0.0163 -0.5513  2.7625
   66SAPC  C310 5517   4.700   4.705   8.070  0.4274 -0.0354 -0.1051
   66SAPC  H10X 5518   4.660   4.808   8.062 -2.0570 -0.9739 -0.8675
   66SAPC  H10Y 5519   4.777   4.723   8.147  1.2716 -1.0275 -0.6935
   66SAPC  C311 5520   4.587   4.619   8.134  0.5018 -0.8610 -0.3390
   66SAPC  H11X 5521   4.619   4.517   8.163 -1.6927 -1.6326 -0.3989
   66SAPC  H11Y 5522   4.501   4.611   8.064  0.0676 -0.6987  0.1648
   66SAPC  C312 5523   4.526   4.663   8.270 -0.1629 -0.4472 -0.4464
   66SAPC  H12X 5524   4.605   4.688   8.344 -0.5221 -2.0313  0.5300
   66SAPC  H12Y 5525   4.479   4.572   8.313 -1.0921  0.1875 -0.1070
   66SAPC  C313 5526   4.432   4.784   8.268  0.0605  0.3820  1.0555
   66SAPC  H13X 5527   4.364   4.767   8.182 -0.2468 -2.8604  1.8063
   66SAPC  H13Y 5528   4.498   4.871   8.246  2.4538 -1.2615  1.3569
   66SAPC  C314 5529   4.360   4.811   8.397 -0.8414 -0.4812 -0.0441
   66SAPC  H14X 5530   4.317   4.717   8.439  0.5785 -0.9766  0.3372
   66SAPC  H14Y 5531   4.264   4.858   8.364 -0.0994  0.7106 -0.5675
   66SAPC  C315 5532   4.422   4.910   8.497 -0.0042 -0.8797 -0.9970
   66SAPC  H15X 5533   4.349   4.939   8.575  2.7961  0.4060  1.3425
   66SAPC  H15Y 5534   4.443   5.003   8.439 -0.8089  0.1334  0.2823
   66SAPC  C316 5535   4.547   4.866   8.568 -0.8439 -0.0385 -0.0107
   66SAPC  H16X 5536   4.630   4.853   8.495 -1.1473 -2.8418  0.0438
   66SAPC  H16Y 5537   4.538   4.769   8.622  0.1031  0.9802  2.1099
   66SAPC  C317 5538   4.602   4.964   8.677 -0.1416  0.4678 -0.8239
   66SAPC  H17X 5539   4.521   4.967   8.753  1.8019  0.9739  1.3426
   66SAPC  H17Y 5540   4.618   5.066   8.637  0.2607  0.4020 -0.8394
   66SAPC  C318 5541   4.733   4.914   8.741  0.4915 -0.7818  0.3760
   66SAPC  H18X 5542   4.708   4.813   8.779 -1.3631 -0.1988  0.8093
   66SAPC  H18Y 5543   4.767   4.980   8.822  1.8348 -0.9633 -0.0235
   66SAPC  H18Z 5544   4.822   4.910   8.675  1.3634 -0.9073  1.5380
   67SAPC     N 5545   0.752   5.874   6.287 -0.1070  0.4212 -0.3978
   67SAPC   C12 5546   0.676   5.919   6.411 -0.2498 -0.2511 -0.3427
   67SAPC  H12A 5547   0.597   5.984   6.375  0.0873  1.0140  1.0869
   67SAPC  H12B 5548   0.748   5.967   6.477 -1.5929 -0.4506  1.3446
   67SAPC   C13 5549   0.868   5.785   6.314 -0.8934  0.0518  0.1442
   67SAPC  H13A 5550   0.950   5.823   6.374  0.0680 -0.6184 -0.7078
   67SAPC  H13B 5551   0.844   5.687   6.351 -2.1083  0.3386  0.1529
   67SAPC  H13C 5552   0.926   5.760   6.227 -0.8917  0.0009  0.1597
   67SAPC   C14 5553   0.656   5.821   6.186 -0.3062 -0.7544 -1.0030
   67SAPC  H14A 5554   0.609   5.908   6.143  0.6977  1.8456  2.6991
   67SAPC  H14B 5555   0.712   5.759   6.118  0.7834 -0.7236 -0.1682
   67SAPC  H14C 5556   0.579   5.770   6.242  2.5468 -3.4662  0.8005
   67SAPC   C15 5557   0.825   5.986   6.225  0.3606 -0.2754  0.3996
   67SAPC  H15A 5558   0.880   5.962   6.135 -0.0286  1.5574 -0.3606
   67SAPC  H15B 5559   0.757   6.059   6.184 -0.3877 -1.5917 -0.8115
   67SAPC  H15C 5560   0.887   6.036   6.297 -1.2222 -0.0175  1.6492
   67SAPC   C11 5561   0.607   5.811   6.491 -0.4837 -0.1046 -0.5722
   67SAPC  H11A 5562   0.596   5.852   6.594  1.4041 -1.1803  0.1227
   67SAPC  H11B 5563   0.675   5.726   6.518 -0.5831  0.0198  0.0933
   67SAPC     P 5564   0.356   5.836   6.480  0.0526  0.0778  0.0963
   67SAPC   O13 5565   0.386   5.975   6.526 -0.1515  0.1833  0.1358
   67SAPC   O14 5566   0.242   5.805   6.391  0.6421  0.2305 -0.0304
   67SAPC   O12 5567   0.486   5.770   6.430 -0.4889 -0.5700 -0.3471
   67SAPC   O11 5568   0.320   5.756   6.613  0.3080  0.1738  0.1210
   67SAPC    C1 5569   0.392   5.660   6.683  0.2784  0.4426 -0.3072
   67SAPC    HA 5570   0.470   5.605   6.627 -0.7469 -1.1855 -0.2209
   67SAPC    HB 5571   0.447   5.710   6.766  0.7259 -1.0029  0.3049
   67SAPC    C2 5572   0.298   5.546   6.742 -0.1814  0.5077  0.8259
   67SAPC    HS 5573   0.248   5.511   6.648 -1.9154  0.0104  1.8791
   67SAPC   O21 5574   0.197   5.592   6.831  0.0752 -0.1726  0.2084
   67SAPC   C21 5575   0.093   5.511   6.856 -0.3169 -0.4077  0.1441
   67SAPC   O22 5576   0.082   5.394   6.830  0.4328  0.0209  0.4959
   67SAPC   C22 5577  -0.022   5.602   6.917  1.6082  0.0620  0.9385
   67SAPC   H2R 5578   0.021   5.704   6.931  0.4876  0.4873  1.3726
   67SAPC   H2S 5579  -0.104   5.604   6.843 -0.7743 -0.6852  3.4185
   67SAPC    C3 5580   0.373   5.421   6.805 -0.5181  0.7577  0.3014
   67SAPC    HX 5581   0.453   5.376   6.741  0.7386  2.3087  0.7014
   67SAPC    HY 5582   0.299   5.340   6.816 -0.5863  0.3036 -2.7038
   67SAPC   O31 5583   0.431   5.453   6.938  0.0233 -0.1756  0.7043
   67SAPC   C31 5584   0.562   5.478   6.941  0.0964 -0.2558  0.4295
   67SAPC   O32 5585   0.627   5.506   6.845  0.3108 -0.0890  0.4770
   67SAPC   C32 5586   0.625   5.450   7.074  0.3241  0.0492 -0.6244
   67SAPC   H2X 5587   0.592   5.348   7.102 -1.5341  0.5068 -1.0172
   67SAPC   H2Y 5588   0.594   5.523   7.152  0.1924 -1.0271  0.3556
   67SAPC   C23 5589  -0.082   5.553   7.048  0.3803  0.1944  0.0125
   67SAPC   H3R 5590   0.001   5.522   7.115  0.6013 -0.9123 -0.7421
   67SAPC   H3S 5591  -0.140   5.459   7.030  1.1989 -0.0034 -1.7841
   67SAPC   C24 5592  -0.183   5.655   7.118 -0.4269  0.0388 -0.3834
   67SAPC   H4R 5593  -0.241   5.602   7.196  1.2094  1.2931  1.7759
   67SAPC   H4S 5594  -0.253   5.691   7.039 -1.8860  0.5695  1.1100
   67SAPC   C25 5595  -0.107   5.770   7.176 -0.3124 -0.2342  0.7832
   67SAPC   H5R 5596  -0.092   5.855   7.108 -0.7369  1.3064  2.5418
   67SAPC   C26 5597  -0.054   5.792   7.295  0.2622  0.0603 -0.3675
   67SAPC   H6R 5598  -0.004   5.889   7.314 -0.3735 -0.0377  2.1326
   67SAPC   C27 5599  -0.070   5.696   7.408 -0.4523  0.1929 -0.5353
   67SAPC   H7R 5600  -0.007   5.609   7.379 -2.7257 -1.4072 -0.9605
   67SAPC   H7S 5601  -0.173   5.654   7.409  0.2706 -1.6920  1.3472
   67SAPC   C28 5602  -0.024   5.736   7.545 -0.0691  0.2885  0.0677
   67SAPC   H8R 5603   0.060   5.807   7.540  3.8023 -3.7956  0.8714
   67SAPC   C29 5604  -0.057   5.683   7.663 -0.3552  0.0840  0.2117
   67SAPC   H9R 5605  -0.008   5.731   7.749  0.9975 -1.2883  0.2612
   67SAPC  C210 5606  -0.159   5.572   7.683 -0.1357  0.4115  0.5573
   67SAPC  H10R 5607  -0.104   5.476   7.674 -1.2129 -0.2332  0.6304
   67SAPC  H10S 5608  -0.229   5.570   7.596  0.2541 -1.1420  0.2582
   67SAPC  C211 5609  -0.236   5.569   7.813  0.8725 -0.6609 -0.4538
   67SAPC  H11R 5610  -0.197   5.514   7.900  0.7906  1.4721  1.0114
   67SAPC  C212 5611  -0.353   5.631   7.831  0.5378 -0.6197 -0.0915
   67SAPC  H12R 5612  -0.400   5.643   7.930  1.4527  0.4970  0.2181
   67SAPC  C213 5613  -0.421   5.711   7.720 -0.6157 -0.1851  0.2742
   67SAPC  H13R 5614  -0.342   5.737   7.646 -0.7561 -1.2134 -0.2474
   67SAPC  H13S 5615  -0.439   5.814   7.758 -3.5176  0.2579 -2.0049
   67SAPC  C214 5616  -0.538   5.629   7.671  0.5458  0.5328 -0.4737
   67SAPC  H14R 5617  -0.611   5.594   7.745  0.0081 -1.7728 -1.9898
   67SAPC  C215 5618  -0.565   5.603   7.545 -0.2427  0.3352  0.1090
   67SAPC  H15R 5619  -0.653   5.543   7.521 -0.5105  1.0716 -0.8352
   67SAPC  C216 5620  -0.490   5.646   7.420  0.1291 -0.3031  0.0543
   67SAPC  H16R 5621  -0.432   5.569   7.365  1.0441  1.6728 -1.9038
   67SAPC  H16S 5622  -0.415   5.726   7.438  1.1353 -0.9521 -1.1060
   67SAPC  C217 5623  -0.594   5.724   7.332 -0.6210 -0.1624  0.5331
   67SAPC  H17R 5624  -0.622   5.823   7.374 -0.5527  0.6002 -1.1349
   67SAPC  H17S 5625  -0.684   5.658   7.326  0.5962 -1.8358  0.1526
   67SAPC  C218 5626  -0.536   5.747   7.189 -1.1444 -0.8044  0.3946
   67SAPC  H18R 5627  -0.510   5.656   7.132  0.6473 -0.6852  0.9845
   67SAPC  H18S 5628  -0.439   5.798   7.201 -1.2491 -0.4739 -0.1464
   67SAPC  C219 5629  -0.621   5.845   7.113  0.1780  0.8239 -0.3263
   67SAPC  H19R 5630  -0.628   5.933   7.180 -0.2854  0.2574  0.3889
   67SAPC  H19S 5631  -0.723   5.801   7.109 -0.2206  1.3797  2.3336
   67SAPC  C220 5632  -0.559   5.880   6.973 -0.5321 -0.3082  0.0556
   67SAPC  H20R 5633  -0.452   5.901   6.995 -0.5653 -1.0288  0.9920
   67SAPC  H20S 5634  -0.612   5.957   6.913  2.4152  2.2794  0.4992
   67SAPC  H20T 5635  -0.564   5.787   6.913  0.2702 -0.4548  0.2015
   67SAPC   C33 5636   0.777   5.458   7.066  0.0499  0.2173  0.5945
   67SAPC   H3X 5637   0.817   5.560   7.045  1.2470 -0.6727 -1.7737
   67SAPC   H3Y 5638   0.818   5.408   6.975  0.9308  0.2038  0.9884
   67SAPC   C34 5639   0.848   5.396   7.190 -0.1273 -0.3789  0.4566
   67SAPC   H4X 5640   0.818   5.289   7.198 -2.3532  0.3528  3.1666
   67SAPC   H4Y 5641   0.803   5.449   7.276 -1.6390 -0.6713 -0.1105
   67SAPC   C35 5642   1.004   5.412   7.184  0.1000  0.2551  0.0653
   67SAPC   H5X 5643   1.023   5.521   7.174  1.5697 -0.1540 -2.7887
   67SAPC   H5Y 5644   1.049   5.356   7.099 -1.9471 -1.0355 -0.2439
   67SAPC   C36 5645   1.089   5.357   7.311 -0.1130 -0.3501  0.2806
   67SAPC   H6X 5646   1.197   5.380   7.297  0.4313 -3.1157 -0.8536
   67SAPC   H6Y 5647   1.072   5.247   7.318 -0.7516 -0.2735  0.0099
   67SAPC   C37 5648   1.043   5.416   7.444 -0.0301 -0.7188  0.4348
   67SAPC   H7X 5649   0.936   5.396   7.463 -0.2808  1.0833  1.1123
   67SAPC   H7Y 5650   1.057   5.526   7.449 -1.0684 -0.6310  2.0413
   67SAPC   C38 5651   1.131   5.357   7.553 -0.9533  0.1876 -0.0814
   67SAPC   H8X 5652   1.235   5.331   7.525 -0.2729  1.1995  1.3830
   67SAPC   H8Y 5653   1.090   5.255   7.570 -2.1707  0.3940 -1.5341
   67SAPC   C39 5654   1.142   5.436   7.681 -0.9955  0.0288 -0.0571
   67SAPC   H9X 5655   1.036   5.447   7.714 -1.0455  3.8562 -1.0298
   67SAPC   H9Y 5656   1.171   5.543   7.673 -1.8781  0.3462  0.7390
   67SAPC  C310 5657   1.226   5.375   7.797 -0.1220 -0.4114  0.2620
   67SAPC  H10X 5658   1.332   5.403   7.778  0.5436 -2.3577  0.8786
   67SAPC  H10Y 5659   1.223   5.265   7.780  0.0868 -0.2017 -1.3430
   67SAPC  C311 5660   1.178   5.419   7.935 -0.1877  0.6811  0.6352
   67SAPC  H11X 5661   1.071   5.394   7.949  0.3649 -1.7845  0.7998
   67SAPC  H11Y 5662   1.182   5.530   7.928 -0.6996  0.7444  1.1870
   67SAPC  C312 5663   1.262   5.346   8.039  0.1341 -0.0743  0.4782
   67SAPC  H12X 5664   1.368   5.378   8.037  0.1544 -0.1500  0.3042
   67SAPC  H12Y 5665   1.259   5.236   8.027 -0.4261 -0.1834  1.4938
   67SAPC  C313 5666   1.235   5.372   8.188  0.4144  0.4237  1.4945
   67SAPC  H13X 5667   1.312   5.319   8.248 -0.3468 -1.7080  0.6814
   67SAPC  H13Y 5668   1.136   5.324   8.202 -0.5339  1.2957 -1.4888
   67SAPC  C314 5669   1.223   5.523   8.225 -0.0189 -0.5051 -0.4996
   67SAPC  H14X 5670   1.135   5.569   8.176 -0.4813  0.4394  1.1766
   67SAPC  H14Y 5671   1.317   5.579   8.205  1.0527 -2.0950 -0.1684
   67SAPC  C315 5672   1.198   5.540   8.380 -0.1827  0.2321  0.7873
   67SAPC  H15X 5673   1.292   5.499   8.424  1.3906 -1.1734 -3.3778
   67SAPC  H15Y 5674   1.118   5.467   8.404 -0.2833 -0.1217 -0.5627
   67SAPC  C316 5675   1.153   5.683   8.419 -0.4408  0.0794  0.4599
   67SAPC  H16X 5676   1.067   5.707   8.353  1.3235  3.0909 -0.9687
   67SAPC  H16Y 5677   1.244   5.743   8.397 -0.3891 -0.5304 -1.1692
   67SAPC  C317 5678   1.118   5.711   8.564  0.7502 -0.8921  0.0576
   67SAPC  H17X 5679   1.217   5.715   8.615  1.4766  2.3233 -1.3826
   67SAPC  H17Y 5680   1.049   5.629   8.596 -1.5185 -0.5364 -3.4564
   67SAPC  C318 5681   1.050   5.845   8.565 -0.1559 -0.0095 -0.3071
   67SAPC  H18X 5682   0.989   5.858   8.473 -2.1672  0.6601  1.0614
   67SAPC  H18Y 5683   1.131   5.921   8.559  0.5720 -0.7836 -0.6197
   67SAPC  H18Z 5684   0.998   5.867   8.660  2.1806  0.4126  0.9538
   68SAPC     N 5685   1.073   2.910   6.146  0.5206 -0.5234 -0.1772
   68SAPC   C12 5686   0.950   2.871   6.235  0.4940  0.0458  0.0023
   68SAPC  H12A 5687   0.955   2.940   6.318  3.1013 -0.9975  0.8347
   68SAPC  H12B 5688   0.967   2.772   6.274  1.1676 -0.6734 -1.9998
   68SAPC   C13 5689   1.068   2.841   6.013 -0.5951  0.5674  0.9391
   68SAPC  H13A 5690   1.062   2.734   6.023  0.4709  0.4753  0.6885
   68SAPC  H13B 5691   0.976   2.867   5.963 -1.7029  0.1174  2.6235
   68SAPC  H13C 5692   1.153   2.851   5.948 -0.9541 -1.0241  0.1833
   68SAPC   C14 5693   1.075   3.059   6.137 -0.8570  0.0218  0.1623
   68SAPC  H14A 5694   0.985   3.089   6.085  0.2259  0.8487 -1.2881
   68SAPC  H14B 5695   1.073   3.110   6.232 -1.1380  1.5529 -0.6325
   68SAPC  H14C 5696   1.151   3.088   6.067 -2.1247 -1.4012 -1.9452
   68SAPC   C15 5697   1.198   2.862   6.218 -0.3043  0.3852 -0.4092
   68SAPC  H15A 5698   1.288   2.914   6.191  1.4519  0.1258  4.0056
   68SAPC  H15B 5699   1.190   2.888   6.323  2.5761 -0.8823  0.2274
   68SAPC  H15C 5700   1.213   2.755   6.212 -1.0435  0.1934  0.7362
   68SAPC   C11 5701   0.812   2.898   6.167  0.9721  0.1207  0.6224
   68SAPC  H11A 5702   0.721   2.866   6.221 -1.0260  1.5741 -1.6775
   68SAPC  H11B 5703   0.795   2.844   6.071  2.4843  0.7357 -0.0233
   68SAPC     P 5704   0.659   3.103   6.108 -0.2594  0.0001  0.3506
   68SAPC   O13 5705   0.677   3.251   6.084  0.0249 -0.0975  0.0853
   68SAPC   O14 5706   0.610   3.028   5.990 -0.3715  0.0882  0.0118
   68SAPC   O12 5707   0.795   3.040   6.152  0.1481  0.1301  0.1543
   68SAPC   O11 5708   0.548   3.086   6.216  0.0333  0.2723  0.3763
   68SAPC    C1 5709   0.571   3.069   6.351  0.2504  0.2287  0.2931
   68SAPC    HA 5710   0.668   3.021   6.378  0.3043  0.2295  0.1035
   68SAPC    HB 5711   0.576   3.172   6.394 -1.7312  0.2199  0.6446
   68SAPC    C2 5712   0.455   2.989   6.417  0.6232  0.2917  0.0252
   68SAPC    HS 5713   0.421   2.915   6.342  2.0931 -0.3938  0.0115
   68SAPC   O21 5714   0.342   3.069   6.458  0.1071  0.4409  0.8485
   68SAPC   C21 5715   0.257   3.123   6.368  0.8260  0.6482  0.5747
   68SAPC   O22 5716   0.250   3.096   6.249  0.1180  0.0954 -0.6471
   68SAPC   C22 5717   0.162   3.221   6.434 -0.3598 -0.4884  0.3883
   68SAPC   H2R 5718   0.077   3.226   6.363  0.4935  0.4557 -0.5964
   68SAPC   H2S 5719   0.121   3.190   6.533 -1.0796  0.6603  0.4724
   68SAPC    C3 5720   0.505   2.913   6.547 -0.1918 -0.3597 -0.0690
   68SAPC    HX 5721   0.596   2.853   6.527  0.6326  0.3802  1.3131
   68SAPC    HY 5722   0.431   2.838   6.583 -0.2140 -0.1422  0.3477
   68SAPC   O31 5723   0.544   3.007   6.652  0.0276  0.0772  0.1971
   68SAPC   C31 5724   0.450   3.041   6.741  0.2519 -1.4104 -0.1231
   68SAPC   O32 5725   0.344   2.988   6.750 -0.1041 -0.5656 -0.6385
   68SAPC   C32 5726   0.513   3.152   6.819  0.4391 -0.5411  0.0174
   68SAPC   H2X 5727   0.531   3.239   6.753 -1.4020  0.3739  0.6685
   68SAPC   H2Y 5728   0.615   3.128   6.857  0.5515  0.5090  0.4129
   68SAPC   C23 5729   0.215   3.367   6.438  0.0850  0.3947 -0.2057
   68SAPC   H3R 5730   0.136   3.444   6.449 -0.0587  0.1550  0.5136
   68SAPC   H3S 5731   0.271   3.403   6.350 -0.7685  2.3197 -0.0027
   68SAPC   C24 5732   0.318   3.389   6.554 -0.1089 -0.4316 -0.5723
   68SAPC   H4R 5733   0.405   3.324   6.536  0.2300 -0.6103  1.4372
   68SAPC   H4S 5734   0.267   3.353   6.647  1.3937 -0.2681  0.3482
   68SAPC   C25 5735   0.371   3.532   6.572  0.8665 -0.6351 -0.4320
   68SAPC   H5R 5736   0.414   3.580   6.483 -0.6903 -0.8822 -1.3489
   68SAPC   C26 5737   0.366   3.618   6.677  0.6425 -0.1116  0.0175
   68SAPC   H6R 5738   0.377   3.727   6.667 -0.3601  0.0959  0.9906
   68SAPC   C27 5739   0.309   3.580   6.809  0.1414  0.4097 -0.6024
   68SAPC   H7R 5740   0.341   3.477   6.835  0.7014  0.1429 -2.2373
   68SAPC   H7S 5741   0.199   3.577   6.795  0.3978  0.4752 -3.0943
   68SAPC   C28 5742   0.354   3.674   6.920  0.6472  0.1095 -0.1019
   68SAPC   H8R 5743   0.458   3.702   6.899  1.4495 -0.7949  2.2225
   68SAPC   C29 5744   0.287   3.708   7.033  0.1265  0.2557  0.0731
   68SAPC   H9R 5745   0.347   3.767   7.105 -0.5585  2.0356 -0.7518
   68SAPC  C210 5746   0.157   3.654   7.089 -0.2181  0.1829  0.2025
   68SAPC  H10R 5747   0.188   3.578   7.164  1.9087  1.4885  0.7198
   68SAPC  H10S 5748   0.103   3.594   7.012  0.3202  1.2232 -1.0323
   68SAPC  C211 5749   0.070   3.759   7.151 -0.3968 -0.3194 -0.1906
   68SAPC  H11R 5750   0.010   3.810   7.074  0.1460 -2.4086 -2.1101
   68SAPC  C212 5751   0.074   3.793   7.281 -0.3966  0.5001  0.5683
   68SAPC  H12R 5752   0.005   3.869   7.319 -0.7562  0.2110  0.4963
   68SAPC  C213 5753   0.148   3.737   7.392  0.6219 -0.7720 -0.0021
   68SAPC  H13R 5754   0.189   3.641   7.353 -2.7011 -1.2175 -2.8869
   68SAPC  H13S 5755   0.083   3.705   7.476 -1.2585 -2.8656 -2.0882
   68SAPC  C214 5756   0.269   3.821   7.421 -0.4876  0.5645 -0.5998
   68SAPC  H14R 5757   0.310   3.876   7.334  0.9058 -3.3516 -2.7038
   68SAPC  C215 5758   0.325   3.827   7.546 -0.1714 -0.6105  0.7280
   68SAPC  H15R 5759   0.419   3.882   7.564 -1.2276  1.1004  1.2323
   68SAPC  C216 5760   0.273   3.766   7.668  0.6026 -0.0878 -0.6329
   68SAPC  H16R 5761   0.319   3.669   7.699  0.4639  0.0794  0.1218
   68SAPC  H16S 5762   0.165   3.739   7.671  1.2455 -2.9726  1.3132
   68SAPC  C217 5763   0.301   3.857   7.793  0.9329 -0.0018  0.1635
   68SAPC  H17R 5764   0.237   3.945   7.767  1.6265  0.0965 -1.3386
   68SAPC  H17S 5765   0.402   3.899   7.812  0.6725  0.3247  0.8484
   68SAPC  C218 5766   0.264   3.798   7.929  0.9111  0.4800  0.3290
   68SAPC  H18R 5767   0.317   3.700   7.934  0.8422  0.3666 -0.9054
   68SAPC  H18S 5768   0.157   3.766   7.932  0.9623  0.0519 -1.2783
   68SAPC  C219 5769   0.300   3.883   8.051  0.7614  0.4088 -0.1732
   68SAPC  H19R 5770   0.231   3.970   8.048  1.1840  0.8232  1.2023
   68SAPC  H19S 5771   0.402   3.927   8.046  1.1357 -0.5723 -2.9313
   68SAPC  C220 5772   0.299   3.805   8.182 -0.1714  0.5803  0.5894
   68SAPC  H20R 5773   0.331   3.867   8.269  3.1035 -0.6577  0.4058
   68SAPC  H20S 5774   0.374   3.724   8.190  0.6891  1.3189  0.1936
   68SAPC  H20T 5775   0.196   3.766   8.194 -1.2315  1.0700 -4.6271
   68SAPC   C33 5776   0.422   3.198   6.938  0.7342 -0.2983 -0.3567
   68SAPC   H3X 5777   0.394   3.104   6.990 -1.3837 -1.0867 -2.7637
   68SAPC   H3Y 5778   0.336   3.253   6.896  1.2959  0.5673 -0.4032
   68SAPC   C34 5779   0.488   3.299   7.037 -0.2731  0.8794  0.1764
   68SAPC   H4X 5780   0.537   3.387   6.990 -0.1736  0.4962 -0.4421
   68SAPC   H4Y 5781   0.559   3.229   7.085 -0.2419  0.5263 -0.3762
   68SAPC   C35 5782   0.394   3.352   7.145 -0.0923 -0.1090  0.5661
   68SAPC   H5X 5783   0.292   3.341   7.102  0.7275 -1.2273 -1.2361
   68SAPC   H5Y 5784   0.409   3.461   7.155 -1.3799  0.2873 -1.2357
   68SAPC   C36 5785   0.424   3.297   7.282  0.2765  0.2204 -0.6185
   68SAPC   H6X 5786   0.534   3.308   7.298  0.4342 -2.0602  0.1321
   68SAPC   H6Y 5787   0.414   3.187   7.278  1.4685  0.1337 -2.7042
   68SAPC   C37 5788   0.346   3.356   7.401  1.0505  0.0352 -0.9914
   68SAPC   H7X 5789   0.236   3.364   7.387  1.3011  0.5627 -2.8627
   68SAPC   H7Y 5790   0.384   3.458   7.423  2.0703 -0.3481 -0.9187
   68SAPC   C38 5791   0.368   3.277   7.531 -0.4565  0.0875 -0.2072
   68SAPC   H8X 5792   0.474   3.245   7.542 -0.2960 -0.3728 -2.5642
   68SAPC   H8Y 5793   0.310   3.182   7.532 -0.8048  0.3037  0.3759
   68SAPC   C39 5794   0.319   3.352   7.659  0.5298 -0.0791  0.1258
   68SAPC   H9X 5795   0.208   3.348   7.650  0.6568  0.2451 -2.0891
   68SAPC   H9Y 5796   0.336   3.461   7.647 -0.5621  0.2017  0.9564
   68SAPC  C310 5797   0.377   3.296   7.792 -0.3525  0.3373  0.4550
   68SAPC  H10X 5798   0.486   3.315   7.802 -0.4716 -0.1758  4.7685
   68SAPC  H10Y 5799   0.357   3.187   7.797  1.5137 -0.0046  1.1987
   68SAPC  C311 5800   0.319   3.362   7.914 -0.3132 -0.1740 -0.2039
   68SAPC  H11X 5801   0.216   3.322   7.928 -1.7265  3.1304 -0.2450
   68SAPC  H11Y 5802   0.316   3.473   7.910  3.0934  0.0081 -0.2472
   68SAPC  C312 5803   0.394   3.334   8.046  0.4889 -0.5923 -0.1998
   68SAPC  H12X 5804   0.481   3.402   8.050 -0.0653  0.2102 -1.1023
   68SAPC  H12Y 5805   0.435   3.231   8.040  0.8191 -0.4967  0.3723
   68SAPC  C313 5806   0.304   3.365   8.167  0.1898  0.1080  0.0181
   68SAPC  H13X 5807   0.217   3.297   8.153  0.6441 -0.5593  0.4338
   68SAPC  H13Y 5808   0.258   3.466   8.159 -0.0919  0.2707  2.8447
   68SAPC  C314 5809   0.378   3.340   8.301 -0.3598  0.4675 -0.1030
   68SAPC  H14X 5810   0.470   3.402   8.305  0.5183 -0.7040 -1.3017
   68SAPC  H14Y 5811   0.408   3.233   8.302 -1.0860  0.2567  0.3059
   68SAPC  C315 5812   0.289   3.381   8.425 -0.4456 -0.3944  0.3029
   68SAPC  H15X 5813   0.186   3.350   8.399 -1.0013  1.2212  0.5101
   68SAPC  H15Y 5814   0.293   3.491   8.441 -0.5263 -0.4195  0.5023
   68SAPC  C316 5815   0.341   3.321   8.558 -0.4576  0.0439 -0.3022
   68SAPC  H16X 5816   0.451   3.324   8.549 -0.4881  1.9546 -0.3938
   68SAPC  H16Y 5817   0.307   3.215   8.553  0.9231 -0.3689 -2.4236
   68SAPC  C317 5818   0.287   3.396   8.684  0.3140  0.3923 -0.5272
   68SAPC  H17X 5819   0.178   3.374   8.694  0.5450 -0.0129  1.4707
   68SAPC  H17Y 5820   0.294   3.507   8.684  1.2071  0.3760  1.6845
   68SAPC  C318 5821   0.362   3.361   8.810  0.0259  0.1631  0.2619
   68SAPC  H18X 5822   0.471   3.381   8.800 -0.0940  0.1772 -1.3285
   68SAPC  H18Y 5823   0.336   3.255   8.831 -1.3802  0.1967 -1.0869
   68SAPC  H18Z 5824   0.315   3.420   8.892  0.8593 -2.5144  2.8228
   69SLPC     N 5825   3.186   5.843  11.014 -0.3877 -0.4217 -0.8943
   69SLPC   C13 5826   3.212   5.777  11.146  0.0253  0.4003 -0.3207
   69SLPC  H13A 5827   3.318   5.785  11.163 -0.2007  0.7253  1.0410
   69SLPC  H13B 5828   3.169   5.829  11.230 -1.9604 -1.0846 -0.3528
   69SLPC  H13C 5829   3.186   5.673  11.157  1.7875  0.1958  3.1471
   69SLPC   C14 5830   3.039   5.851  10.990 -0.7892  0.2467  0.2239
   69SLPC  H14A 5831   3.000   5.751  10.978  1.2611 -0.3218 -2.8862
   69SLPC  H14B 5832   2.987   5.903  11.069  0.4450  2.7330 -0.4855
   69SLPC  H14C 5833   3.026   5.902  10.896 -2.0139 -2.7146 -1.3399
   69SLPC   C15 5834   3.238   5.758  10.901  0.4969 -0.1899 -0.1454
   69SLPC  H15A 5835   3.201   5.657  10.902 -1.7957  0.5764 -1.2199
   69SLPC  H15B 5836   3.207   5.811  10.812  1.3710 -0.5844 -0.6975
   69SLPC  H15C 5837   3.346   5.756  10.891  0.3431 -0.6931 -2.2035
   69SLPC   C12 5838   3.247   5.981  11.010  0.0367  0.8866  0.1529
   69SLPC  H12A 5839   3.247   6.027  10.913  0.7373  1.8213  0.5781
   69SLPC  H12B 5840   3.352   5.962  11.030  0.8206  0.3487 -3.6922
   69SLPC   C11 5841   3.197   6.084  11.107  0.6592  0.7779 -0.1138
   69SLPC  H11A 5842   3.259   6.177  11.108 -0.3438  1.4963 -1.2667
   69SLPC  H11B 5843   3.210   6.041  11.208  1.2222  2.1592  0.4267
   69SLPC     P 5844   3.031   6.219  10.964 -0.2173  0.3326  0.0995
   69SLPC   O13 5845   2.910   6.183  10.891  0.5537 -0.9080  0.3706
   69SLPC   O14 5846   3.057   6.359  11.003 -0.6023  0.1069 -0.0991
   69SLPC   O12 5847   3.058   6.120  11.089  0.2956 -0.3658 -0.0201
   69SLPC   O11 5848   3.139   6.169  10.861  0.2721 -0.4713 -0.2741
   69SLPC    C1 5849   3.250   6.253  10.822  0.4073 -0.3150 -0.2913
   69SLPC    HA 5850   3.275   6.339  10.889 -1.3677  0.1561 -0.1585
   69SLPC    HB 5851   3.345   6.197  10.811 -0.1125 -1.8756  2.3674
   69SLPC    C2 5852   3.211   6.326  10.687  0.3351 -0.0481  0.4450
   69SLPC    HS 5853   3.118   6.382  10.714 -0.7042 -0.7911 -1.4059
   69SLPC   O21 5854   3.185   6.221  10.588 -0.5146  0.1563 -0.5522
   69SLPC   C21 5855   3.086   6.250  10.509 -0.1140 -1.0486  0.3818
   69SLPC   O22 5856   3.015   6.351  10.517  0.2591 -0.0636  0.3332
   69SLPC   C22 5857   3.076   6.144  10.407 -0.1427  0.1140 -0.4364
   69SLPC   H2R 5858   3.174   6.103  10.375 -0.7178 -1.1664 -0.6176
   69SLPC   H2S 5859   3.014   6.069  10.459 -1.2178  2.8057  2.4637
   69SLPC    C3 5860   3.325   6.414  10.642  0.1510 -0.6926  0.5829
   69SLPC    HX 5861   3.419   6.362  10.616  0.9081  0.9591 -0.1853
   69SLPC    HY 5862   3.355   6.474  10.730 -2.2508 -1.2399  1.8727
   69SLPC   O31 5863   3.298   6.499  10.530  0.4359 -0.4044  1.0054
   69SLPC   C31 5864   3.260   6.623  10.551  0.3234 -0.1382 -0.8104
   69SLPC   O32 5865   3.230   6.671  10.661  0.8825  0.4570  0.3237
   69SLPC   C32 5866   3.246   6.710  10.429  0.0656  1.2836 -0.0921
   69SLPC   H2X 5867   3.342   6.759  10.401 -0.4476  1.1660 -2.2210
   69SLPC   H2Y 5868   3.163   6.778  10.457 -2.8892 -2.3883  0.9087
   69SLPC   C23 5869   3.003   6.173  10.269  0.4721 -0.0506 -0.3860
   69SLPC   H3R 5870   3.033   6.084  10.210  0.6930 -0.9112  0.9694
   69SLPC   H3S 5871   3.028   6.274  10.229  1.1901  0.7162  1.8609
   69SLPC   C24 5872   2.848   6.176  10.281  0.2610  0.3841 -0.2474
   69SLPC   H4R 5873   2.827   6.243  10.367 -0.3375 -1.3976  1.0789
   69SLPC   H4S 5874   2.824   6.070  10.306  0.9092 -0.1886 -1.8684
   69SLPC   C25 5875   2.783   6.229  10.153 -0.1576 -0.3475 -0.1231
   69SLPC   H5R 5876   2.819   6.331  10.131  0.5155 -0.8102 -1.2744
   69SLPC   H5S 5877   2.677   6.240  10.183  0.5646  2.3179  1.7476
   69SLPC   C26 5878   2.775   6.131  10.035  0.1137  0.6156 -0.1219
   69SLPC   H6R 5879   2.760   6.028  10.074 -1.2823  0.6470 -0.5181
   69SLPC   H6S 5880   2.879   6.150  10.000  0.3004  0.6634  0.4330
   69SLPC   C27 5881   2.681   6.165   9.922 -0.4477  0.5317 -0.8462
   69SLPC   H7R 5882   2.704   6.269   9.890 -0.5814  0.4568 -1.1804
   69SLPC   H7S 5883   2.580   6.177   9.967 -0.2524  1.0725 -0.5472
   69SLPC   C28 5884   2.678   6.066   9.802 -0.0369 -0.1927  0.0827
   69SLPC   H8R 5885   2.782   6.060   9.763 -0.4931 -0.0755 -1.1752
   69SLPC   H8S 5886   2.624   6.109   9.715 -1.4826 -2.7660 -0.3860
   69SLPC   C29 5887   2.638   5.922   9.843 -0.3745  0.3231  0.0917
   69SLPC   H9R 5888   2.705   5.880   9.920 -0.2813  1.0612  0.4261
   69SLPC  C210 5889   2.520   5.867   9.809  0.1129  0.3447 -0.0967
   69SLPC  H10R 5890   2.507   5.763   9.842 -0.1740  0.4644  0.1727
   69SLPC  C211 5891   2.417   5.916   9.711  0.0041  0.0223 -0.2637
   69SLPC  H11R 5892   2.431   6.026   9.707  2.6200 -0.2211  0.0981
   69SLPC  H11S 5893   2.316   5.907   9.756  1.0546  0.4033  2.3149
   69SLPC  C212 5894   2.422   5.844   9.575  0.4831 -0.3877  0.3612
   69SLPC  H12R 5895   2.520   5.847   9.525  1.3620  0.2415  2.0395
   69SLPC  C213 5896   2.322   5.786   9.514  1.1178 -0.0126 -0.4167
   69SLPC  H13R 5897   2.335   5.741   9.414 -0.8640 -0.2664 -0.5994
   69SLPC  C214 5898   2.176   5.777   9.547 -0.2703  0.9685  0.7835
   69SLPC  H14R 5899   2.152   5.793   9.655 -0.4618  2.0007  0.5906
   69SLPC  H14S 5900   2.139   5.674   9.524  1.3089  0.4642  0.3946
   69SLPC  C215 5901   2.090   5.878   9.474  0.1871 -0.1193  0.4681
   69SLPC  H15R 5902   2.114   5.984   9.499 -1.6047 -0.1052  2.4380
   69SLPC  H15S 5903   1.986   5.863   9.509  1.0858 -2.1269  2.5565
   69SLPC  C216 5904   2.085   5.862   9.316 -0.0101  0.8432 -0.8082
   69SLPC  H16R 5905   2.063   5.754   9.306  2.4198 -0.1995  2.9120
   69SLPC  H16S 5906   2.186   5.877   9.272  0.1433 -0.9989 -1.1552
   69SLPC  C217 5907   1.974   5.954   9.252  0.1234  0.1723  0.9036
   69SLPC  H17R 5908   1.983   6.058   9.289 -0.0107  0.1167  1.0905
   69SLPC  H17S 5909   1.875   5.916   9.283 -0.0498  0.3800  0.6094
   69SLPC  C218 5910   1.990   5.953   9.101  0.7596  0.5871  0.3203
   69SLPC  H18R 5911   2.091   5.990   9.072  1.8424 -1.0302  1.7966
   69SLPC  H18S 5912   1.920   6.019   9.046  2.0138  0.6814 -1.2352
   69SLPC  H18T 5913   1.987   5.845   9.076  1.1765  0.1547  1.9825
   69SLPC   C33 5914   3.213   6.620  10.307  0.3844 -0.1323  0.3969
   69SLPC   H3X 5915   3.128   6.550  10.326  1.1671 -0.8274  1.4143
   69SLPC   H3Y 5916   3.300   6.554  10.285  0.2477 -0.2434  0.1828
   69SLPC   C34 5917   3.167   6.688  10.183 -0.2397  0.2720  0.0883
   69SLPC   H4X 5918   3.246   6.748  10.133 -1.2828  1.0197 -0.6882
   69SLPC   H4Y 5919   3.092   6.767  10.203  0.7040  1.6834 -1.7162
   69SLPC   C35 5920   3.117   6.588  10.076 -0.1023 -0.4046 -0.0778
   69SLPC   H5X 5921   3.031   6.530  10.117 -1.1598  0.3851 -1.1054
   69SLPC   H5Y 5922   3.200   6.523  10.040  0.4409  0.4315 -0.3678
   69SLPC   C36 5923   3.077   6.658   9.946  0.0609 -0.6195  0.2251
   69SLPC   H6X 5924   3.165   6.720   9.919  0.0240 -0.6097  0.1282
   69SLPC   H6Y 5925   2.997   6.733   9.964  2.0294  1.9339 -0.9714
   69SLPC   C37 5926   3.056   6.554   9.832  0.2397  0.1954  0.3708
   69SLPC   H7X 5927   3.159   6.541   9.791  0.5045  1.6930  0.5074
   69SLPC   H7Y 5928   2.995   6.598   9.750  0.2218 -0.3261  0.0946
   69SLPC   C38 5929   2.997   6.414   9.872 -0.1798 -0.3757 -0.0552
   69SLPC   H8X 5930   2.909   6.452   9.929  0.7519  2.3656 -0.2788
   69SLPC   H8Y 5931   3.060   6.353   9.940  2.6486  2.9237  0.6105
   69SLPC   C39 5932   2.953   6.330   9.755  0.2355  0.4144  0.4984
   69SLPC   H9X 5933   2.912   6.232   9.788  0.3699  0.2251  0.1015
   69SLPC   H9Y 5934   3.053   6.303   9.714 -0.9840 -0.7138 -1.9348
   69SLPC  C310 5935   2.874   6.370   9.630  0.5420 -0.1769  0.2990
   69SLPC  H10X 5936   2.891   6.477   9.604 -1.3378  0.3516  1.0974
   69SLPC  H10Y 5937   2.766   6.357   9.649 -0.0443  2.2054 -0.9233
   69SLPC  C311 5938   2.914   6.288   9.505  0.6886  0.0981 -0.3009
   69SLPC  H11X 5939   2.917   6.181   9.531  2.8004 -0.2032 -1.6075
   69SLPC  H11Y 5940   3.018   6.305   9.470  0.8198 -0.7019 -0.3191
   69SLPC  C312 5941   2.823   6.300   9.386  0.1499 -0.0470  0.3220
   69SLPC  H12X 5942   2.835   6.406   9.355  3.4935  0.1387  1.7997
   69SLPC  H12Y 5943   2.721   6.273   9.419 -0.0811 -2.7027 -2.1816
   69SLPC  C313 5944   2.861   6.209   9.263  0.6604 -0.3874  0.1064
   69SLPC  H13X 5945   2.809   6.265   9.182  1.4870  0.0137 -0.1503
   69SLPC  H13Y 5946   2.818   6.107   9.275 -2.3780  0.8443  0.8116
   69SLPC  C314 5947   3.008   6.190   9.222 -0.3709 -0.2117 -0.4445
   69SLPC  H14X 5948   3.072   6.137   9.296  0.4608  1.5132  0.1346
   69SLPC  H14Y 5949   3.051   6.291   9.205 -1.2086  0.2733  0.2296
   69SLPC  C315 5950   3.012   6.118   9.089  0.3641  0.4839  0.3547
   69SLPC  H15X 5951   2.928   6.153   9.026 -1.3901 -4.0461 -0.2496
   69SLPC  H15Y 5952   2.988   6.011   9.109  4.0454 -1.3509 -3.4421
   69SLPC  C316 5953   3.148   6.109   9.025 -0.1799 -0.1918  0.2214
   69SLPC  H16X 5954   3.165   6.013   8.971 -1.4940 -0.1500 -0.3050
   69SLPC  H16Y 5955   3.228   6.120   9.101  2.0057  1.5861 -2.1641
   69SLPC  C317 5956   3.168   6.224   8.928  0.4619 -1.5545  0.1669
   69SLPC  H17X 5957   3.162   6.319   8.986  0.6060 -1.0898 -0.5580
   69SLPC  H17Y 5958   3.089   6.226   8.850 -0.0198  1.8358  0.5574
   69SLPC  C318 5959   3.312   6.241   8.876  0.2336  0.2316 -0.1227
   69SLPC  H18X 5960   3.322   6.344   8.836 -2.3148 -0.0490 -1.6440
   69SLPC  H18Y 5961   3.325   6.175   8.787 -2.0127  1.7606 -1.6804
   69SLPC  H18Z 5962   3.386   6.211   8.954  0.9025  0.9803 -0.4552
   70SLPC     N 5963   5.470   5.035  11.191 -0.4123  0.1886 -0.4233
   70SLPC   C13 5964   5.345   5.007  11.279 -0.4319 -0.0438 -0.0483
   70SLPC  H13A 5965   5.368   5.036  11.380  1.0226  0.7277 -0.5622
   70SLPC  H13B 5966   5.263   5.066  11.241 -2.1509 -0.7740  2.2981
   70SLPC  H13C 5967   5.319   4.902  11.270  1.8652 -0.5318 -2.4264
   70SLPC   C14 5968   5.575   4.936  11.232 -0.0163  0.4153 -0.0440
   70SLPC  H14A 5969   5.648   4.896  11.163 -0.2542  0.3962 -0.2851
   70SLPC  H14B 5970   5.628   4.982  11.315 -0.7437  0.5568  0.3458
   70SLPC  H14C 5971   5.539   4.845  11.278 -1.9576  1.1360 -0.0569
   70SLPC   C15 5972   5.521   5.171  11.213 -0.1872 -0.2846 -0.4542
   70SLPC  H15A 5973   5.583   5.172  11.302 -0.1654 -3.9458 -0.2946
   70SLPC  H15B 5974   5.579   5.194  11.125 -3.0120  0.0988 -2.3464
   70SLPC  H15C 5975   5.437   5.238  11.216  1.1221  1.4079  0.4984
   70SLPC   C12 5976   5.447   5.024  11.037  0.2707  0.2917 -0.9433
   70SLPC  H12A 5977   5.403   4.927  11.022 -0.1069 -0.1054  2.1287
   70SLPC  H12B 5978   5.548   5.023  10.997  0.5661  0.1048 -0.1998
   70SLPC   C11 5979   5.367   5.138  10.969 -0.1055  0.2693 -0.8632
   70SLPC  H11A 5980   5.374   5.137  10.859 -1.4857 -1.8519 -0.9963
   70SLPC  H11B 5981   5.415   5.232  11.005  0.2315  0.7515 -2.5099
   70SLPC     P 5982   5.128   5.029  10.943  0.2641  0.3877  0.4106
   70SLPC   O13 5983   5.138   4.903  11.015  0.6316  0.1325  0.2449
   70SLPC   O14 5984   4.994   5.089  10.932  0.1119  0.3475  0.2269
   70SLPC   O12 5985   5.226   5.139  11.012 -0.3750 -0.2585  0.3673
   70SLPC   O11 5986   5.192   5.002  10.796 -0.0480 -0.3995  0.2460
   70SLPC    C1 5987   5.155   5.094  10.692 -0.1516 -0.1390 -0.1096
   70SLPC    HA 5988   5.051   5.076  10.659 -0.2679  0.9804 -0.4079
   70SLPC    HB 5989   5.161   5.201  10.723 -1.5452 -1.1173  4.2368
   70SLPC    C2 5990   5.257   5.062  10.565  0.7335  0.4301 -0.4095
   70SLPC    HS 5991   5.211   5.093  10.468  1.4329  2.0890 -0.2558
   70SLPC   O21 5992   5.279   4.916  10.563 -0.3640  0.2794 -0.2886
   70SLPC   C21 5993   5.171   4.849  10.531 -0.0720  0.0157  0.1780
   70SLPC   O22 5994   5.060   4.889  10.504  0.1096  0.0201  0.6119
   70SLPC   C22 5995   5.205   4.702  10.568 -0.3201 -0.2779  0.5467
   70SLPC   H2R 5996   5.241   4.694  10.673  4.6128 -0.2399 -0.9036
   70SLPC   H2S 5997   5.116   4.636  10.558  0.8002 -1.7295 -0.2331
   70SLPC    C3 5998   5.383   5.147  10.580 -0.7161 -0.1417  0.5587
   70SLPC    HX 5999   5.443   5.106  10.664  2.7496  1.5026 -0.9029
   70SLPC    HY 6000   5.357   5.252  10.608  1.6946  0.8244 -0.5018
   70SLPC   O31 6001   5.460   5.152  10.456 -0.3019  0.2181  0.1646
   70SLPC   C31 6002   5.420   5.232  10.366  0.4919  0.3672  0.2465
   70SLPC   O32 6003   5.327   5.315  10.373  0.3912  0.5114  0.3211
   70SLPC   C32 6004   5.505   5.214  10.239 -0.7246 -0.2549  0.5675
   70SLPC   H2X 6005   5.592   5.153  10.272 -0.4890 -1.2515 -1.6521
   70SLPC   H2Y 6006   5.523   5.315  10.196 -1.6477  0.5126  1.9168
   70SLPC   C23 6007   5.328   4.648  10.482  0.3210  0.5566  0.6280
   70SLPC   H3R 6008   5.343   4.542  10.513  0.0437  0.3467  0.0598
   70SLPC   H3S 6009   5.423   4.704  10.493  0.4472  0.4965 -0.0978
   70SLPC   C24 6010   5.297   4.656  10.324  0.1997  0.4312 -0.0585
   70SLPC   H4R 6011   5.386   4.614  10.274 -0.2333 -1.2391  0.5227
   70SLPC   H4S 6012   5.295   4.767  10.313 -1.7340  0.3944 -0.4168
   70SLPC   C25 6013   5.170   4.589  10.283 -0.4003 -0.2278  0.3807
   70SLPC   H5R 6014   5.087   4.650  10.323 -0.2679 -1.1747  2.1999
   70SLPC   H5S 6015   5.179   4.489  10.332  0.8630 -0.5415 -0.4536
   70SLPC   C26 6016   5.170   4.554  10.133  0.8914  0.2598  0.2022
   70SLPC   H6R 6017   5.087   4.484  10.110  0.7146  0.3162  0.6531
   70SLPC   H6S 6018   5.262   4.495  10.114  1.7592  1.6574 -0.0894
   70SLPC   C27 6019   5.160   4.673  10.039 -0.0194 -0.6969 -0.3839
   70SLPC   H7R 6020   5.192   4.759  10.102  0.3242 -1.7913  1.0078
   70SLPC   H7S 6021   5.054   4.678  10.008 -0.5667 -0.4285  1.4294
   70SLPC   C28 6022   5.251   4.679   9.920 -0.0196 -0.1318 -0.0481
   70SLPC   H8R 6023   5.358   4.675   9.949  0.7421 -2.1932 -2.7570
   70SLPC   H8S 6024   5.237   4.783   9.884  0.6190  1.4694  3.8741
   70SLPC   C29 6025   5.225   4.568   9.823  0.1155  0.8273 -0.6525
   70SLPC   H9R 6026   5.223   4.471   9.875  1.2132  1.8141  1.3431
   70SLPC  C210 6027   5.201   4.584   9.692  0.1655  0.8924  0.3248
   70SLPC  H10R 6028   5.185   4.494   9.630 -1.7225  0.7825  0.8932
   70SLPC  C211 6029   5.173   4.716   9.625  0.2443  0.2638 -0.0308
   70SLPC  H11R 6030   5.226   4.803   9.668 -0.3046  0.0362  1.1417
   70SLPC  H11S 6031   5.063   4.731   9.622  0.1813 -0.2801 -1.2887
   70SLPC  C212 6032   5.231   4.703   9.487  0.0235  0.2115 -0.4217
   70SLPC  H12R 6033   5.334   4.665   9.481 -0.0462 -0.3489  1.2729
   70SLPC  C213 6034   5.175   4.735   9.368 -0.3543  0.1617 -0.1389
   70SLPC  H13R 6035   5.234   4.714   9.277  0.8011 -0.1308  0.6595
   70SLPC  C214 6036   5.030   4.790   9.358 -0.0993 -0.0742  0.3091
   70SLPC  H14R 6037   5.027   4.898   9.385 -0.2631 -0.2078  0.8538
   70SLPC  H14S 6038   4.958   4.724   9.411  1.1548 -1.4584  0.3454
   70SLPC  C215 6039   4.995   4.783   9.206  0.4991 -0.0848  0.4028
   70SLPC  H15R 6040   5.052   4.854   9.141 -3.2685  3.7317  0.7790
   70SLPC  H15S 6041   4.892   4.825   9.201 -0.9941 -3.4298  0.4843
   70SLPC  C216 6042   4.975   4.647   9.130  0.2964 -0.5276 -0.0612
   70SLPC  H16R 6043   4.900   4.591   9.191  1.8704 -0.6953  1.8156
   70SLPC  H16S 6044   5.067   4.587   9.117 -0.7634 -2.0117 -1.0585
   70SLPC  C217 6045   4.908   4.673   8.995 -0.0649 -0.4480 -0.0179
   70SLPC  H17R 6046   4.992   4.715   8.935  1.1846 -0.9674  1.3146
   70SLPC  H17S 6047   4.824   4.745   9.004 -0.5246 -1.1803  1.9800
   70SLPC  C218 6048   4.857   4.544   8.927 -0.2966 -0.3920  0.0943
   70SLPC  H18R 6049   4.838   4.561   8.819 -1.6054  1.6931  0.6057
   70SLPC  H18S 6050   4.773   4.502   8.987  0.5939 -0.8918  1.0318
   70SLPC  H18T 6051   4.941   4.474   8.947  1.1209  1.6451  1.7405
   70SLPC   C33 6052   5.423   5.131  10.135  0.1573  0.8926  0.7655
   70SLPC   H3X 6053   5.326   5.185  10.121  0.1158  1.5147  2.9694
   70SLPC   H3Y 6054   5.398   5.027  10.163 -0.4665  0.2706 -1.8797
   70SLPC   C34 6055   5.501   5.132  10.007  0.5799  0.0147 -0.5115
   70SLPC   H4X 6056   5.579   5.054  10.020  0.9021  0.2012 -1.2327
   70SLPC   H4Y 6057   5.535   5.235   9.983 -1.3910  0.8245 -0.0426
   70SLPC   C35 6058   5.417   5.096   9.889  0.2471 -0.4545 -0.1259
   70SLPC   H5X 6059   5.336   5.169   9.872  1.5592  0.5735 -2.5859
   70SLPC   H5Y 6060   5.365   4.998   9.901  1.4805 -1.1091  0.0448
   70SLPC   C36 6061   5.495   5.090   9.756 -0.2599  0.0953  0.7218
   70SLPC   H6X 6062   5.565   5.004   9.752  0.5847  0.8132 -0.2523
   70SLPC   H6Y 6063   5.548   5.187   9.753 -1.9346  1.0313 -0.5191
   70SLPC   C37 6064   5.399   5.078   9.636  0.0552 -0.5233 -0.1492
   70SLPC   H7X 6065   5.329   5.164   9.630  0.0946 -0.3409  1.5645
   70SLPC   H7Y 6066   5.340   4.985   9.655 -1.9948  0.5254 -1.1124
   70SLPC   C38 6067   5.477   5.066   9.502  0.5745 -0.1494 -0.2038
   70SLPC   H8X 6068   5.545   4.979   9.513 -0.8060 -1.3612 -0.9731
   70SLPC   H8Y 6069   5.548   5.151   9.490  0.3453 -0.1407 -1.7025
   70SLPC   C39 6070   5.399   5.052   9.364  0.1370  0.6541  0.2691
   70SLPC   H9X 6071   5.330   5.138   9.351 -2.1485 -1.2606 -1.4051
   70SLPC   H9Y 6072   5.333   4.962   9.370  1.8621 -0.6113  0.9036
   70SLPC  C310 6073   5.487   5.049   9.240  0.3597  0.3105  0.0560
   70SLPC  H10X 6074   5.546   4.954   9.238  1.0658  0.7559 -0.5578
   70SLPC  H10Y 6075   5.562   5.131   9.239  1.4140 -0.5083 -3.5574
   70SLPC  C311 6076   5.398   5.052   9.115 -0.1221 -0.3024  0.8250
   70SLPC  H11X 6077   5.317   5.127   9.119  1.6883  1.8699 -0.5297
   70SLPC  H11Y 6078   5.334   4.962   9.107 -1.8758  0.9569  0.1992
   70SLPC  C312 6079   5.480   5.067   8.980 -0.4041  1.0411  0.6597
   70SLPC  H12X 6080   5.556   4.987   8.970 -1.7376 -0.1412 -0.3799
   70SLPC  H12Y 6081   5.543   5.157   9.000  2.3351 -0.6025 -0.1140
   70SLPC  C313 6082   5.391   5.075   8.853  0.3396 -0.9772 -0.4799
   70SLPC  H13X 6083   5.321   5.161   8.865  0.2399 -1.2557  1.2622
   70SLPC  H13Y 6084   5.333   4.980   8.846 -1.7064  0.2119 -0.6616
   70SLPC  C314 6085   5.478   5.092   8.726  0.2750  0.2654 -0.2648
   70SLPC  H14X 6086   5.437   5.030   8.643  1.2728 -2.4440  1.1545
   70SLPC  H14Y 6087   5.582   5.061   8.749 -0.2976 -0.8453  0.9883
   70SLPC  C315 6088   5.498   5.239   8.671  0.0477 -0.3190 -0.2382
   70SLPC  H15X 6089   5.576   5.240   8.593 -0.2985 -1.7317 -0.6211
   70SLPC  H15Y 6090   5.538   5.304   8.752  0.7646 -2.2158  0.9926
   70SLPC  C316 6091   5.368   5.306   8.609  0.4148  0.4240 -0.2155
   70SLPC  H16X 6092   5.305   5.339   8.694  0.7725 -0.0202  0.2236
   70SLPC  H16Y 6093   5.300   5.234   8.559 -1.3782  1.4778  0.5796
   70SLPC  C317 6094   5.396   5.408   8.499  0.3449 -0.0068  0.4467
   70SLPC  H17X 6095   5.458   5.374   8.413  2.1004  2.2582  0.7308
   70SLPC  H17Y 6096   5.451   5.500   8.527  0.9541  0.3099 -1.6589
   70SLPC  C318 6097   5.263   5.449   8.430 -1.3250  0.3466 -0.1346
   70SLPC  H18X 6098   5.224   5.536   8.487  0.6875  0.6253  0.9052
   70SLPC  H18Y 6099   5.191   5.367   8.409  1.0070 -1.0377 -3.5344
   70SLPC  H18Z 6100   5.304   5.482   8.333  2.3401 -0.6046  0.9033
   71SLPC     N 6101   4.610   2.701  10.900 -0.4341  0.4766 -0.9101
   71SLPC   C13 6102   4.587   2.602  11.009 -0.3098  0.2128 -0.2317
   71SLPC  H13A 6103   4.570   2.662  11.097 -1.2645 -1.2161  0.6052
   71SLPC  H13B 6104   4.498   2.545  10.988 -0.9506  1.6308 -1.5797
   71SLPC  H13C 6105   4.673   2.540  11.028  0.1586  0.7723 -0.4792
   71SLPC   C14 6106   4.716   2.796  10.964 -0.0135 -0.2616 -0.3981
   71SLPC  H14A 6107   4.798   2.736  11.000  0.2821 -0.7027 -1.7657
   71SLPC  H14B 6108   4.749   2.867  10.890  0.2137  0.3327  0.2591
   71SLPC  H14C 6109   4.671   2.858  11.041 -0.9674  0.7490 -1.7185
   71SLPC   C15 6110   4.489   2.770  10.868 -0.8943 -0.0316 -0.1009
   71SLPC  H15A 6111   4.450   2.825  10.953  0.4816  0.6981  0.0853
   71SLPC  H15B 6112   4.517   2.849  10.801  0.7157 -1.0295 -0.6441
   71SLPC  H15C 6113   4.412   2.704  10.831 -1.3196  0.1189  0.4905
   71SLPC   C12 6114   4.662   2.643  10.775 -0.7683 -0.5270 -0.0193
   71SLPC  H12A 6115   4.587   2.577  10.732 -1.3872  0.3277 -0.2796
   71SLPC  H12B 6116   4.750   2.587  10.803 -1.6844 -2.2289 -0.4062
   71SLPC   C11 6117   4.693   2.741  10.656 -0.8122  0.2077  0.5839
   71SLPC  H11A 6118   4.613   2.817  10.643  1.9324  3.4208  1.1053
   71SLPC  H11B 6119   4.700   2.684  10.561  0.3920 -2.1863  1.9986
   71SLPC     P 6120   4.817   2.972  10.638 -0.1072  0.3788 -0.1856
   71SLPC   O13 6121   4.782   3.043  10.761  0.4861  0.2114 -0.2050
   71SLPC   O14 6122   4.949   3.002  10.585 -0.8555  0.7686  0.4825
   71SLPC   O12 6123   4.814   2.814  10.681 -0.7591  0.1905  0.8763
   71SLPC   O11 6124   4.695   2.993  10.536 -0.4677  0.4580  0.1365
   71SLPC    C1 6125   4.633   3.121  10.523 -0.1447 -0.0604  0.0082
   71SLPC    HA 6126   4.522   3.118  10.524 -0.2389  1.8666  1.6959
   71SLPC    HB 6127   4.639   3.184  10.614 -2.0568 -0.7675  0.6705
   71SLPC    C2 6128   4.664   3.188  10.386 -0.0815  0.5280 -0.3686
   71SLPC    HS 6129   4.626   3.292  10.389 -0.6353  0.3143  0.2726
   71SLPC   O21 6130   4.602   3.105  10.288 -0.4255 -0.3374 -0.3481
   71SLPC   C21 6131   4.577   3.168  10.170  0.1491 -0.6696  0.0013
   71SLPC   O22 6132   4.583   3.289  10.149  0.6087  0.2122 -0.2351
   71SLPC   C22 6133   4.511   3.064  10.081  0.6476 -0.0950  0.4083
   71SLPC   H2R 6134   4.568   2.968  10.086 -1.8026 -1.7001 -0.7958
   71SLPC   H2S 6135   4.408   3.044  10.116 -0.0016  0.1211 -1.3163
   71SLPC    C3 6136   4.814   3.182  10.359 -0.7042  0.2657 -0.0099
   71SLPC    HX 6137   4.839   3.074  10.362 -0.5278  0.2928 -0.4361
   71SLPC    HY 6138   4.873   3.230  10.440  0.0576  0.6224 -0.7596
   71SLPC   O31 6139   4.835   3.235  10.228 -0.3407 -0.0795 -0.4724
   71SLPC   C31 6140   4.881   3.365  10.227  0.4436 -0.3669 -0.7840
   71SLPC   O32 6141   4.891   3.432  10.328  0.4723 -0.4409 -0.0532
   71SLPC   C32 6142   4.930   3.413  10.089 -0.7567 -0.1648 -0.3720
   71SLPC   H2X 6143   5.039   3.428  10.104 -1.0923  1.2420  0.8807
   71SLPC   H2Y 6144   4.883   3.510  10.062  1.1201  0.2564 -2.4120
   71SLPC   C23 6145   4.510   3.111   9.929  0.8293  0.3354  0.4454
   71SLPC   H3R 6146   4.613   3.111   9.889  0.6023  1.2738 -0.1903
   71SLPC   H3S 6147   4.472   3.215   9.916 -1.3228 -0.6484 -2.0743
   71SLPC   C24 6148   4.430   3.029   9.829 -0.1565 -0.0927  0.8830
   71SLPC   H4R 6149   4.329   3.031   9.875 -0.8150  2.4706 -0.5084
   71SLPC   H4S 6150   4.469   2.925   9.822  3.0079  0.7658  3.3966
   71SLPC   C25 6151   4.434   3.088   9.687  0.1171  0.6394 -0.0013
   71SLPC   H5R 6152   4.466   3.005   9.621  3.3551  1.9405 -0.2957
   71SLPC   H5S 6153   4.513   3.165   9.668  0.2289  0.6897  0.6428
   71SLPC   C26 6154   4.287   3.125   9.640 -0.7824  0.2357  0.2458
   71SLPC   H6R 6155   4.297   3.171   9.539  1.2169  1.8579  1.0962
   71SLPC   H6S 6156   4.244   3.202   9.708  0.6952  2.1527 -0.8874
   71SLPC   C27 6157   4.199   3.006   9.629 -0.6767  0.1166 -0.0846
   71SLPC   H7R 6158   4.183   2.959   9.728  2.0057  1.6429  1.1970
   71SLPC   H7S 6159   4.264   2.930   9.580 -0.1143 -0.5768  1.6815
   71SLPC   C28 6160   4.072   3.048   9.556  0.0552  0.5158 -0.6826
   71SLPC   H8R 6161   4.091   3.102   9.461  1.8602 -1.3926 -1.4875
   71SLPC   H8S 6162   4.019   3.123   9.618 -1.0213 -0.1455 -0.7749
   71SLPC   C29 6163   3.995   2.917   9.536  0.0279  0.0143  0.2878
   71SLPC   H9R 6164   3.978   2.852   9.622  0.6669  0.4611  0.7631
   71SLPC  C210 6165   3.963   2.862   9.419  0.5029 -0.1110  0.8280
   71SLPC  H10R 6166   3.888   2.782   9.418 -0.5866  0.8750  1.2370
   71SLPC  C211 6167   3.991   2.916   9.280  0.2159 -0.4849  0.7268
   71SLPC  H11R 6168   4.081   2.866   9.237 -1.2622 -2.9415  0.2556
   71SLPC  H11S 6169   4.017   3.023   9.288 -2.5665  0.2539  0.6444
   71SLPC  C212 6170   3.865   2.914   9.192  0.0013 -0.0762  0.5066
   71SLPC  H12R 6171   3.775   2.954   9.240  0.4331 -0.7401  1.9363
   71SLPC  C213 6172   3.857   2.867   9.065 -0.8371  0.3049  0.8571
   71SLPC  H13R 6173   3.756   2.871   9.022 -0.4202  1.2237 -0.0626
   71SLPC  C214 6174   3.973   2.795   8.985  0.0273 -0.3967 -0.2161
   71SLPC  H14R 6175   3.956   2.686   8.972  1.8216 -0.5906 -1.3081
   71SLPC  H14S 6176   4.070   2.801   9.038 -0.8347 -1.0307  1.4849
   71SLPC  C215 6177   3.988   2.840   8.841 -0.2318  0.3272 -0.4607
   71SLPC  H15R 6178   3.884   2.846   8.802 -0.6286  1.6757  0.7109
   71SLPC  H15S 6179   4.051   2.765   8.790 -0.8345 -0.9955  0.6751
   71SLPC  C216 6180   4.067   2.968   8.829 -0.9828 -0.2217  0.2716
   71SLPC  H16R 6181   4.163   2.961   8.885 -0.3297 -0.4254 -0.8338
   71SLPC  H16S 6182   4.010   3.048   8.881  0.0280 -0.9688  2.6652
   71SLPC  C217 6183   4.105   3.009   8.685  0.4696 -0.1512  0.2779
   71SLPC  H17R 6184   4.148   2.916   8.641  0.1953 -0.4386  0.6006
   71SLPC  H17S 6185   4.188   3.082   8.680  1.8702 -1.7730 -2.4758
   71SLPC  C218 6186   3.984   3.061   8.614 -0.1019 -0.0894  0.8860
   71SLPC  H18R 6187   3.967   3.154   8.673  1.5768  0.8932 -0.0976
   71SLPC  H18S 6188   3.896   2.994   8.622 -0.3600  0.3152  1.5320
   71SLPC  H18T 6189   4.013   3.065   8.507  1.1606  0.0656  1.2095
   71SLPC   C33 6190   4.912   3.317   9.971 -0.1956 -0.4641  0.4347
   71SLPC   H3X 6191   4.803   3.317   9.949 -0.0071  2.0774 -0.8684
   71SLPC   H3Y 6192   4.939   3.212   9.994  0.6455 -0.6263 -1.2278
   71SLPC   C34 6193   4.975   3.367   9.833  0.7990  0.1489  0.3323
   71SLPC   H4X 6194   5.083   3.370   9.858  0.4067  0.8980  2.0743
   71SLPC   H4Y 6195   4.953   3.475   9.820 -2.9288 -0.4542  0.4168
   71SLPC   C35 6196   4.947   3.276   9.706 -0.5701 -1.0180  0.4365
   71SLPC   H5X 6197   4.842   3.278   9.669 -0.2971 -2.1524 -0.4864
   71SLPC   H5Y 6198   4.965   3.167   9.717 -3.7253 -2.2031 -3.6454
   71SLPC   C36 6199   5.028   3.324   9.583 -0.0381  0.3834  0.2190
   71SLPC   H6X 6200   5.136   3.329   9.607  0.0530  1.2468 -0.3083
   71SLPC   H6Y 6201   5.008   3.429   9.550 -0.7187  0.4413  0.7920
   71SLPC   C37 6202   5.008   3.243   9.450 -0.1608 -0.0222  0.0603
   71SLPC   H7X 6203   4.899   3.226   9.434 -0.2014  0.1303  0.1642
   71SLPC   H7Y 6204   5.057   3.146   9.470  0.6969  0.2813 -0.5131
   71SLPC   C38 6205   5.061   3.301   9.322  1.1316 -0.4217 -0.1371
   71SLPC   H8X 6206   5.171   3.295   9.337  1.0045 -0.3813  0.8601
   71SLPC   H8Y 6207   5.033   3.408   9.313 -1.6436 -1.1932 -2.1334
   71SLPC   C39 6208   5.031   3.224   9.195 -0.2979 -0.1555  0.5072
   71SLPC   H9X 6209   4.922   3.206   9.185 -0.0114 -1.5775 -0.3091
   71SLPC   H9Y 6210   5.081   3.127   9.212  1.5173  0.1285 -2.4396
   71SLPC  C310 6211   5.094   3.295   9.070  0.0437 -0.2351  0.6135
   71SLPC  H10X 6212   5.205   3.303   9.074  0.4257 -3.0590 -1.3110
   71SLPC  H10Y 6213   5.051   3.398   9.067 -0.1943 -0.1385  3.9313
   71SLPC  C311 6214   5.078   3.203   8.940 -0.0015 -0.2871 -0.4330
   71SLPC  H11X 6215   4.969   3.184   8.939 -0.2510  0.8903 -3.0123
   71SLPC  H11Y 6216   5.134   3.110   8.961  0.1008  0.3064  2.2957
   71SLPC  C312 6217   5.139   3.248   8.808 -0.8206  0.1887  0.0446
   71SLPC  H12X 6218   5.250   3.247   8.809 -0.7526  1.2791 -1.8356
   71SLPC  H12Y 6219   5.096   3.348   8.788 -3.0452 -0.4723  1.2196
   71SLPC  C313 6220   5.096   3.160   8.693 -0.8684  1.1763  0.2624
   71SLPC  H13X 6221   4.985   3.173   8.689 -1.0350  0.4968  1.8578
   71SLPC  H13Y 6222   5.122   3.056   8.723 -0.4444  1.6046  1.4382
   71SLPC  C314 6223   5.161   3.185   8.556  0.1821  0.9852  0.1713
   71SLPC  H14X 6224   5.272   3.182   8.556  0.1894 -1.9195  0.0293
   71SLPC  H14Y 6225   5.124   3.289   8.543 -0.5717  0.7390  0.3304
   71SLPC  C315 6226   5.112   3.086   8.446  0.5778 -0.1020 -0.3551
   71SLPC  H15X 6227   5.131   2.981   8.476  0.7559 -0.0464 -0.2746
   71SLPC  H15Y 6228   5.174   3.098   8.355  0.4847 -1.8309 -0.6821
   71SLPC  C316 6229   4.965   3.111   8.396  0.8513 -0.1524 -0.3358
   71SLPC  H16X 6230   4.958   3.216   8.362 -0.8083  0.3213  1.3029
   71SLPC  H16Y 6231   4.894   3.090   8.479  0.8440  1.3944  0.0671
   71SLPC  C317 6232   4.928   3.017   8.283  0.1184  0.6095  0.0990
   71SLPC  H17X 6233   4.942   2.911   8.310  2.8817  0.1081 -2.7374
   71SLPC  H17Y 6234   4.994   3.032   8.195 -0.6812  2.6482 -0.2135
   71SLPC  C318 6235   4.777   3.025   8.241  0.5538  0.1049  0.4456
   71SLPC  H18X 6236   4.710   3.019   8.329  0.7708 -1.9375  0.5090
   71SLPC  H18Y 6237   4.751   2.939   8.175 -1.9978  0.3077  1.1083
   71SLPC  H18Z 6238   4.767   3.118   8.180  3.1264 -0.6793 -1.3847
   72SLPC     N 6239   6.010   2.072  11.074 -0.4816 -0.0292 -0.2222
   72SLPC   C13 6240   5.903   1.971  11.086 -0.8971 -0.5928 -0.9134
   72SLPC  H13A 6241   5.818   1.983  11.020 -1.6771  2.1581  0.4571
   72SLPC  H13B 6242   5.956   1.879  11.066 -0.5989 -0.4724 -0.6746
   72SLPC  H13C 6243   5.862   1.964  11.186 -2.2114 -0.9765 -1.4579
   72SLPC   C14 6244   6.120   2.037  11.159 -0.6340 -0.4051 -0.4132
   72SLPC  H14A 6245   6.157   1.936  11.158  1.7961  0.3939 -2.9152
   72SLPC  H14B 6246   6.204   2.094  11.123 -1.9954  0.9203 -1.6529
   72SLPC  H14C 6247   6.116   2.077  11.260  0.0233 -0.8375 -0.2114
   72SLPC   C15 6248   5.959   2.208  11.111  0.1503 -0.3252 -0.0078
   72SLPC  H15A 6249   5.856   2.221  11.080  0.0161 -0.1585  0.5013
   72SLPC  H15B 6250   5.941   2.212  11.217  0.9596 -2.6008  0.2505
   72SLPC  H15C 6251   6.022   2.287  11.072  1.1827 -1.9612 -1.8436
   72SLPC   C12 6252   6.049   2.072  10.930 -0.7377  0.5789 -0.4540
   72SLPC  H12A 6253   5.970   2.106  10.865 -0.4122  0.3126 -1.0002
   72SLPC  H12B 6254   6.071   1.971  10.897 -0.0027  0.4129  0.5010
   72SLPC   C11 6255   6.178   2.146  10.887  0.3030  0.5975  0.7488
   72SLPC  H11A 6256   6.183   2.247  10.933  0.5943  0.8955  0.0668
   72SLPC  H11B 6257   6.174   2.150  10.776 -3.5213 -1.1362  0.6861
   72SLPC     P 6258   6.354   1.955  10.865  0.5353  0.2256 -0.0861
   72SLPC   O13 6259   6.496   1.944  10.910 -0.2890 -0.2775 -0.3713
   72SLPC   O14 6260   6.266   1.836  10.887  0.0614 -0.2775 -0.1687
   72SLPC   O12 6261   6.294   2.078  10.942 -0.5913 -0.3759  0.1481
   72SLPC   O11 6262   6.351   1.992  10.710 -0.1811 -0.0142  0.2191
   72SLPC    C1 6263   6.452   2.090  10.671 -0.4081  0.2598  1.0960
   72SLPC    HA 6264   6.412   2.185  10.713 -2.4499 -0.2009  0.3020
   72SLPC    HB 6265   6.555   2.074  10.708  1.5506 -0.7002 -3.9846
   72SLPC    C2 6266   6.481   2.092  10.519 -0.6727  0.0674  0.2399
   72SLPC    HS 6267   6.515   2.195  10.492 -1.7821 -0.2486 -2.6785
   72SLPC   O21 6268   6.359   2.071  10.442  0.4868  0.7340  0.1039
   72SLPC   C21 6269   6.272   2.172  10.450  0.2505 -0.1069  0.7995
   72SLPC   O22 6270   6.285   2.275  10.516 -0.5151  0.1578 -0.1615
   72SLPC   C22 6271   6.148   2.144  10.359  0.2939 -0.2037  0.0571
   72SLPC   H2R 6272   6.157   2.051  10.299 -0.1541  0.9588 -1.9120
   72SLPC   H2S 6273   6.060   2.124  10.425 -1.1268 -3.2592 -2.4743
   72SLPC    C3 6274   6.586   1.982  10.470  0.1712  0.2557 -0.4551
   72SLPC    HX 6275   6.549   1.883  10.502 -0.6493  1.3139  2.0565
   72SLPC    HY 6276   6.680   2.007  10.525  0.6787  2.1266 -2.0302
   72SLPC   O31 6277   6.606   2.005  10.333 -0.0070  0.2995 -0.1629
   72SLPC   C31 6278   6.540   1.925  10.246 -0.6760  0.4953  0.2879
   72SLPC   O32 6279   6.459   1.835  10.271  0.1939 -0.1574  0.2055
   72SLPC   C32 6280   6.582   1.951  10.100 -0.0665  0.2581  0.2282
   72SLPC   H2X 6281   6.651   1.868  10.072  1.3501  1.8654 -1.2803
   72SLPC   H2Y 6282   6.646   2.041  10.092  0.0587  0.0439 -1.3964
   72SLPC   C23 6283   6.132   2.265  10.268  0.1312 -0.0996 -0.3261
   72SLPC   H3R 6284   6.091   2.351  10.326 -2.5904 -0.3185 -1.7932
   72SLPC   H3S 6285   6.050   2.234  10.200 -1.7182  1.3359  1.1240
   72SLPC   C24 6286   6.258   2.295  10.196 -0.2836 -0.7452  0.1816
   72SLPC   H4R 6287   6.267   2.209  10.126  0.7815 -0.2182 -0.3602
   72SLPC   H4S 6288   6.348   2.312  10.258 -0.7485 -0.7840  0.8699
   72SLPC   C25 6289   6.242   2.404  10.095  0.3684  0.5927 -0.5891
   72SLPC   H5R 6290   6.337   2.442  10.053  0.0984  1.8334 -0.1225
   72SLPC   H5S 6291   6.196   2.495  10.140  1.4127  0.4986  0.7365
   72SLPC   C26 6292   6.149   2.367   9.975  0.4365  0.8411  0.1385
   72SLPC   H6R 6293   6.045   2.369  10.013  0.0132 -1.6018 -0.7150
   72SLPC   H6S 6294   6.158   2.262   9.939 -1.6337  0.8057 -0.3848
   72SLPC   C27 6295   6.144   2.460   9.847 -0.6165  0.3930  0.3358
   72SLPC   H7R 6296   6.250   2.472   9.816 -0.6546 -1.7189 -0.8232
   72SLPC   H7S 6297   6.107   2.557   9.886  1.4096  1.7475 -0.9396
   72SLPC   C28 6298   6.050   2.400   9.739  0.1424  0.3610 -0.1692
   72SLPC   H8R 6299   5.954   2.389   9.794  0.0358  0.2906 -0.3675
   72SLPC   H8S 6300   6.091   2.300   9.714  0.5218  0.4944 -0.0876
   72SLPC   C29 6301   6.032   2.493   9.622  0.7274  0.1487  0.0512
   72SLPC   H9R 6302   5.979   2.589   9.636 -1.3137 -0.7089 -1.2195
   72SLPC  C210 6303   6.069   2.463   9.498 -0.4316  0.5711  0.6883
   72SLPC  H10R 6304   6.066   2.539   9.418  2.0575  0.1935  0.1676
   72SLPC  C211 6305   6.135   2.339   9.448 -0.6892 -0.3765  0.3029
   72SLPC  H11R 6306   6.057   2.279   9.397 -1.8885  1.7952 -0.5438
   72SLPC  H11S 6307   6.171   2.277   9.533 -2.1607 -0.6995  0.7238
   72SLPC  C212 6308   6.250   2.380   9.357  0.1864  0.1298  0.3215
   72SLPC  H12R 6309   6.346   2.371   9.409  0.8189  3.3265 -0.0317
   72SLPC  C213 6310   6.251   2.397   9.226 -0.6915 -0.2640  0.6327
   72SLPC  H13R 6311   6.348   2.425   9.182 -0.8518 -0.2741  0.2690
   72SLPC  C214 6312   6.145   2.386   9.124  0.3021  0.5515  0.1360
   72SLPC  H14R 6313   6.045   2.396   9.172  0.0396 -0.0447 -0.2811
   72SLPC  H14S 6314   6.148   2.284   9.081  2.3015  0.9624 -0.8243
   72SLPC  C215 6315   6.157   2.499   9.018  0.0657 -0.1995 -0.4842
   72SLPC  H15R 6316   6.246   2.494   8.952 -0.7170 -0.1148 -1.5767
   72SLPC  H15S 6317   6.158   2.603   9.058 -0.2845 -0.9091  1.4769
   72SLPC  C216 6318   6.046   2.503   8.920 -0.4867  0.4360  0.3702
   72SLPC  H16R 6319   6.007   2.606   8.902  1.0068  0.9059 -0.3773
   72SLPC  H16S 6320   5.961   2.442   8.956 -0.3667  0.5807  0.9166
   72SLPC  C217 6321   6.078   2.463   8.771 -0.9799 -0.6932 -0.2411
   72SLPC  H17R 6322   6.162   2.528   8.739 -0.3718 -1.3287  0.0216
   72SLPC  H17S 6323   5.988   2.505   8.721 -1.5404 -0.0045  1.2970
   72SLPC  C218 6324   6.109   2.315   8.752  0.6750 -1.0503  0.0164
   72SLPC  H18R 6325   6.203   2.292   8.806  1.0700  3.1753  1.5479
   72SLPC  H18S 6326   6.116   2.284   8.646  1.6393  0.2580 -0.3312
   72SLPC  H18T 6327   6.024   2.262   8.801  0.2966  0.2552  0.8639
   72SLPC   C33 6328   6.466   1.973  10.001  0.6447 -0.4830  0.0464
   72SLPC   H3X 6329   6.375   2.022  10.042  0.6093 -1.2417  0.9163
   72SLPC   H3Y 6330   6.420   1.875   9.974  0.2531 -0.5555  0.9348
   72SLPC   C34 6331   6.514   2.033   9.864 -0.1828  0.3893 -0.1223
   72SLPC   H4X 6332   6.561   2.130   9.890 -0.1988  0.4125 -0.1806
   72SLPC   H4Y 6333   6.423   2.068   9.809 -0.8036 -1.0291 -0.0340
   72SLPC   C35 6334   6.617   1.947   9.783 -0.0470  0.2814 -0.5831
   72SLPC   H5X 6335   6.684   1.904   9.860  2.2643 -0.8863 -3.0923
   72SLPC   H5Y 6336   6.685   2.007   9.719 -1.1371  1.3127 -0.8182
   72SLPC   C36 6337   6.549   1.835   9.703  0.7052 -0.3979  0.0484
   72SLPC   H6X 6338   6.479   1.774   9.764  1.8391 -0.7142  1.0775
   72SLPC   H6Y 6339   6.635   1.772   9.672  1.2228  1.1476 -1.8951
   72SLPC   C37 6340   6.488   1.889   9.576 -0.2784 -0.1843  0.2581
   72SLPC   H7X 6341   6.391   1.935   9.606  0.3920  1.6688 -0.3033
   72SLPC   H7Y 6342   6.479   1.806   9.503 -2.3964  0.5199 -0.3697
   72SLPC   C38 6343   6.564   2.008   9.505  0.3732  0.2151 -0.3745
   72SLPC   H8X 6344   6.664   1.967   9.481 -0.1380 -0.9318 -0.6185
   72SLPC   H8Y 6345   6.560   2.092   9.578  0.1720  0.6782 -0.9098
   72SLPC   C39 6346   6.494   2.060   9.379 -0.1492  0.1584  0.0849
   72SLPC   H9X 6347   6.555   2.131   9.320  2.2432 -1.3613  0.6217
   72SLPC   H9Y 6348   6.406   2.124   9.401  1.3343  1.7264  1.7071
   72SLPC  C310 6349   6.454   1.951   9.275  0.2119  0.0987  0.4550
   72SLPC  H10X 6350   6.371   1.888   9.313  3.0889 -2.5828  2.7990
   72SLPC  H10Y 6351   6.530   1.871   9.265 -1.0541 -1.4783  2.5791
   72SLPC  C311 6352   6.438   2.004   9.132 -0.7797  0.2928  0.3456
   72SLPC  H11X 6353   6.383   2.100   9.138  0.7542  1.1978  0.6248
   72SLPC  H11Y 6354   6.386   1.936   9.062  2.8495 -1.1395 -1.2221
   72SLPC  C312 6355   6.575   2.035   9.063  0.5822 -0.1934 -0.0374
   72SLPC  H12X 6356   6.640   1.946   9.069  2.7299  1.3218  0.5635
   72SLPC  H12Y 6357   6.629   2.119   9.112 -0.5774  1.4946 -1.5299
   72SLPC  C313 6358   6.558   2.070   8.914  0.0394 -0.6972  1.0001
   72SLPC  H13X 6359   6.487   2.155   8.906  0.3007 -0.4926  0.8529
   72SLPC  H13Y 6360   6.506   1.986   8.864 -2.3052  0.0528  2.0292
   72SLPC  C314 6361   6.686   2.105   8.838 -0.0376  0.3934 -0.1749
   72SLPC  H14X 6362   6.768   2.031   8.842 -1.2321 -0.9339  1.4594
   72SLPC  H14Y 6363   6.717   2.198   8.890  2.0566 -1.5433  2.2812
   72SLPC  C315 6364   6.650   2.132   8.691 -0.7018  0.2798 -0.2604
   72SLPC  H15X 6365   6.564   2.202   8.687  0.2007  1.3880 -1.2741
   72SLPC  H15Y 6366   6.628   2.038   8.637 -0.2035 -0.6497  1.1031
   72SLPC  C316 6367   6.770   2.189   8.605 -0.0848 -0.1494  0.0567
   72SLPC  H16X 6368   6.853   2.115   8.604  0.4408  0.4171  0.5392
   72SLPC  H16Y 6369   6.801   2.279   8.662  1.0035  0.8201 -1.9747
   72SLPC  C317 6370   6.728   2.225   8.457 -0.1022  0.1457 -0.0801
   72SLPC  H17X 6371   6.812   2.272   8.402  0.2813  0.4864  0.7767
   72SLPC  H17Y 6372   6.638   2.289   8.469  0.5399  1.1373 -0.4677
   72SLPC  C318 6373   6.692   2.105   8.364 -0.4891  0.0859  0.1659
   72SLPC  H18X 6374   6.789   2.054   8.343 -1.8269 -2.2090 -0.7606
   72SLPC  H18Y 6375   6.659   2.141   8.264  0.2138 -0.7150 -0.3723
   72SLPC  H18Z 6376   6.621   2.036   8.414  0.3614 -0.9475 -0.0081
   73SLPC     N 6377   0.394   1.896  11.092  1.1937 -0.8046  0.1022
   73SLPC   C13 6378   0.348   2.020  11.020 -0.2833 -0.3728  0.2080
   73SLPC  H13A 6379   0.416   2.096  11.055 -0.4749  0.6719 -1.5781
   73SLPC  H13B 6380   0.358   2.015  10.913 -0.3890  3.0425 -0.0563
   73SLPC  H13C 6381   0.244   2.044  11.035 -0.2123  1.5751 -1.8461
   73SLPC   C14 6382   0.367   1.925  11.244 -0.0699 -0.5402  0.1701
   73SLPC  H14A 6383   0.428   1.859  11.303 -0.9192  1.1371  3.1152
   73SLPC  H14B 6384   0.405   2.025  11.257  1.7362 -1.1589 -0.1400
   73SLPC  H14C 6385   0.262   1.919  11.269  0.5488 -0.3712  3.0574
   73SLPC   C15 6386   0.546   1.877  11.085  0.1689  0.0312  0.8478
   73SLPC  H15A 6387   0.583   1.805  11.157  0.4233 -2.2917 -1.4486
   73SLPC  H15B 6388   0.574   1.845  10.986  2.1123  3.7091  0.0268
   73SLPC  H15C 6389   0.591   1.968  11.122  0.6500  0.1640 -0.0369
   73SLPC   C12 6390   0.312   1.778  11.061 -0.4024  0.5019  0.2496
   73SLPC  H12A 6391   0.221   1.778  11.121  0.1933 -0.9088  1.2062
   73SLPC  H12B 6392   0.376   1.698  11.094  0.9475  1.1937 -0.6272
   73SLPC   C11 6393   0.272   1.744  10.911  0.1160  0.2538 -0.6703
   73SLPC  H11A 6394   0.192   1.816  10.881  1.2436  1.6439 -0.4234
   73SLPC  H11B 6395   0.224   1.644  10.902 -2.1959  0.9588  2.1684
   73SLPC     P 6396   0.431   1.687  10.711 -0.0688  0.3771 -0.2049
   73SLPC   O13 6397   0.530   1.763  10.641  0.3494 -0.0496 -0.7210
   73SLPC   O14 6398   0.478   1.563  10.775  0.3313  0.0331  0.3306
   73SLPC   O12 6399   0.381   1.777  10.825 -0.2971 -0.7206  0.1622
   73SLPC   O11 6400   0.309   1.649  10.621  0.0533 -0.4118  0.1660
   73SLPC    C1 6401   0.209   1.745  10.586  0.0993 -0.3686  0.6904
   73SLPC    HA 6402   0.107   1.712  10.617 -1.1187  1.5190 -1.0588
   73SLPC    HB 6403   0.213   1.844  10.637  1.8540  0.3311 -0.7262
   73SLPC    C2 6404   0.210   1.742  10.430  0.5251 -0.0926 -0.4267
   73SLPC    HS 6405   0.138   1.821  10.402 -1.3674 -1.7822 -0.5992
   73SLPC   O21 6406   0.154   1.623  10.380 -0.3811 -0.5761 -0.7057
   73SLPC   C21 6407   0.052   1.629  10.299  0.2385  0.5344 -0.1963
   73SLPC   O22 6408  -0.003   1.734  10.263 -0.3678 -0.4070  0.2734
   73SLPC   C22 6409   0.013   1.491  10.261 -0.1109 -0.0543 -0.2412
   73SLPC   H2R 6410   0.079   1.426  10.322  1.8073  1.1981 -0.8981
   73SLPC   H2S 6411  -0.090   1.485  10.304  0.2539  2.0534  1.0760
   73SLPC    C3 6412   0.341   1.772  10.361 -0.0014  0.2117 -0.2678
   73SLPC    HX 6413   0.403   1.684  10.387  1.2762  2.0046  3.3071
   73SLPC    HY 6414   0.380   1.864  10.411 -0.6499 -0.5348  1.6708
   73SLPC   O31 6415   0.318   1.787  10.219  0.3626  0.2745  0.2607
   73SLPC   C31 6416   0.302   1.910  10.177  0.5615  0.0137  0.6008
   73SLPC   O32 6417   0.288   2.007  10.246  0.1796 -0.2243 -0.4170
   73SLPC   C32 6418   0.289   1.923  10.022  0.0504  0.4598 -0.4939
   73SLPC   H2X 6419   0.390   1.946   9.980 -0.4621  0.2062 -1.9291
   73SLPC   H2Y 6420   0.222   2.009  10.002 -0.2214  0.5198  0.6474
   73SLPC   C23 6421   0.024   1.464  10.109 -0.1555 -0.9050  0.3114
   73SLPC   H3R 6422   0.052   1.359  10.086  0.3771 -0.5775 -0.5594
   73SLPC   H3S 6423   0.091   1.528  10.048 -0.6098 -1.0213 -0.3232
   73SLPC   C24 6424  -0.112   1.468  10.045 -0.0334  0.3341  0.8672
   73SLPC   H4R 6425  -0.170   1.556  10.081  0.9691  0.8421  1.2671
   73SLPC   H4S 6426  -0.168   1.380  10.083 -0.0234 -1.0185 -2.0194
   73SLPC   C25 6427  -0.109   1.441   9.887 -0.2217 -0.1248  0.4188
   73SLPC   H5R 6428  -0.208   1.451   9.838 -0.7706  3.8437  2.0085
   73SLPC   H5S 6429  -0.074   1.337   9.868  0.5358 -0.2246  2.1472
   73SLPC   C26 6430  -0.010   1.525   9.802  0.1460  0.7559  0.7543
   73SLPC   H6R 6431   0.096   1.498   9.823  0.6502  1.2728 -0.9691
   73SLPC   H6S 6432  -0.026   1.628   9.840 -1.7819  0.3807  1.0746
   73SLPC   C27 6433  -0.035   1.513   9.652 -0.9938  0.7500 -0.2449
   73SLPC   H7R 6434  -0.144   1.533   9.642 -0.8143  1.3387 -1.2417
   73SLPC   H7S 6435  -0.025   1.406   9.625  1.5643  0.1647  2.5680
   73SLPC   C28 6436   0.029   1.607   9.560  0.1514 -0.0542  0.5912
   73SLPC   H8R 6437   0.133   1.583   9.529 -0.1993 -0.6252 -0.2009
   73SLPC   H8S 6438   0.034   1.714   9.589  0.0086  0.4863 -1.2557
   73SLPC   C29 6439  -0.043   1.625   9.429 -0.5239  0.3780  0.8694
   73SLPC   H9R 6440  -0.123   1.701   9.430 -0.5905  0.3571 -0.8815
   73SLPC  C210 6441  -0.035   1.540   9.328 -0.2321 -0.2312 -0.6709
   73SLPC  H10R 6442  -0.102   1.556   9.242  1.5158  1.4920 -1.7914
   73SLPC  C211 6443   0.055   1.419   9.306  0.4720  0.5656 -0.1274
   73SLPC  H11R 6444  -0.015   1.335   9.285 -1.1683  1.7434  0.4069
   73SLPC  H11S 6445   0.105   1.392   9.402  1.1286  2.6213  0.1539
   73SLPC  C212 6446   0.148   1.460   9.193 -0.4161 -0.8190  0.0659
   73SLPC  H12R 6447   0.187   1.562   9.186 -0.7867 -0.6960 -0.2267
   73SLPC  C213 6448   0.175   1.380   9.088 -0.5035  0.2489  0.1087
   73SLPC  H13R 6449   0.250   1.404   9.012  1.9233  1.2788  2.6490
   73SLPC  C214 6450   0.123   1.239   9.069 -0.3287  0.8891 -0.3141
   73SLPC  H14R 6451   0.055   1.197   9.146 -1.8804  0.5090 -1.8438
   73SLPC  H14S 6452   0.214   1.175   9.063 -2.4437 -2.2397 -1.2325
   73SLPC  C215 6453   0.043   1.238   8.934  0.4010 -0.0665  0.2129
   73SLPC  H15R 6454   0.108   1.272   8.851  0.5286  0.8462  0.6733
   73SLPC  H15S 6455  -0.041   1.311   8.945 -0.9147 -1.2027 -1.7093
   73SLPC  C216 6456  -0.011   1.099   8.892  0.7475  0.3864 -0.7765
   73SLPC  H16R 6457   0.076   1.030   8.886 -0.1226 -1.0021  1.3706
   73SLPC  H16S 6458  -0.067   1.105   8.796  0.4924  3.2261 -0.5546
   73SLPC  C217 6459  -0.109   1.033   8.991  0.3043  0.4430  0.3979
   73SLPC  H17R 6460  -0.161   1.104   9.060 -2.7078 -2.3349  1.2273
   73SLPC  H17S 6461  -0.049   0.964   9.053  2.6473 -0.7425 -2.8612
   73SLPC  C218 6462  -0.219   0.953   8.923 -0.1086  0.2608  0.4324
   73SLPC  H18R 6463  -0.184   0.892   8.837  0.6925  0.7781  0.3706
   73SLPC  H18S 6464  -0.299   1.016   8.877  1.4395  1.9605 -0.0611
   73SLPC  H18T 6465  -0.268   0.898   9.006 -0.0501  1.3908  1.2383
   73SLPC   C33 6466   0.222   1.807   9.951  0.5367 -0.6772  0.1598
   73SLPC   H3X 6467   0.115   1.801   9.981  0.1814  2.3174 -0.2351
   73SLPC   H3Y 6468   0.273   1.709   9.964  1.7039 -0.4803 -2.2782
   73SLPC   C34 6469   0.237   1.839   9.801  0.6825  0.1306 -0.1782
   73SLPC   H4X 6470   0.202   1.939   9.767 -2.6647 -0.0651  2.1605
   73SLPC   H4Y 6471   0.165   1.768   9.756 -0.2269  0.9461 -0.0670
   73SLPC   C35 6472   0.370   1.831   9.730  0.0162  0.1855  0.3149
   73SLPC   H5X 6473   0.428   1.757   9.790  1.3343  0.5396 -0.4664
   73SLPC   H5Y 6474   0.430   1.924   9.739 -0.8090  0.7217  0.4001
   73SLPC   C36 6475   0.352   1.771   9.592 -0.2393  0.0111  0.2493
   73SLPC   H6X 6476   0.265   1.817   9.541  1.4663  2.6086 -0.5394
   73SLPC   H6Y 6477   0.334   1.662   9.598  0.2126 -0.2871 -2.5538
   73SLPC   C37 6478   0.481   1.792   9.504 -0.1949 -0.6377  0.1633
   73SLPC   H7X 6479   0.574   1.781   9.562  0.5595  0.2092 -0.8392
   73SLPC   H7Y 6480   0.479   1.896   9.464  0.3646 -0.5853  0.2756
   73SLPC   C38 6481   0.501   1.701   9.389  0.1272 -0.1608  0.4681
   73SLPC   H8X 6482   0.403   1.692   9.339 -0.8808  2.6492  1.7058
   73SLPC   H8Y 6483   0.534   1.600   9.422 -0.5371 -0.6385 -0.2713
   73SLPC   C39 6484   0.587   1.764   9.276  0.0134  0.2997 -0.1378
   73SLPC   H9X 6485   0.695   1.764   9.302  0.4639 -1.8260 -1.7187
   73SLPC   H9Y 6486   0.550   1.867   9.259  3.5490  1.4678 -1.6604
   73SLPC  C310 6487   0.588   1.679   9.141 -0.4375  0.1434 -0.6340
   73SLPC  H10X 6488   0.644   1.747   9.074  1.6725 -0.9307 -0.0436
   73SLPC  H10Y 6489   0.481   1.680   9.111 -0.8993 -2.4049  0.5978
   73SLPC  C311 6490   0.639   1.531   9.139  0.0697 -0.0308  0.7794
   73SLPC  H11X 6491   0.568   1.475   9.203 -0.4347 -0.2089  0.0724
   73SLPC  H11Y 6492   0.741   1.526   9.183  0.4281 -0.7553 -0.1242
   73SLPC  C312 6493   0.643   1.471   8.995  0.4299 -0.4569 -0.8554
   73SLPC  H12X 6494   0.685   1.546   8.925 -2.0646  1.0878 -0.8483
   73SLPC  H12Y 6495   0.535   1.469   8.966  0.2262 -0.7972 -0.1039
   73SLPC  C313 6496   0.712   1.334   8.987  0.0590  0.1131 -0.7550
   73SLPC  H13X 6497   0.675   1.265   9.067  0.4844  0.1673 -0.5057
   73SLPC  H13Y 6498   0.821   1.353   8.998 -0.6072  4.8647 -0.4476
   73SLPC  C314 6499   0.689   1.268   8.851  0.5934 -0.3028 -0.6147
   73SLPC  H14X 6500   0.765   1.189   8.836  2.3118  0.2189  3.7124
   73SLPC  H14Y 6501   0.703   1.342   8.770  0.6594 -0.1189 -0.4388
   73SLPC  C315 6502   0.547   1.201   8.833 -0.3932  0.1076  0.1968
   73SLPC  H15X 6503   0.475   1.279   8.865 -0.2070 -0.9149  3.5545
   73SLPC  H15Y 6504   0.538   1.123   8.912  0.9757  0.9752  1.2714
   73SLPC  C316 6505   0.534   1.159   8.688  0.3890 -0.4688 -0.3377
   73SLPC  H16X 6506   0.592   1.065   8.680  1.2010 -0.0151  0.1068
   73SLPC  H16Y 6507   0.584   1.225   8.615 -0.0311  0.1154 -0.1075
   73SLPC  C317 6508   0.391   1.152   8.642  0.4132 -0.7120 -0.1750
   73SLPC  H17X 6509   0.332   1.089   8.713  0.4920 -1.0703 -0.4241
   73SLPC  H17Y 6510   0.396   1.096   8.546  2.7464  1.9290 -1.7332
   73SLPC  C318 6511   0.335   1.293   8.620  0.1807 -0.1743 -0.6736
   73SLPC  H18X 6512   0.377   1.345   8.531 -1.3371  0.7536 -0.8753
   73SLPC  H18Y 6513   0.352   1.361   8.706 -0.2248 -1.5323  0.5247
   73SLPC  H18Z 6514   0.225   1.288   8.611 -0.2434  1.3973  2.3645
   74SLPC     N 6515   6.601   1.491  11.003 -0.1549  0.3496  0.4693
   74SLPC   C13 6516   6.640   1.489  11.147 -0.3906 -0.4704 -0.2194
   74SLPC  H13A 6517   6.714   1.413  11.167  1.1436  1.2532  0.9528
   74SLPC  H13B 6518   6.681   1.585  11.175  0.3135 -1.4514  2.4348
   74SLPC  H13C 6519   6.558   1.461  11.212  0.3212 -0.2217  0.8141
   74SLPC   C14 6520   6.720   1.534  10.920  0.2305  0.2565 -0.0486
   74SLPC  H14A 6521   6.695   1.542  10.815  3.3207  1.9013 -0.7717
   74SLPC  H14B 6522   6.750   1.635  10.945  1.3806  0.2107 -1.1403
   74SLPC  H14C 6523   6.796   1.458  10.912  0.5970  0.6803 -0.7856
   74SLPC   C15 6524   6.500   1.607  10.987  0.3305  0.8184 -0.2052
   74SLPC  H15A 6525   6.411   1.588  11.045  0.6818  0.0862  0.0938
   74SLPC  H15B 6526   6.542   1.699  11.026 -0.5420  0.5577  1.4201
   74SLPC  H15C 6527   6.473   1.616  10.882 -1.1599 -0.7996 -0.0075
   74SLPC   C12 6528   6.540   1.359  10.960  0.0593 -0.8497  0.1833
   74SLPC  H12A 6529   6.458   1.330  11.024 -0.7593 -0.4687 -0.6754
   74SLPC  H12B 6530   6.618   1.285  10.961 -0.0482 -0.9600  0.8261
   74SLPC   C11 6531   6.469   1.366  10.821 -0.4557 -0.2995 -0.9240
   74SLPC  H11A 6532   6.389   1.443  10.818  0.1190  0.2995 -0.9579
   74SLPC  H11B 6533   6.411   1.271  10.813 -1.7231  0.4071 -0.4986
   74SLPC     P 6534   6.557   1.480  10.603  0.2120  0.0540 -0.6303
   74SLPC   O13 6535   6.524   1.615  10.653  0.1707 -0.1089 -1.0858
   74SLPC   O14 6536   6.688   1.474  10.531 -0.5575  0.3863  0.1559
   74SLPC   O12 6537   6.569   1.378  10.724 -0.2501 -0.3081  0.1472
   74SLPC   O11 6538   6.435   1.424  10.515 -0.4352  0.4001  0.4337
   74SLPC    C1 6539   6.396   1.288  10.496  0.2160  0.6235  0.5341
   74SLPC    HA 6540   6.434   1.227  10.581  0.7572  2.4331  1.6689
   74SLPC    HB 6541   6.285   1.283  10.496  0.1473  1.0350 -1.9136
   74SLPC    C2 6542   6.423   1.229  10.355 -0.4700 -0.3892 -0.4295
   74SLPC    HS 6543   6.378   1.128  10.353 -0.5123 -0.3672 -2.0580
   74SLPC   O21 6544   6.566   1.223  10.345 -0.1161 -0.0839  0.3823
   74SLPC   C21 6545   6.633   1.129  10.411  0.3977 -0.5623  0.1591
   74SLPC   O22 6546   6.590   1.047  10.489  0.7845  0.0004  0.3176
   74SLPC   C22 6547   6.783   1.139  10.372  0.0388  0.0503 -0.3594
   74SLPC   H2R 6548   6.801   1.215  10.294 -0.9591  1.6306  0.8946
   74SLPC   H2S 6549   6.832   1.174  10.465 -0.5176 -2.7691  1.1403
   74SLPC    C3 6550   6.359   1.316  10.240  0.2882 -0.6428 -1.4874
   74SLPC    HX 6551   6.414   1.413  10.244 -3.3957  1.6243  2.5942
   74SLPC    HY 6552   6.253   1.331  10.267  0.4688 -1.5759 -0.1974
   74SLPC   O31 6553   6.359   1.242  10.117 -0.1003  0.0547  0.1054
   74SLPC   C31 6554   6.341   1.323  10.019 -0.1415  0.0388 -0.7314
   74SLPC   O32 6555   6.313   1.442  10.029 -0.3488 -0.0558  0.0072
   74SLPC   C32 6556   6.355   1.253   9.885 -0.1064  0.7194 -0.0533
   74SLPC   H2X 6557   6.462   1.260   9.857  0.2432  3.9248  1.6108
   74SLPC   H2Y 6558   6.287   1.312   9.819  1.7093  0.5263 -2.1979
   74SLPC   C23 6559   6.848   1.001  10.337 -0.8651  0.8878  0.6433
   74SLPC   H3R 6560   6.781   0.914  10.357 -0.5565 -0.0307 -1.9842
   74SLPC   H3S 6561   6.937   0.988  10.403 -0.7573  0.7426  0.4689
   74SLPC   C24 6562   6.883   1.003  10.185  0.8675 -0.0036 -0.1702
   74SLPC   H4R 6563   6.937   0.915  10.144  0.7051 -0.8043  1.2754
   74SLPC   H4S 6564   6.960   1.082  10.176  0.8330  0.0579  0.0767
   74SLPC   C25 6565   6.760   1.017  10.090 -0.2413 -0.2517  0.1479
   74SLPC   H5R 6566   6.715   1.119  10.087  0.5744  0.1326  0.5030
   74SLPC   H5S 6567   6.683   0.944  10.122 -0.0265 -1.2769 -1.5037
   74SLPC   C26 6568   6.788   0.978   9.940  0.0519  0.2709 -0.1547
   74SLPC   H6R 6569   6.820   0.872   9.934  0.2853  0.3051  0.3869
   74SLPC   H6S 6570   6.874   1.029   9.892  1.1080 -3.4802 -2.6548
   74SLPC   C27 6571   6.663   0.984   9.843  0.3208 -0.3598 -0.0799
   74SLPC   H7R 6572   6.603   1.078   9.844  0.1710 -0.2821  4.3204
   74SLPC   H7S 6573   6.599   0.906   9.891 -0.1579 -1.2960 -2.1337
   74SLPC   C28 6574   6.698   0.940   9.700 -0.0274 -0.4678  0.6298
   74SLPC   H8R 6575   6.606   0.901   9.650 -0.9426  1.0960  1.0261
   74SLPC   H8S 6576   6.767   0.855   9.719  1.1776  0.6663  1.4723
   74SLPC   C29 6577   6.767   1.046   9.619 -0.3416 -0.0240  0.1632
   74SLPC   H9R 6578   6.873   1.036   9.645 -0.5441 -4.3646 -0.0068
   74SLPC  C210 6579   6.719   1.133   9.526 -0.1660 -0.0529 -0.7697
   74SLPC  H10R 6580   6.791   1.204   9.484 -1.0406  0.5238 -1.3145
   74SLPC  C211 6581   6.580   1.153   9.482  0.0850 -0.2751  0.1839
   74SLPC  H11R 6582   6.514   1.067   9.502 -2.4708  1.8258  1.3602
   74SLPC  H11S 6583   6.585   1.161   9.371  0.1471 -2.8382 -0.0480
   74SLPC  C212 6584   6.514   1.270   9.554  1.4776  0.2497  0.1980
   74SLPC  H12R 6585   6.564   1.314   9.642  0.5245 -0.0378  0.8958
   74SLPC  C213 6586   6.404   1.340   9.510  0.1382  0.3148  0.4473
   74SLPC  H13R 6587   6.369   1.424   9.573  1.5459  0.7505  0.6961
   74SLPC  C214 6588   6.327   1.298   9.388 -0.2312  0.4305 -0.0484
   74SLPC  H14R 6589   6.234   1.245   9.418  0.5997 -2.3091 -1.8701
   74SLPC  H14S 6590   6.380   1.225   9.323  0.1933 -1.6970  2.5581
   74SLPC  C215 6591   6.285   1.418   9.305 -0.3915 -0.3842 -0.0169
   74SLPC  H15R 6592   6.248   1.498   9.373 -0.9435 -1.5746  1.1224
   74SLPC  H15S 6593   6.206   1.391   9.233 -0.4080  2.9030 -1.4083
   74SLPC  C216 6594   6.396   1.478   9.222 -0.2115  0.2810  0.3553
   74SLPC  H16R 6595   6.474   1.518   9.290 -0.0259 -1.4963  1.2341
   74SLPC  H16S 6596   6.348   1.566   9.173  1.2500  0.6783 -0.4309
   74SLPC  C217 6597   6.453   1.383   9.121 -0.3798 -0.3706 -1.1071
   74SLPC  H17R 6598   6.514   1.307   9.174  1.5068 -1.0251 -3.9838
   74SLPC  H17S 6599   6.528   1.435   9.058  0.3572 -1.0050 -0.7737
   74SLPC  C218 6600   6.350   1.318   9.026 -0.3724  1.0055 -0.0710
   74SLPC  H18R 6601   6.301   1.387   8.954 -0.0271  0.2553 -1.0601
   74SLPC  H18S 6602   6.275   1.258   9.082 -1.5041  0.4977 -2.0078
   74SLPC  H18T 6603   6.396   1.246   8.955  0.4938 -1.1102  2.4816
   74SLPC   C33 6604   6.313   1.106   9.891 -0.2837  0.8776  0.1675
   74SLPC   H3X 6605   6.211   1.094   9.934 -0.1295  1.2518  0.6421
   74SLPC   H3Y 6606   6.386   1.056   9.958 -0.0439 -0.9259 -1.3262
   74SLPC   C34 6607   6.297   1.049   9.752  0.7831 -0.3027  0.5487
   74SLPC   H4X 6608   6.396   1.031   9.704  1.2719 -0.3259  1.5380
   74SLPC   H4Y 6609   6.251   1.123   9.683  2.7169 -0.1666 -0.6860
   74SLPC   C35 6610   6.216   0.918   9.731 -0.4588  0.1740 -0.2115
   74SLPC   H5X 6611   6.124   0.910   9.793  0.1072 -1.6946  0.4643
   74SLPC   H5Y 6612   6.287   0.840   9.766 -0.7686 -0.5007 -1.0372
   74SLPC   C36 6613   6.172   0.885   9.583  0.1390 -0.8989  0.2242
   74SLPC   H6X 6614   6.137   0.979   9.535 -0.0231 -1.0769 -0.0072
   74SLPC   H6Y 6615   6.091   0.810   9.591 -0.4609 -0.2467  0.4274
   74SLPC   C37 6616   6.286   0.822   9.499  0.0928  0.3871 -0.4099
   74SLPC   H7X 6617   6.296   0.716   9.532  0.6615  0.8523  0.9706
   74SLPC   H7Y 6618   6.370   0.888   9.531 -2.9797  3.4932  2.0933
   74SLPC   C38 6619   6.271   0.833   9.348  0.0884  0.4647  0.2224
   74SLPC   H8X 6620   6.309   0.931   9.314 -0.9069  0.6230 -0.4677
   74SLPC   H8Y 6621   6.164   0.833   9.317  0.5505  1.0016 -1.4589
   74SLPC   C39 6622   6.360   0.726   9.279 -0.5411  0.0246  0.8495
   74SLPC   H9X 6623   6.330   0.735   9.173  1.9908  1.9601  0.2073
   74SLPC   H9Y 6624   6.352   0.624   9.324 -0.4851 -0.1067  0.5616
   74SLPC  C310 6625   6.508   0.766   9.278 -0.6195 -0.0173  1.0503
   74SLPC  H10X 6626   6.520   0.876   9.287  1.1508 -0.3063  2.9519
   74SLPC  H10Y 6627   6.556   0.737   9.182  1.2359  4.7006  0.2927
   74SLPC  C311 6628   6.603   0.701   9.385 -0.1570 -1.3241  0.2875
   74SLPC  H11X 6629   6.584   0.592   9.390 -3.0583 -0.8501  0.9648
   74SLPC  H11Y 6630   6.570   0.732   9.486 -0.8723 -0.5950 -0.1558
   74SLPC  C312 6631   6.748   0.741   9.369 -0.5895 -0.0953 -0.3726
   74SLPC  H12X 6632   6.742   0.852   9.364  0.4086 -0.0916 -2.8324
   74SLPC  H12Y 6633   6.788   0.703   9.272 -1.2432  0.1840 -0.7591
   74SLPC  C313 6634   6.846   0.693   9.477  0.1049  0.0270 -0.9557
   74SLPC  H13X 6635   6.838   0.585   9.505 -1.2797  0.9044  2.5745
   74SLPC  H13Y 6636   6.832   0.752   9.570  2.0720  1.1532 -1.3019
   74SLPC  C314 6637   6.990   0.726   9.431 -0.0612  0.2974  0.0970
   74SLPC  H14X 6638   6.986   0.836   9.415  1.0115  0.1039 -1.9483
   74SLPC  H14Y 6639   7.014   0.680   9.332 -0.0225 -2.0472  1.1371
   74SLPC  C315 6640   7.090   0.690   9.539 -0.6531 -0.5416  0.1927
   74SLPC  H15X 6641   7.190   0.722   9.503 -0.8075  1.2611  1.2460
   74SLPC  H15Y 6642   7.080   0.582   9.561  2.6547 -1.5743 -2.5569
   74SLPC  C316 6643   7.071   0.769   9.665 -0.3551 -0.3870 -0.2948
   74SLPC  H16X 6644   6.981   0.727   9.714  0.0018 -0.4810  0.2920
   74SLPC  H16Y 6645   7.051   0.872   9.628  1.4994 -0.2088 -0.9221
   74SLPC  C317 6646   7.185   0.770   9.766  0.0549 -0.7430 -1.2275
   74SLPC  H17X 6647   7.260   0.826   9.708 -1.2091  1.4676 -0.8306
   74SLPC  H17Y 6648   7.227   0.672   9.797  0.3469 -0.5834 -1.1245
   74SLPC  C318 6649   7.154   0.857   9.887 -0.1652 -0.4708  0.0108
   74SLPC  H18X 6650   7.119   0.958   9.859 -0.1478 -0.2705  0.6983
   74SLPC  H18Y 6651   7.253   0.871   9.936  0.5478 -1.8001 -0.9771
   74SLPC  H18Z 6652   7.091   0.803   9.962 -0.3727  0.7491  0.7289
   75SLPC     N 6653   2.472   0.076   6.212 -0.3053 -0.0735 -0.2186
   75SLPC   C13 6654   2.388   0.193   6.174  0.4398 -0.1551 -0.3179
   75SLPC  H13A 6655   2.294   0.165   6.218 -0.2611  3.0600  0.4818
   75SLPC  H13B 6656   2.414   0.284   6.226  0.4891 -0.9081  1.0141
   75SLPC  H13C 6657   2.384   0.213   6.068 -0.5538  2.5653  0.1615
   75SLPC   C14 6658   2.615   0.098   6.160 -0.4040  0.3937 -0.4240
   75SLPC  H14A 6659   2.671   0.006   6.161  1.6361  1.4469 -3.3786
   75SLPC  H14B 6660   2.617   0.132   6.057  2.6450  1.7249 -0.0426
   75SLPC  H14C 6661   2.663   0.172   6.223  1.9836 -1.8974  0.6678
   75SLPC   C15 6662   2.434  -0.052   6.155  0.4463  0.1778 -0.1402
   75SLPC  H15A 6663   2.421  -0.048   6.048 -0.3934 -1.9136 -0.1442
   75SLPC  H15B 6664   2.496  -0.135   6.185 -0.3803 -0.4973 -0.3004
   75SLPC  H15C 6665   2.336  -0.086   6.184  0.8677 -0.8365  0.1342
   75SLPC   C12 6666   2.476   0.075   6.363 -0.2075 -0.3662  0.6136
   75SLPC  H12A 6667   2.549   0.002   6.396 -0.6333 -0.9532  0.2920
   75SLPC  H12B 6668   2.378   0.035   6.386 -0.3465 -0.4694 -0.1079
   75SLPC   C11 6669   2.494   0.206   6.431  0.2792  0.1097  1.2775
   75SLPC  H11A 6670   2.522   0.185   6.536  0.3885  2.4622  1.7875
   75SLPC  H11B 6671   2.397   0.260   6.431  0.0489 -0.2497 -0.1951
   75SLPC     P 6672   2.635   0.423   6.404 -0.0082 -0.4746  0.2930
   75SLPC   O13 6673   2.779   0.454   6.377 -0.0278  0.4884 -0.2231
   75SLPC   O14 6674   2.538   0.500   6.319  0.3793  0.5204 -0.1237
   75SLPC   O12 6675   2.608   0.270   6.377  0.9064 -0.7833 -0.2285
   75SLPC   O11 6676   2.587   0.447   6.551  0.0267  0.4396  0.3163
   75SLPC    C1 6677   2.668   0.414   6.662  0.3839 -1.2767 -0.0844
   75SLPC    HA 6678   2.706   0.310   6.650 -1.7960 -2.0780 -0.4711
   75SLPC    HB 6679   2.754   0.483   6.673 -0.7866  0.1492  0.3605
   75SLPC    C2 6680   2.589   0.414   6.795  0.6000  0.9181  0.1732
   75SLPC    HS 6681   2.568   0.522   6.813  1.9193  1.1939  0.1683
   75SLPC   O21 6682   2.667   0.343   6.897  0.2174 -0.4297  0.2050
   75SLPC   C21 6683   2.637   0.383   7.018  0.1365  0.4853  0.3617
   75SLPC   O22 6684   2.571   0.478   7.050  0.5909 -0.2822 -0.1838
   75SLPC   C22 6685   2.729   0.314   7.115 -0.5949 -0.3680  0.2043
   75SLPC   H2R 6686   2.786   0.229   7.071 -1.2131 -0.9523  0.5091
   75SLPC   H2S 6687   2.808   0.383   7.152 -0.3100 -0.3317 -0.4695
   75SLPC    C3 6688   2.451   0.343   6.778 -0.1626 -0.0780  0.3723
   75SLPC    HX 6689   2.472   0.243   6.734 -1.0360  0.6064 -1.7449
   75SLPC    HY 6690   2.385   0.399   6.709 -0.7068  0.6448  1.4501
   75SLPC   O31 6691   2.371   0.320   6.891  0.0318 -0.3117 -0.1219
   75SLPC   C31 6692   2.303   0.428   6.931  0.4529 -0.3997 -0.1953
   75SLPC   O32 6693   2.305   0.539   6.879  0.0875 -0.0705 -0.0456
   75SLPC   C32 6694   2.204   0.385   7.045  0.5520 -0.4187 -0.3563
   75SLPC   H2X 6695   2.139   0.301   7.013 -1.9036  1.5126 -0.7121
   75SLPC   H2Y 6696   2.131   0.468   7.034 -0.6485 -0.6175  4.1185
   75SLPC   C23 6697   2.642   0.255   7.233 -0.4493 -0.7975  0.6201
   75SLPC   H3R 6698   2.551   0.201   7.198 -1.6871  1.3021  0.4490
   75SLPC   H3S 6699   2.599   0.341   7.288  1.1696 -0.9863  2.3019
   75SLPC   C24 6700   2.729   0.172   7.323 -0.3679 -0.5146  0.4183
   75SLPC   H4R 6701   2.826   0.218   7.349  0.4467 -2.6237  1.4178
   75SLPC   H4S 6702   2.761   0.094   7.250 -0.0476 -0.7264  0.7823
   75SLPC   C25 6703   2.644   0.121   7.443  0.0686  0.3104  0.3875
   75SLPC   H5R 6704   2.561   0.060   7.400  1.2413 -2.3247  1.6294
   75SLPC   H5S 6705   2.603   0.206   7.501 -1.6147 -0.1389 -0.0975
   75SLPC   C26 6706   2.721   0.013   7.528 -1.1943  0.3739 -0.3021
   75SLPC   H6R 6707   2.801   0.063   7.587 -0.6452  1.5220 -1.9469
   75SLPC   H6S 6708   2.756  -0.064   7.456  1.6545 -0.4032  1.7627
   75SLPC   C27 6709   2.623  -0.056   7.625 -0.7665 -0.6736 -0.2560
   75SLPC   H7R 6710   2.572  -0.143   7.578 -2.1207 -0.7131  1.2138
   75SLPC   H7S 6711   2.549   0.022   7.651  0.2566  0.5861 -0.9460
   75SLPC   C28 6712   2.701  -0.103   7.749 -0.5755  0.4918  0.1277
   75SLPC   H8R 6713   2.741  -0.008   7.791 -0.1332 -0.1433  1.1915
   75SLPC   H8S 6714   2.785  -0.172   7.732 -2.1342 -1.4057 -0.1637
   75SLPC   C29 6715   2.609  -0.176   7.847  0.7038 -0.1010 -0.3814
   75SLPC   H9R 6716   2.605  -0.281   7.813  0.9891 -0.0144 -0.6881
   75SLPC  C210 6717   2.539  -0.133   7.952  0.7494  0.2965  0.0904
   75SLPC  H10R 6718   2.463  -0.199   7.995 -0.1527  2.1111  1.4263
   75SLPC  C211 6719   2.557   0.008   8.005  0.2950  0.6487  0.1393
   75SLPC  H11R 6720   2.468   0.064   7.971  0.6988  0.3917 -1.4385
   75SLPC  H11S 6721   2.640   0.063   7.955  2.0986 -0.3502  1.8796
   75SLPC  C212 6722   2.574   0.012   8.155 -0.2188  0.4622  0.4770
   75SLPC  H12R 6723   2.680   0.004   8.184  0.0322  0.8131 -0.3101
   75SLPC  C213 6724   2.481   0.035   8.251 -0.5797  0.0548 -0.3157
   75SLPC  H13R 6725   2.516   0.047   8.354 -0.9851  0.7163 -0.2458
   75SLPC  C214 6726   2.340   0.062   8.232 -0.5998  0.2317  0.5270
   75SLPC  H14R 6727   2.318   0.081   8.125 -2.4077 -1.6576  0.5015
   75SLPC  H14S 6728   2.315   0.155   8.288  0.7284  0.4448  0.7844
   75SLPC  C215 6729   2.251  -0.059   8.278  0.2726  0.0366  0.1485
   75SLPC  H15R 6730   2.276  -0.081   8.384  0.6938 -0.4261 -0.0417
   75SLPC  H15S 6731   2.257  -0.160   8.233 -0.7887 -0.1364  0.3710
   75SLPC  C216 6732   2.095  -0.030   8.286  0.2840 -0.5362  0.1806
   75SLPC  H16R 6733   2.051  -0.121   8.331  0.5874 -0.7415  0.0649
   75SLPC  H16S 6734   2.054  -0.015   8.184  0.1766 -0.3397  0.2534
   75SLPC  C217 6735   2.057   0.092   8.370 -0.5859 -0.4641  0.2463
   75SLPC  H17R 6736   2.122   0.180   8.351  1.0551 -0.9471  3.0498
   75SLPC  H17S 6737   2.099   0.075   8.471  3.1525  1.5865 -0.7687
   75SLPC  C218 6738   1.913   0.121   8.370  0.1358 -0.2106 -0.2150
   75SLPC  H18R 6739   1.866   0.187   8.447 -1.7153 -1.3618 -0.2967
   75SLPC  H18S 6740   1.851   0.030   8.378 -0.2522 -0.0718 -1.4567
   75SLPC  H18T 6741   1.890   0.185   8.282  3.0026  0.8455 -0.3077
   75SLPC   C33 6742   2.256   0.388   7.185 -0.3465 -0.4208  0.4269
   75SLPC   H3X 6743   2.363   0.359   7.192  0.1609  0.6807 -1.8200
   75SLPC   H3Y 6744   2.259   0.489   7.231 -1.6987 -0.0772 -0.2032
   75SLPC   C34 6745   2.184   0.288   7.278  0.4983 -0.0819 -0.2509
   75SLPC   H4X 6746   2.199   0.186   7.234  0.3748  0.7134 -2.2683
   75SLPC   H4Y 6747   2.077   0.314   7.267  0.0318 -2.1549 -1.2507
   75SLPC   C35 6748   2.227   0.289   7.417 -0.2098 -0.3034 -0.0315
   75SLPC   H5X 6749   2.189   0.381   7.467  0.5185 -0.7256  1.3348
   75SLPC   H5Y 6750   2.338   0.297   7.419 -0.0039 -0.6908 -3.4787
   75SLPC   C36 6751   2.176   0.177   7.502 -0.2653 -0.1213  0.2700
   75SLPC   H6X 6752   2.202   0.083   7.447 -1.4061  0.5198 -1.4308
   75SLPC   H6Y 6753   2.068   0.196   7.513  0.1824  2.4466  0.7187
   75SLPC   C37 6754   2.240   0.178   7.641 -0.2118  0.3315  0.2468
   75SLPC   H7X 6755   2.350   0.165   7.624 -0.5345 -1.2756 -0.9277
   75SLPC   H7Y 6756   2.206   0.099   7.711  0.0306 -3.3117 -3.3350
   75SLPC   C38 6757   2.214   0.305   7.719 -0.3927  0.0381  0.3541
   75SLPC   H8X 6758   2.118   0.350   7.685 -0.4502 -1.0634 -1.0442
   75SLPC   H8Y 6759   2.297   0.365   7.676  1.2888 -1.4955  1.3073
   75SLPC   C39 6760   2.214   0.302   7.866  0.5715  0.1920  0.0737
   75SLPC   H9X 6761   2.302   0.242   7.899  0.7579  1.8212  2.9063
   75SLPC   H9Y 6762   2.131   0.237   7.901  1.3116 -0.3195  0.9092
   75SLPC  C310 6763   2.204   0.431   7.936 -0.6120 -0.3393  1.1164
   75SLPC  H10X 6764   2.108   0.485   7.922  1.1898  2.6092 -0.9667
   75SLPC  H10Y 6765   2.274   0.504   7.891 -2.2141  0.0094 -1.0017
   75SLPC  C311 6766   2.217   0.410   8.092 -0.0241  0.4919 -0.6858
   75SLPC  H11X 6767   2.326   0.402   8.111 -0.4518 -2.4564  1.3171
   75SLPC  H11Y 6768   2.166   0.315   8.122  1.0095 -0.4593 -1.8381
   75SLPC  C312 6769   2.146   0.517   8.174 -0.2671  0.0187 -0.1730
   75SLPC  H12X 6770   2.037   0.512   8.152 -0.4350 -0.3534  0.7014
   75SLPC  H12Y 6771   2.177   0.621   8.151  2.0715 -0.0974  2.0308
   75SLPC  C313 6772   2.174   0.503   8.326 -0.0812  0.1294  0.3144
   75SLPC  H13X 6773   2.116   0.424   8.377 -3.3289  0.7288 -2.0904
   75SLPC  H13Y 6774   2.141   0.600   8.369  0.6424  1.0219 -1.0780
   75SLPC  C314 6775   2.323   0.499   8.354  0.2687 -0.2898  0.1556
   75SLPC  H14X 6776   2.364   0.594   8.314 -1.7766  1.1793  1.3470
   75SLPC  H14Y 6777   2.370   0.408   8.311  0.8440  0.0908 -0.0383
   75SLPC  C315 6778   2.363   0.497   8.507  0.5348 -0.3250  0.2901
   75SLPC  H15X 6779   2.348   0.395   8.548  3.8114 -1.7723 -1.6967
   75SLPC  H15Y 6780   2.300   0.567   8.566 -0.1299 -0.2854 -0.4439
   75SLPC  C316 6781   2.516   0.526   8.526  0.2393 -0.0043 -0.5525
   75SLPC  H16X 6782   2.522   0.547   8.635 -0.4793 -1.5590 -0.1806
   75SLPC  H16Y 6783   2.560   0.615   8.476  0.2721 -0.8512 -2.0824
   75SLPC  C317 6784   2.607   0.405   8.507  0.3267  0.3577  0.7966
   75SLPC  H17X 6785   2.712   0.441   8.512 -0.5288  3.0584  0.7269
   75SLPC  H17Y 6786   2.585   0.368   8.405  0.8213 -0.0386  0.8284
   75SLPC  C318 6787   2.588   0.289   8.598  0.1026  0.4357 -0.6808
   75SLPC  H18X 6788   2.488   0.246   8.575 -1.2752  2.2461  1.4883
   75SLPC  H18Y 6789   2.576   0.319   8.704  0.9797  1.0681 -0.7474
   75SLPC  H18Z 6790   2.669   0.213   8.594  0.0184  0.2403  0.7722
   76SLPC     N 6791   5.306   6.231   6.266  0.4444 -0.5343  0.3756
   76SLPC   C13 6792   5.406   6.140   6.328 -0.0718  0.0339  0.1586
   76SLPC  H13A 6793   5.380   6.110   6.429 -0.5861 -0.1242 -0.0202
   76SLPC  H13B 6794   5.403   6.039   6.290  1.8694 -1.1866  2.8536
   76SLPC  H13C 6795   5.504   6.184   6.313 -0.2155  0.1836 -0.3527
   76SLPC   C14 6796   5.174   6.159   6.241  0.0819 -0.0999  0.0140
   76SLPC  H14A 6797   5.125   6.140   6.335 -3.5766  0.5407 -1.5571
   76SLPC  H14B 6798   5.102   6.217   6.184  1.1259 -0.0044 -1.2472
   76SLPC  H14C 6799   5.192   6.068   6.185  0.0320 -1.2406  1.7828
   76SLPC   C15 6800   5.360   6.266   6.128  1.0352  0.2718  0.1923
   76SLPC  H15A 6801   5.385   6.177   6.072  1.3699 -0.0947  0.8966
   76SLPC  H15B 6802   5.277   6.311   6.075  0.1872 -0.3895  0.9252
   76SLPC  H15C 6803   5.449   6.327   6.133  0.6256  0.8370  4.0978
   76SLPC   C12 6804   5.276   6.359   6.340 -0.4667 -0.6548  0.5230
   76SLPC  H12A 6805   5.219   6.427   6.279  0.2095 -1.0529 -0.5881
   76SLPC  H12B 6806   5.369   6.413   6.341 -1.2143  0.6809  0.3021
   76SLPC   C11 6807   5.206   6.354   6.478 -0.1498 -0.2565  0.1376
   76SLPC  H11A 6808   5.214   6.451   6.532  2.5722  0.2635 -1.0406
   76SLPC  H11B 6809   5.266   6.294   6.550 -2.4865 -3.2190 -0.1822
   76SLPC     P 6810   4.952   6.392   6.408  0.5001  0.0080  0.2196
   76SLPC   O13 6811   4.994   6.433   6.271  0.4328 -0.0030  0.7686
   76SLPC   O14 6812   4.830   6.313   6.417 -0.0142  0.0434  0.0690
   76SLPC   O12 6813   5.071   6.308   6.473 -0.1067  0.2722 -0.2326
   76SLPC   O11 6814   4.925   6.516   6.503 -0.2356 -0.1211  0.1542
   76SLPC    C1 6815   4.899   6.499   6.639  0.1455  0.1697 -0.4943
   76SLPC    HA 6816   4.806   6.440   6.656 -1.1971  2.1773 -0.4989
   76SLPC    HB 6817   4.984   6.439   6.679 -1.0827 -0.0388  2.0098
   76SLPC    C2 6818   4.872   6.629   6.718  0.8482  1.3615  0.4501
   76SLPC    HS 6819   4.957   6.699   6.700 -0.2413  2.4524 -0.6399
   76SLPC   O21 6820   4.862   6.582   6.855 -0.6533 -0.2062 -0.1927
   76SLPC   C21 6821   4.898   6.671   6.941 -0.1033 -0.2462 -0.1863
   76SLPC   O22 6822   4.947   6.781   6.913  0.3757 -0.4668  0.2679
   76SLPC   C22 6823   4.881   6.618   7.081 -0.1110 -0.2587 -0.0387
   76SLPC   H2R 6824   4.774   6.628   7.109 -0.5136  1.1809 -1.8453
   76SLPC   H2S 6825   4.898   6.509   7.074 -0.9666 -0.3142 -2.9708
   76SLPC    C3 6826   4.743   6.700   6.671  0.2387 -0.5243  0.5619
   76SLPC    HX 6827   4.656   6.632   6.670 -0.2566  0.0348 -1.8393
   76SLPC    HY 6828   4.768   6.724   6.565 -1.4828 -2.4137 -0.3428
   76SLPC   O31 6829   4.714   6.817   6.763  0.1872  0.3509  0.4362
   76SLPC   C31 6830   4.644   6.912   6.697 -0.2459 -0.4785  0.5058
   76SLPC   O32 6831   4.617   6.915   6.577 -0.0357 -0.6067  0.0007
   76SLPC   C32 6832   4.612   7.033   6.787  0.3893  0.3985  0.1584
   76SLPC   H2X 6833   4.555   7.104   6.722  1.7767  1.7414  0.3415
   76SLPC   H2Y 6834   4.713   7.076   6.807  0.2834  2.4944 -2.9707
   76SLPC   C23 6835   4.969   6.681   7.195  0.2754  0.5351  0.2519
   76SLPC   H3R 6836   4.958   6.792   7.194  0.3268  0.5452 -1.1858
   76SLPC   H3S 6837   5.075   6.672   7.161  0.3685  2.5065 -0.0860
   76SLPC   C24 6838   4.936   6.624   7.334  0.9177  0.2525  1.1976
   76SLPC   H4R 6839   4.906   6.520   7.312  1.7799  0.1099  0.6531
   76SLPC   H4S 6840   4.857   6.671   7.398 -0.2268 -1.3020  0.9978
   76SLPC   C25 6841   5.064   6.615   7.416  0.0422  0.2240 -0.5275
   76SLPC   H5R 6842   5.128   6.702   7.393  0.9684 -0.6859 -1.5148
   76SLPC   H5S 6843   5.125   6.533   7.373 -1.8515 -0.5884 -1.7656
   76SLPC   C26 6844   5.032   6.580   7.555  0.3482  0.3057 -0.2144
   76SLPC   H6R 6845   4.957   6.498   7.560 -0.6802  1.2273 -0.0419
   76SLPC   H6S 6846   4.986   6.667   7.608  0.9284  0.2297  0.4139
   76SLPC   C27 6847   5.161   6.551   7.643  0.6821  0.2700 -0.2503
   76SLPC   H7R 6848   5.207   6.651   7.659 -2.0081  1.6781 -0.7444
   76SLPC   H7S 6849   5.234   6.491   7.583 -0.0569 -1.7200  0.7365
   76SLPC   C28 6850   5.119   6.485   7.773 -0.5197  0.8808 -0.1504
   76SLPC   H8R 6851   5.048   6.558   7.817 -2.9139  0.0393 -2.3798
   76SLPC   H8S 6852   5.050   6.406   7.736 -0.7241  0.8076  0.3657
   76SLPC   C29 6853   5.223   6.417   7.861 -0.2722 -1.4968 -0.2436
   76SLPC   H9R 6854   5.244   6.311   7.841  0.0905 -1.9579  2.2619
   76SLPC  C210 6855   5.286   6.482   7.964  0.0757  0.0652  0.7337
   76SLPC  H10R 6856   5.355   6.432   8.033  2.4235  0.3793 -1.2479
   76SLPC  C211 6857   5.264   6.623   8.011  0.5092  0.2310  0.3605
   76SLPC  H11R 6858   5.203   6.685   7.941 -0.6642 -1.6990 -0.4177
   76SLPC  H11S 6859   5.364   6.669   8.024  0.8558 -0.2710 -0.4401
   76SLPC  C212 6860   5.185   6.642   8.136 -0.0769  0.1849  0.1096
   76SLPC  H12R 6861   5.077   6.663   8.132  0.0994  1.4538  1.3092
   76SLPC  C213 6862   5.222   6.631   8.261 -0.3225  0.0599 -0.2762
   76SLPC  H13R 6863   5.142   6.639   8.336 -0.1617 -1.0608  0.0261
   76SLPC  C214 6864   5.358   6.595   8.314  0.3448 -0.0346 -0.2518
   76SLPC  H14R 6865   5.433   6.651   8.255  1.9446 -0.4218  1.3371
   76SLPC  H14S 6866   5.388   6.489   8.301 -0.2045 -0.3576  0.9981
   76SLPC  C215 6867   5.373   6.640   8.460  0.9215  0.3092 -0.5510
   76SLPC  H15R 6868   5.360   6.750   8.469  0.6158  0.3514 -1.4258
   76SLPC  H15S 6869   5.478   6.619   8.491  0.3154 -0.0810  1.3461
   76SLPC  C216 6870   5.288   6.567   8.571 -0.5966  0.1810  0.5414
   76SLPC  H16R 6871   5.339   6.470   8.589  3.0255  1.8423  0.1998
   76SLPC  H16S 6872   5.183   6.557   8.536  0.0976 -2.2835 -1.1077
   76SLPC  C217 6873   5.276   6.642   8.702 -0.3565 -0.0592  0.2233
   76SLPC  H17R 6874   5.209   6.578   8.764 -1.3704  1.2131  0.4957
   76SLPC  H17S 6875   5.227   6.741   8.687  0.1363  0.2550  0.6662
   76SLPC  C218 6876   5.406   6.669   8.782  0.5412  0.0613  0.6772
   76SLPC  H18R 6877   5.388   6.720   8.879  3.2331 -0.1177  1.3444
   76SLPC  H18S 6878   5.475   6.737   8.727 -1.2440 -0.9713 -3.2252
   76SLPC  H18T 6879   5.456   6.575   8.813  2.9029  0.8910 -0.4117
   76SLPC   C33 6880   4.553   6.987   6.924 -0.3646 -0.1215  0.1788
   76SLPC   H3X 6881   4.508   6.889   6.898 -1.6813  0.2390  1.0349
   76SLPC   H3Y 6882   4.476   7.060   6.955  0.1563  1.2341 -1.5775
   76SLPC   C34 6883   4.662   6.976   7.040 -0.2580  0.0775  0.5393
   76SLPC   H4X 6884   4.710   7.075   7.052  0.9210 -0.1762 -1.6367
   76SLPC   H4Y 6885   4.743   6.904   7.014  0.1106  0.8922 -0.6293
   76SLPC   C35 6886   4.599   6.953   7.178  0.0097 -0.5412  0.5533
   76SLPC   H5X 6887   4.550   6.854   7.168  0.8125 -1.0108  1.1482
   76SLPC   H5Y 6888   4.532   7.040   7.196 -0.6579 -0.5087 -1.7797
   76SLPC   C36 6889   4.703   6.953   7.294 -0.6445  0.3696 -0.4083
   76SLPC   H6X 6890   4.764   7.046   7.299 -0.2862  0.0857  2.1998
   76SLPC   H6Y 6891   4.777   6.876   7.265 -1.0939 -0.4848  0.6437
   76SLPC   C37 6892   4.638   6.913   7.425  0.2852 -0.4213 -0.2855
   76SLPC   H7X 6893   4.604   6.808   7.409  0.1347 -0.1402 -1.9961
   76SLPC   H7Y 6894   4.559   6.982   7.460  1.0873 -0.0555  0.8554
   76SLPC   C38 6895   4.746   6.912   7.543 -0.2942  0.5928 -0.2870
   76SLPC   H8X 6896   4.808   7.005   7.538  0.0465  0.5973  2.3648
   76SLPC   H8Y 6897   4.814   6.825   7.532  0.2475  0.9755 -0.0057
   76SLPC   C39 6898   4.673   6.900   7.677 -0.4732 -0.6448  0.2094
   76SLPC   H9X 6899   4.605   6.813   7.665  0.7286 -1.4827 -0.7870
   76SLPC   H9Y 6900   4.613   6.991   7.697  0.5688  0.0615  0.2143
   76SLPC  C310 6901   4.758   6.883   7.803 -0.2334  0.0935 -0.0735
   76SLPC  H10X 6902   4.838   6.959   7.815 -0.7650  0.6857 -0.2686
   76SLPC  H10Y 6903   4.815   6.788   7.792  0.1602  0.5832 -3.1210
   76SLPC  C311 6904   4.676   6.876   7.936 -0.3947  0.2309 -0.6278
   76SLPC  H11X 6905   4.575   6.846   7.901  0.3869 -0.2016 -2.7111
   76SLPC  H11Y 6906   4.658   6.980   7.973 -1.4645 -0.2153  0.1610
   76SLPC  C312 6907   4.745   6.800   8.049 -0.5743 -0.2169  0.0048
   76SLPC  H12X 6908   4.828   6.860   8.092 -0.2753 -0.2096 -0.5682
   76SLPC  H12Y 6909   4.800   6.715   8.003  1.3834  1.0289 -0.0660
   76SLPC  C313 6910   4.659   6.728   8.151 -0.3001 -0.4082 -1.0751
   76SLPC  H13X 6911   4.564   6.705   8.097 -1.0608 -0.6019  0.2937
   76SLPC  H13Y 6912   4.618   6.791   8.233  0.0021  1.1726 -2.0925
   76SLPC  C314 6913   4.735   6.608   8.200 -0.7995 -0.0116 -0.3686
   76SLPC  H14X 6914   4.843   6.624   8.216 -1.1350  2.1104  0.0990
   76SLPC  H14Y 6915   4.709   6.530   8.125 -0.2124  0.1039 -0.6931
   76SLPC  C315 6916   4.694   6.557   8.336  0.6274 -0.4729  0.2352
   76SLPC  H15X 6917   4.699   6.447   8.340 -0.8935 -0.6311 -1.1973
   76SLPC  H15Y 6918   4.591   6.591   8.359  1.0804  3.9012 -2.8763
   76SLPC  C316 6919   4.781   6.606   8.448 -0.1128  0.8668 -0.2949
   76SLPC  H16X 6920   4.783   6.717   8.456  0.5036  0.7516  1.6319
   76SLPC  H16Y 6921   4.879   6.559   8.425 -0.1702 -0.8152  2.4613
   76SLPC  C317 6922   4.753   6.562   8.595 -0.7325  0.5642 -0.3450
   76SLPC  H17X 6923   4.845   6.581   8.654 -1.1974 -0.4284  0.7539
   76SLPC  H17Y 6924   4.725   6.455   8.605  1.8781 -0.1556  0.1123
   76SLPC  C318 6925   4.641   6.639   8.664 -0.3450 -0.4463  0.3252
   76SLPC  H18X 6926   4.546   6.625   8.609  0.0291  0.7105 -0.6471
   76SLPC  H18Y 6927   4.654   6.749   8.677 -1.7201 -0.2993  0.5997
   76SLPC  H18Z 6928   4.627   6.603   8.769 -1.1604 -0.6627  0.1513
   77SLPC     N 6929   2.844   5.818   5.928  0.8718  0.3860  0.4746
   77SLPC   C13 6930   2.951   5.907   5.873 -0.5624  0.6377 -0.0524
   77SLPC  H13A 6931   2.915   5.990   5.813 -1.5850  1.2232  1.3051
   77SLPC  H13B 6932   3.020   5.945   5.948  1.5126 -0.4419 -1.3398
   77SLPC  H13C 6933   3.030   5.854   5.823 -1.0560  0.0064 -0.1675
   77SLPC   C14 6934   2.913   5.698   5.978 -0.3899  0.0270 -0.5457
   77SLPC  H14A 6935   2.945   5.640   5.893 -2.3614 -0.2090 -1.1919
   77SLPC  H14B 6936   3.001   5.712   6.038 -0.0459 -0.5774 -0.9047
   77SLPC  H14C 6937   2.846   5.643   6.043 -0.0893  0.4313  0.1260
   77SLPC   C15 6938   2.753   5.767   5.815 -0.2902 -0.1344 -0.6494
   77SLPC  H15A 6939   2.731   5.856   5.757  0.4919 -0.8465 -2.1154
   77SLPC  H15B 6940   2.810   5.695   5.758  1.0392 -1.0435  1.7139
   77SLPC  H15C 6941   2.668   5.710   5.848 -0.0672 -2.5228 -3.7216
   77SLPC   C12 6942   2.768   5.897   6.032  0.0436 -0.2526 -0.2503
   77SLPC  H12A 6943   2.684   5.839   6.067 -0.3527 -0.7701 -1.9488
   77SLPC  H12B 6944   2.732   5.987   5.984 -1.1374 -0.4635  0.2032
   77SLPC   C11 6945   2.856   5.936   6.160  0.5027  0.1484 -0.1388
   77SLPC  H11A 6946   2.811   6.017   6.222 -0.9828 -1.4541  0.9867
   77SLPC  H11B 6947   2.946   5.978   6.110 -0.8984  1.5415 -1.6387
   77SLPC     P 6948   2.772   5.742   6.310 -0.2500 -0.4566 -0.3470
   77SLPC   O13 6949   2.675   5.833   6.375 -0.2398 -0.2935  0.6639
   77SLPC   O14 6950   2.724   5.636   6.224  0.7899 -0.0404  0.3762
   77SLPC   O12 6951   2.892   5.824   6.237 -0.2068  0.0413 -0.7275
   77SLPC   O11 6952   2.858   5.668   6.422  0.1405  0.1682 -0.7101
   77SLPC    C1 6953   2.962   5.574   6.385 -0.2109 -0.5243  0.3817
   77SLPC    HA 6954   2.963   5.564   6.274 -3.1629 -0.2672  0.2659
   77SLPC    HB 6955   3.061   5.615   6.415  0.1528 -1.2715  0.2614
   77SLPC    C2 6956   2.926   5.445   6.456  0.0940  0.2472 -0.4162
   77SLPC    HS 6957   2.824   5.430   6.414 -0.3663 -0.5783  0.9172
   77SLPC   O21 6958   2.933   5.474   6.599  0.4346  0.6733  0.5152
   77SLPC   C21 6959   2.834   5.411   6.671 -0.9790  0.0862  0.1727
   77SLPC   O22 6960   2.736   5.362   6.621 -0.4454  0.4410 -0.8558
   77SLPC   C22 6961   2.874   5.427   6.819 -0.3694  0.3072 -0.0115
   77SLPC   H2R 6962   2.945   5.343   6.837 -0.2724  0.8560  2.3945
   77SLPC   H2S 6963   2.927   5.524   6.832 -0.4934  0.6860 -1.9891
   77SLPC    C3 6964   3.023   5.327   6.412  0.1490  0.3287 -0.0311
   77SLPC    HX 6965   3.124   5.357   6.445  0.2756 -1.1625  1.0385
   77SLPC    HY 6966   3.015   5.308   6.303 -1.3968 -2.1446  0.4206
   77SLPC   O31 6967   2.977   5.200   6.473 -0.7087  0.2697  0.5440
   77SLPC   C31 6968   3.064   5.095   6.447 -0.6099  0.5220 -0.7133
   77SLPC   O32 6969   3.168   5.105   6.384 -0.0919 -0.2668 -0.9503
   77SLPC   C32 6970   3.008   4.962   6.502  0.0651 -0.4327 -0.0037
   77SLPC   H2X 6971   3.101   4.919   6.545  0.7172  1.7196  0.8957
   77SLPC   H2Y 6972   2.980   4.894   6.419  2.5207 -1.4933 -0.0569
   77SLPC   C23 6973   2.750   5.411   6.908 -0.4218 -0.5705  0.2388
   77SLPC   H3R 6974   2.690   5.326   6.870 -1.3592  0.4867 -0.7095
   77SLPC   H3S 6975   2.687   5.501   6.896 -0.0993 -0.2909  0.6116
   77SLPC   C24 6976   2.789   5.397   7.057 -0.1303  0.5400  0.1793
   77SLPC   H4R 6977   2.851   5.306   7.070 -0.5712 -0.3713 -3.1521
   77SLPC   H4S 6978   2.690   5.386   7.107 -0.5478  0.5583 -0.6247
   77SLPC   C25 6979   2.848   5.525   7.111  0.2678  0.4394  0.0853
   77SLPC   H5R 6980   2.795   5.614   7.072 -1.9878 -1.3009 -1.0856
   77SLPC   H5S 6981   2.957   5.530   7.088  0.4920 -0.2365  0.9597
   77SLPC   C26 6982   2.833   5.547   7.257 -0.0936  1.2528  0.3914
   77SLPC   H6R 6983   2.727   5.555   7.286  0.3104  3.3127  1.5110
   77SLPC   H6S 6984   2.880   5.645   7.282 -1.3806  1.7365  1.0318
   77SLPC   C27 6985   2.902   5.428   7.335  0.3312 -0.2190 -0.1813
   77SLPC   H7R 6986   3.008   5.424   7.303  0.4398  0.8670 -0.0020
   77SLPC   H7S 6987   2.857   5.336   7.293 -0.1772 -0.2193  0.3518
   77SLPC   C28 6988   2.878   5.435   7.489  0.9679 -0.0123 -0.3005
   77SLPC   H8R 6989   2.870   5.334   7.534  2.8411  0.2976  0.8466
   77SLPC   H8S 6990   2.779   5.482   7.506  1.0178  0.4980 -1.2964
   77SLPC   C29 6991   2.985   5.511   7.559  0.4634 -0.0029 -0.0468
   77SLPC   H9R 6992   3.019   5.599   7.502 -2.7216  1.1826 -0.3182
   77SLPC  C210 6993   3.045   5.473   7.672 -0.4845 -0.5044 -0.5150
   77SLPC  H10R 6994   3.116   5.542   7.721 -2.7458  0.5115  1.5380
   77SLPC  C211 6995   3.015   5.340   7.748 -0.0189  0.8873 -0.3216
   77SLPC  H11R 6996   3.074   5.261   7.698  0.2259  0.0514  1.2313
   77SLPC  H11S 6997   2.911   5.305   7.732 -0.0979  1.6170 -1.4700
   77SLPC  C212 6998   3.047   5.355   7.899  0.1949  0.2434  0.8164
   77SLPC  H12R 6999   2.970   5.410   7.955 -1.6688  0.2889 -1.6295
   77SLPC  C213 7000   3.160   5.318   7.955  0.2901  0.1527 -0.5106
   77SLPC  H13R 7001   3.161   5.333   8.064 -1.7053  0.4536 -0.5056
   77SLPC  C214 7002   3.292   5.248   7.903  0.2320 -0.5814  0.1974
   77SLPC  H14R 7003   3.382   5.300   7.942  0.7503 -0.0774 -1.5806
   77SLPC  H14S 7004   3.294   5.258   7.792  0.0305 -1.9594  0.0505
   77SLPC  C215 7005   3.300   5.099   7.938 -0.2457  0.8280  0.1586
   77SLPC  H15R 7006   3.387   5.045   7.894 -1.3071 -0.5993 -0.2756
   77SLPC  H15S 7007   3.215   5.050   7.886  0.8157  0.6117 -1.4362
   77SLPC  C216 7008   3.286   5.084   8.089 -0.7441 -0.4466  0.3430
   77SLPC  H16R 7009   3.199   5.135   8.136 -2.5336 -1.2907 -1.8555
   77SLPC  H16S 7010   3.373   5.132   8.138 -0.0450  1.5238 -2.6290
   77SLPC  C217 7011   3.302   4.936   8.125 -0.2360 -0.6678 -0.3031
   77SLPC  H17R 7012   3.398   4.890   8.094 -0.3256 -1.9228  1.1773
   77SLPC  H17S 7013   3.229   4.863   8.083  0.4387  0.0115 -2.8668
   77SLPC  C218 7014   3.291   4.926   8.279 -0.4657  0.3098  0.1625
   77SLPC  H18R 7015   3.351   5.007   8.327 -2.4756  1.5053  0.7647
   77SLPC  H18S 7016   3.319   4.823   8.310  0.6622  0.4525 -0.3069
   77SLPC  H18T 7017   3.183   4.941   8.301 -0.2829  1.0303  0.6277
   77SLPC   C33 7018   2.885   4.977   6.603 -0.2790 -0.1729  0.3502
   77SLPC   H3X 7019   2.830   4.882   6.588 -0.1388  0.1724 -3.2065
   77SLPC   H3Y 7020   2.812   5.053   6.568  0.9883  1.2377  0.6416
   77SLPC   C34 7021   2.919   4.986   6.750  0.0032 -0.0473 -0.2014
   77SLPC   H4X 7022   2.966   5.083   6.780  0.5096  0.0358 -1.2101
   77SLPC   H4Y 7023   2.986   4.907   6.789  1.4548  0.9525 -0.5578
   77SLPC   C35 7024   2.791   4.980   6.831  1.1737 -0.3609  0.0458
   77SLPC   H5X 7025   2.743   4.884   6.803 -2.7223  1.6376 -0.9269
   77SLPC   H5Y 7026   2.722   5.059   6.793 -1.0711 -1.9490  0.6222
   77SLPC   C36 7027   2.805   4.995   6.981 -0.1589 -0.1766 -0.0974
   77SLPC   H6X 7028   2.841   5.099   6.995 -0.2464 -0.1844  0.2082
   77SLPC   H6Y 7029   2.891   4.932   7.013  1.6822  1.2774 -1.9098
   77SLPC   C37 7030   2.680   4.972   7.066 -0.0962  0.8040 -0.0125
   77SLPC   H7X 7031   2.675   4.862   7.086 -0.1445  0.9176  0.6004
   77SLPC   H7Y 7032   2.584   4.992   7.015 -1.3827 -1.6555  1.2542
   77SLPC   C38 7033   2.686   5.041   7.207  0.6989  0.0531  0.2844
   77SLPC   H8X 7034   2.588   5.030   7.258  1.1688  0.8521  1.4138
   77SLPC   H8Y 7035   2.702   5.150   7.191 -0.8739  0.1975 -0.4913
   77SLPC   C39 7036   2.805   4.978   7.280  0.3591  0.0466  0.0812
   77SLPC   H9X 7037   2.900   4.990   7.224  0.4819 -1.8818 -0.1843
   77SLPC   H9Y 7038   2.785   4.870   7.291 -0.8070  0.2460  0.0287
   77SLPC  C310 7039   2.817   5.039   7.425 -0.5327  0.0833  0.5632
   77SLPC  H10X 7040   2.758   5.133   7.426 -1.2265 -0.3293  1.9666
   77SLPC  H10Y 7041   2.926   5.055   7.440 -0.4549  0.2578 -0.1898
   77SLPC  C311 7042   2.770   4.958   7.545 -0.4053 -0.0506 -0.3744
   77SLPC  H11X 7043   2.829   4.863   7.545  0.3339  0.3489  1.8183
   77SLPC  H11Y 7044   2.660   4.942   7.551 -0.5722  1.5808  2.7651
   77SLPC  C312 7045   2.827   5.022   7.670  0.0800 -0.3739  0.0600
   77SLPC  H12X 7046   2.773   5.117   7.692 -2.1130 -2.2637  3.8870
   77SLPC  H12Y 7047   2.938   5.018   7.660  0.0324 -2.3882 -0.1345
   77SLPC  C313 7048   2.810   4.931   7.799  0.7533 -0.0999  0.3771
   77SLPC  H13X 7049   2.859   4.835   7.770 -2.0153 -1.4000 -0.3146
   77SLPC  H13Y 7050   2.702   4.916   7.818  0.0922  3.7573  0.4455
   77SLPC  C314 7051   2.869   4.991   7.932 -0.2880  0.6810  0.1302
   77SLPC  H14X 7052   2.840   5.098   7.941 -1.3479  0.3561  0.6656
   77SLPC  H14Y 7053   2.980   4.988   7.927 -0.3294 -0.5989 -0.2957
   77SLPC  C315 7054   2.825   4.921   8.061 -0.2515 -0.1033 -0.3160
   77SLPC  H15X 7055   2.873   4.822   8.074 -1.0439 -0.6848 -1.6725
   77SLPC  H15Y 7056   2.716   4.900   8.062  0.2953 -3.6554 -1.4704
   77SLPC  C316 7057   2.862   5.006   8.187  0.0204 -0.2832  0.8786
   77SLPC  H16X 7058   2.834   5.110   8.159  1.0494 -0.0798  0.5419
   77SLPC  H16Y 7059   2.972   5.004   8.206  0.1985 -1.8130 -0.1637
   77SLPC  C317 7060   2.797   4.957   8.314  0.1002  0.5301 -0.0010
   77SLPC  H17X 7061   2.846   4.992   8.407  1.5319 -0.9893 -0.1588
   77SLPC  H17Y 7062   2.801   4.846   8.310  0.4504  0.5702 -1.5635
   77SLPC  C318 7063   2.654   5.004   8.324  0.0988 -0.3767  0.3377
   77SLPC  H18X 7064   2.585   4.968   8.245 -2.7572  1.6659  1.6982
   77SLPC  H18Y 7065   2.648   5.115   8.322 -1.0215 -0.3706 -3.0989
   77SLPC  H18Z 7066   2.596   4.974   8.413 -1.8470  1.6708 -0.1280
   78SLPC     N 7067   5.743   1.739   5.912  0.2708  0.2434 -0.1236
   78SLPC   C13 7068   5.635   1.740   5.806  0.6514 -0.8727 -0.0562
   78SLPC  H13A 7069   5.617   1.841   5.773 -0.4282 -0.8448  0.5578
   78SLPC  H13B 7070   5.656   1.686   5.715  0.4898  1.4357 -1.5366
   78SLPC  H13C 7071   5.545   1.697   5.846  0.2529  0.0166  0.0155
   78SLPC   C14 7072   5.704   1.834   6.030  0.2906  0.4042  0.4186
   78SLPC  H14A 7073   5.791   1.846   6.094 -0.6563  0.2548  1.7830
   78SLPC  H14B 7074   5.665   1.928   5.996 -1.5236 -0.4858 -0.0718
   78SLPC  H14C 7075   5.628   1.784   6.088  0.7379 -0.2724  0.4376
   78SLPC   C15 7076   5.870   1.781   5.854 -0.3600  0.1330  0.0864
   78SLPC  H15A 7077   5.950   1.767   5.925 -1.5978  1.3329  1.7919
   78SLPC  H15B 7078   5.889   1.719   5.768 -0.3053 -0.2937  0.4027
   78SLPC  H15C 7079   5.868   1.883   5.818  1.3150  0.1479 -0.0380
   78SLPC   C12 7080   5.750   1.603   5.965 -0.4430  0.9831 -0.6780
   78SLPC  H12A 7081   5.838   1.584   6.025 -0.5280 -0.8210 -1.0687
   78SLPC  H12B 7082   5.773   1.542   5.879  1.3419 -0.8517  1.0072
   78SLPC   C11 7083   5.630   1.544   6.039  0.5974 -0.6533  0.1265
   78SLPC  H11A 7084   5.627   1.433   6.045  1.6707 -0.7331 -0.5784
   78SLPC  H11B 7085   5.537   1.563   5.980  0.0763 -0.6774  0.9199
   78SLPC     P 7086   5.743   1.562   6.277  0.4881 -0.0996 -0.0589
   78SLPC   O13 7087   5.785   1.423   6.237  0.5736 -0.3154 -0.2694
   78SLPC   O14 7088   5.850   1.671   6.280 -0.3473  0.5015 -0.4870
   78SLPC   O12 7089   5.628   1.602   6.171 -0.3095  0.4780  0.0413
   78SLPC   O11 7090   5.668   1.558   6.415  0.5819  0.8588  0.0308
   78SLPC    C1 7091   5.552   1.479   6.434  0.4488  0.6968  0.8924
   78SLPC    HA 7092   5.477   1.549   6.476  0.5089  0.9838  0.5202
   78SLPC    HB 7093   5.521   1.421   6.344  1.8119  2.0541 -0.5085
   78SLPC    C2 7094   5.585   1.380   6.544  0.6210  0.9857 -0.4068
   78SLPC    HS 7095   5.486   1.332   6.562  0.7997  0.2618 -1.2588
   78SLPC   O21 7096   5.650   1.438   6.655 -0.4788  0.5558  0.7212
   78SLPC   C21 7097   5.568   1.483   6.748 -0.2694  0.1117 -0.7695
   78SLPC   O22 7098   5.454   1.511   6.732  0.0724  0.0401 -0.4841
   78SLPC   C22 7099   5.647   1.489   6.888 -0.0050 -0.3853  0.1255
   78SLPC   H2R 7100   5.700   1.395   6.915 -1.2304 -0.7325  1.4803
   78SLPC   H2S 7101   5.723   1.565   6.862 -0.5061  0.9246  2.1990
   78SLPC    C3 7102   5.663   1.257   6.491  0.2766  0.2604 -0.3706
   78SLPC    HX 7103   5.754   1.302   6.448  0.9775  2.1820  2.7639
   78SLPC    HY 7104   5.611   1.212   6.404 -0.4835 -3.0003  1.5739
   78SLPC   O31 7105   5.699   1.155   6.584 -0.2171  0.7451  0.3548
   78SLPC   C31 7106   5.611   1.073   6.637 -0.1585  0.2029 -0.3747
   78SLPC   O32 7107   5.489   1.074   6.618 -0.1141 -0.0939 -0.0435
   78SLPC   C32 7108   5.680   0.974   6.733 -0.3173 -0.1590  0.2974
   78SLPC   H2X 7109   5.778   1.023   6.749 -1.1052  0.7326  2.8075
   78SLPC   H2Y 7110   5.685   0.874   6.684 -1.4068 -1.2986  2.3272
   78SLPC   C23 7111   5.558   1.524   7.013 -1.5289  0.2775  0.4333
   78SLPC   H3R 7112   5.513   1.625   7.000  3.1677  2.4979 -0.8457
   78SLPC   H3S 7113   5.623   1.547   7.100 -0.2590  1.2116 -0.7159
   78SLPC   C24 7114   5.460   1.415   7.059 -0.4836  0.1931 -0.0335
   78SLPC   H4R 7115   5.517   1.321   7.072 -0.3624  0.1958 -0.4989
   78SLPC   H4S 7116   5.379   1.407   6.983 -0.6883 -1.7411  0.3525
   78SLPC   C25 7117   5.409   1.441   7.204 -0.2192 -0.0375 -0.5912
   78SLPC   H5R 7118   5.354   1.537   7.204  0.3498  0.2923 -0.6618
   78SLPC   H5S 7119   5.505   1.453   7.258 -0.0552 -1.2656 -0.5795
   78SLPC   C26 7120   5.326   1.325   7.258 -0.0928 -1.1399 -0.0833
   78SLPC   H6R 7121   5.375   1.225   7.248 -0.6676 -1.4144 -0.1491
   78SLPC   H6S 7122   5.232   1.319   7.200  0.1056 -1.8160 -0.3418
   78SLPC   C27 7123   5.278   1.351   7.408 -0.8176  0.3147  0.4149
   78SLPC   H7R 7124   5.226   1.258   7.440  2.1011 -1.2796  0.9558
   78SLPC   H7S 7125   5.196   1.425   7.399 -0.4755  0.7335  0.7128
   78SLPC   C28 7126   5.386   1.395   7.510 -0.3865 -0.1678 -0.7041
   78SLPC   H8R 7127   5.327   1.414   7.603 -2.0009  0.1568 -1.7431
   78SLPC   H8S 7128   5.428   1.496   7.488  0.5593  0.0364  1.7309
   78SLPC   C29 7129   5.506   1.297   7.535  0.3129 -0.1145 -0.0022
   78SLPC   H9R 7130   5.598   1.306   7.476  0.6366 -1.7105  0.1989
   78SLPC  C210 7131   5.519   1.207   7.634  0.5714  0.1397 -0.2185
   78SLPC  H10R 7132   5.608   1.144   7.646 -1.2473 -2.6279 -0.4022
   78SLPC  C211 7133   5.416   1.165   7.738  0.1246 -0.0625  0.1249
   78SLPC  H11R 7134   5.359   1.081   7.693  2.3662  0.4180 -4.1898
   78SLPC  H11S 7135   5.335   1.240   7.750 -0.4663 -0.6730  0.0355
   78SLPC  C212 7136   5.458   1.104   7.869 -0.3630  0.0076  0.3655
   78SLPC  H12R 7137   5.456   0.995   7.880  0.9179 -0.0314  0.3258
   78SLPC  C213 7138   5.517   1.178   7.963  0.1399  0.2302 -0.0425
   78SLPC  H13R 7139   5.557   1.134   8.055  3.6299 -0.7202 -1.8412
   78SLPC  C214 7140   5.545   1.325   7.968  0.0236  0.0825 -0.2314
   78SLPC  H14R 7141   5.517   1.369   7.871  0.9762 -0.7421 -0.9026
   78SLPC  H14S 7142   5.656   1.330   7.972  0.0063 -0.0213  1.2044
   78SLPC  C215 7143   5.495   1.400   8.093  0.2853  0.5083  1.1935
   78SLPC  H15R 7144   5.506   1.509   8.076  1.4973  0.4071  1.2480
   78SLPC  H15S 7145   5.544   1.360   8.184  0.8390 -1.9611 -0.0721
   78SLPC  C216 7146   5.345   1.372   8.125  0.2048  0.3032 -0.1263
   78SLPC  H16R 7147   5.319   1.265   8.127  3.6303 -0.6530  0.4477
   78SLPC  H16S 7148   5.283   1.429   8.052 -1.3860 -2.2266 -0.8394
   78SLPC  C217 7149   5.303   1.430   8.264 -0.2679  0.2766 -0.4910
   78SLPC  H17R 7150   5.340   1.535   8.272  3.1496 -0.9178  0.9049
   78SLPC  H17S 7151   5.352   1.378   8.349 -0.9880 -0.1854 -0.3470
   78SLPC  C218 7152   5.154   1.440   8.286 -0.0632  0.1804  0.4740
   78SLPC  H18R 7153   5.108   1.524   8.229  1.1335  1.0993  0.8201
   78SLPC  H18S 7154   5.139   1.455   8.395  1.4900 -2.7811  1.1822
   78SLPC  H18T 7155   5.111   1.341   8.258  0.5722  0.0729 -0.1486
   78SLPC   C33 7156   5.617   0.957   6.876 -0.4833  0.4781  0.0575
   78SLPC   H3X 7157   5.660   0.880   6.943 -0.1038  3.3984  3.4308
   78SLPC   H3Y 7158   5.507   0.941   6.874 -0.4753  0.4138  0.1362
   78SLPC   C34 7159   5.641   1.088   6.964  0.0243  0.5822 -0.0507
   78SLPC   H4X 7160   5.595   1.179   6.922  0.2233  0.6077 -0.2120
   78SLPC   H4Y 7161   5.751   1.104   6.966 -0.1285  1.9463 -1.3605
   78SLPC   C35 7162   5.582   1.077   7.117 -0.3012 -0.7459  0.4610
   78SLPC   H5X 7163   5.471   1.080   7.108 -0.4299 -1.1479  1.6884
   78SLPC   H5Y 7164   5.609   1.167   7.176 -0.3050  1.3653 -2.5473
   78SLPC   C36 7165   5.620   0.952   7.195 -0.0483  0.2550  0.2459
   78SLPC   H6X 7166   5.728   0.929   7.183  0.1219  0.7992  0.6719
   78SLPC   H6Y 7167   5.567   0.864   7.154 -2.5237  1.6363  0.3199
   78SLPC   C37 7168   5.590   0.969   7.343  0.6050 -0.3480 -0.3961
   78SLPC   H7X 7169   5.481   0.979   7.366  1.0701  0.7692  1.5269
   78SLPC   H7Y 7170   5.641   1.059   7.384  1.2873 -0.3424 -1.2548
   78SLPC   C38 7171   5.639   0.845   7.428  0.7174 -0.2887  0.2853
   78SLPC   H8X 7172   5.750   0.843   7.415  0.7997  0.2302  0.8234
   78SLPC   H8Y 7173   5.607   0.754   7.373  1.7809 -0.6090  0.1767
   78SLPC   C39 7174   5.604   0.841   7.570 -0.6256  0.7446 -0.2408
   78SLPC   H9X 7175   5.496   0.864   7.582 -1.0820 -2.0055  1.7780
   78SLPC   H9Y 7176   5.664   0.919   7.623 -1.1523  2.9587 -2.6810
   78SLPC  C310 7177   5.630   0.705   7.635  0.2202  0.6906  0.3193
   78SLPC  H10X 7178   5.731   0.673   7.603 -2.0475 -3.8692 -3.4891
   78SLPC  H10Y 7179   5.566   0.628   7.588 -0.4091 -0.6845  3.2051
   78SLPC  C311 7180   5.618   0.712   7.790  0.6835  0.1710  0.1306
   78SLPC  H11X 7181   5.588   0.611   7.827 -0.3932  0.5490  0.3295
   78SLPC  H11Y 7182   5.536   0.782   7.818  0.6066 -0.4446  1.4947
   78SLPC  C312 7183   5.749   0.757   7.861 -0.0860 -0.4874  0.1847
   78SLPC  H12X 7184   5.779   0.858   7.825  1.0000 -1.0869 -0.6463
   78SLPC  H12Y 7185   5.826   0.690   7.816  1.7693 -0.6298  3.3127
   78SLPC  C313 7186   5.756   0.729   8.013 -0.3860  0.5973  0.3811
   78SLPC  H13X 7187   5.739   0.621   8.034  0.8311  0.3107 -0.0194
   78SLPC  H13Y 7188   5.683   0.791   8.069  1.6060  1.8591  1.6752
   78SLPC  C314 7189   5.901   0.757   8.076 -0.2298 -0.7447 -0.2267
   78SLPC  H14X 7190   5.931   0.864   8.069 -1.0666 -0.4333  0.7719
   78SLPC  H14Y 7191   5.978   0.689   8.034 -0.9331 -1.9320  0.3459
   78SLPC  C315 7192   5.899   0.729   8.228 -0.0840  0.6964 -0.2590
   78SLPC  H15X 7193   5.831   0.804   8.275  0.1668  0.5564  0.3459
   78SLPC  H15Y 7194   6.002   0.756   8.258  0.2527  0.1794 -0.9272
   78SLPC  C316 7195   5.895   0.580   8.257  0.0580 -0.0631 -0.2306
   78SLPC  H16X 7196   5.972   0.536   8.190  1.1907 -0.8513  1.5093
   78SLPC  H16Y 7197   5.800   0.527   8.235  1.2867 -3.0450  1.0572
   78SLPC  C317 7198   5.932   0.545   8.398 -0.2828 -0.2330 -0.3077
   78SLPC  H17X 7199   5.900   0.439   8.403  0.5920 -0.5200 -0.6353
   78SLPC  H17Y 7200   5.879   0.609   8.472  0.4933  0.4801 -0.3418
   78SLPC  C318 7201   6.078   0.561   8.429  0.1150  0.0920 -0.6745
   78SLPC  H18X 7202   6.115   0.532   8.529  0.5761  4.7905  0.7772
   78SLPC  H18Y 7203   6.091   0.671   8.425 -1.4144  0.3112 -0.2549
   78SLPC  H18Z 7204   6.135   0.520   8.342 -1.3471 -0.5266 -1.3834
   79SLPC     N 7205   0.035   1.172   6.311 -0.3206 -0.3351  1.0569
   79SLPC   C13 7206   0.056   1.054   6.213 -0.2439  0.0277 -0.4254
   79SLPC  H13A 7207   0.161   1.027   6.214 -0.2355 -0.0566 -1.7159
   79SLPC  H13B 7208  -0.008   0.973   6.245  3.3800 -2.8644  0.2617
   79SLPC  H13C 7209   0.056   1.086   6.110  1.0589 -0.3641 -0.5751
   79SLPC   C14 7210  -0.102   1.231   6.295  0.1034  0.5402  0.2715
   79SLPC  H14A 7211  -0.172   1.162   6.340  0.6347  1.0445  1.9321
   79SLPC  H14B 7212  -0.117   1.324   6.348  1.0685  0.4562  0.7155
   79SLPC  H14C 7213  -0.130   1.241   6.191 -0.5667  0.7266  0.4667
   79SLPC   C15 7214   0.142   1.281   6.270 -0.5996 -0.0198 -0.8980
   79SLPC  H15A 7215   0.243   1.243   6.268 -0.2528  0.8479 -0.3095
   79SLPC  H15B 7216   0.134   1.318   6.169  2.4324 -0.4390 -1.4019
   79SLPC  H15C 7217   0.136   1.364   6.339 -1.3162  0.4620 -1.5365
   79SLPC   C12 7218   0.068   1.140   6.449 -0.1433 -0.2939  0.5763
   79SLPC  H12A 7219   0.050   1.225   6.512  0.2057 -1.2612  2.0285
   79SLPC  H12B 7220   0.175   1.122   6.450 -0.2414 -1.6806 -2.3095
   79SLPC   C11 7221   0.002   1.013   6.499 -0.0246 -1.0015 -0.4430
   79SLPC  H11A 7222  -0.107   1.014   6.476  0.0593 -0.0888 -0.8312
   79SLPC  H11B 7223   0.006   1.018   6.610  0.6566  0.8680 -0.5121
   79SLPC     P 7224   0.012   0.740   6.473 -0.1885  0.1852 -0.5548
   79SLPC   O13 7225  -0.125   0.734   6.423 -0.6041  0.1389 -0.3556
   79SLPC   O14 7226   0.112   0.661   6.401 -0.0316  0.0261 -0.5200
   79SLPC   O12 7227   0.066   0.894   6.458  0.5777 -0.3848 -0.6229
   79SLPC   O11 7228   0.011   0.706   6.628  0.2192 -0.8929  0.4818
   79SLPC    C1 7229   0.129   0.657   6.689  0.0877 -0.0375  0.9994
   79SLPC    HA 7230   0.139   0.549   6.666 -0.7942 -0.5583  2.8260
   79SLPC    HB 7231   0.220   0.707   6.649 -0.7860  0.7592 -0.0400
   79SLPC    C2 7232   0.126   0.699   6.841 -0.1847  0.4862 -0.0466
   79SLPC    HS 7233   0.225   0.666   6.878 -0.8266 -1.3711  0.1454
   79SLPC   O21 7234   0.021   0.632   6.914  0.6270  0.1397  0.2803
   79SLPC   C21 7235   0.044   0.497   6.927 -0.3627 -0.8530 -0.2762
   79SLPC   O22 7236   0.132   0.436   6.873  0.3693 -0.2076  0.4919
   79SLPC   C22 7237  -0.069   0.433   7.004 -0.5091 -0.3601  0.4096
   79SLPC   H2R 7238  -0.156   0.498   7.027  0.6010  1.5045 -0.4630
   79SLPC   H2S 7239  -0.099   0.346   6.941  3.9814 -0.1697 -2.3962
   79SLPC    C3 7240   0.137   0.850   6.880  0.0439 -0.2453  0.4496
   79SLPC    HX 7241   0.051   0.898   6.829  0.8300  0.7646  0.0287
   79SLPC    HY 7242   0.235   0.899   6.856  0.8730 -1.3067  1.5519
   79SLPC   O31 7243   0.104   0.862   7.019  0.1946 -0.5467  0.0197
   79SLPC   C31 7244   0.205   0.880   7.108  0.5028 -0.0567 -0.1356
   79SLPC   O32 7245   0.323   0.876   7.077 -0.0284 -0.1585  0.4815
   79SLPC   C32 7246   0.158   0.907   7.242 -0.4101 -0.1551  0.1056
   79SLPC   H2X 7247   0.129   0.808   7.284 -2.6768 -0.6426 -2.3499
   79SLPC   H2Y 7248   0.060   0.960   7.240 -1.0770 -1.2707  1.6295
   79SLPC   C23 7249  -0.018   0.370   7.137  0.2479  0.3860  0.5093
   79SLPC   H3R 7250   0.077   0.315   7.123 -1.1442 -2.6375  1.8584
   79SLPC   H3S 7251  -0.099   0.306   7.180  0.0324  0.7859  0.6997
   79SLPC   C24 7252   0.002   0.480   7.242  0.2215  0.4863  0.6736
   79SLPC   H4R 7253  -0.095   0.528   7.270  0.1348 -0.0691  1.3628
   79SLPC   H4S 7254   0.052   0.570   7.200  1.2019 -0.6939 -0.7638
   79SLPC   C25 7255   0.052   0.415   7.377  0.3990 -0.1650  0.6718
   79SLPC   H5R 7256   0.153   0.372   7.359 -0.4549 -2.4385  0.9822
   79SLPC   H5S 7257  -0.003   0.322   7.401 -0.1304  0.3357  1.4723
   79SLPC   C26 7258   0.046   0.498   7.501 -0.3060  0.5520  0.2377
   79SLPC   H6R 7259  -0.057   0.509   7.541 -0.3433 -0.0195  0.3055
   79SLPC   H6S 7260   0.087   0.601   7.488 -0.0489  0.4839  0.4835
   79SLPC   C27 7261   0.140   0.442   7.614  0.5754  0.5952  0.0907
   79SLPC   H7R 7262   0.242   0.424   7.575 -0.1921  0.8434 -2.1283
   79SLPC   H7S 7263   0.104   0.340   7.640 -0.4699  1.5741  2.8828
   79SLPC   C28 7264   0.138   0.529   7.739  0.6695 -0.1019 -0.0493
   79SLPC   H8R 7265   0.160   0.464   7.827  1.8907  1.2225  0.6615
   79SLPC   H8S 7266   0.032   0.557   7.758  0.9081  1.2872 -0.6544
   79SLPC   C29 7267   0.223   0.650   7.721 -0.4857  0.0103  0.3569
   79SLPC   H9R 7268   0.207   0.708   7.629  1.3703  0.4949  0.3109
   79SLPC  C210 7269   0.314   0.680   7.820  1.0124 -0.6916  0.6476
   79SLPC  H10R 7270   0.379   0.769   7.809 -0.4939  0.4032  0.1715
   79SLPC  C211 7271   0.336   0.604   7.950  0.2241 -0.2592  0.5333
   79SLPC  H11R 7272   0.442   0.626   7.978  1.0362 -2.9204 -0.1288
   79SLPC  H11S 7273   0.354   0.499   7.918 -0.7676 -0.0114 -0.9107
   79SLPC  C212 7274   0.243   0.620   8.071  0.2863  0.2876 -0.3250
   79SLPC  H12R 7275   0.139   0.638   8.040 -0.0255 -0.6520  0.1208
   79SLPC  C213 7276   0.272   0.599   8.201  0.8482  0.5313  0.4517
   79SLPC  H13R 7277   0.184   0.587   8.266  0.0893  0.5491 -0.5525
   79SLPC  C214 7278   0.402   0.562   8.275 -0.2137  0.2420 -1.1103
   79SLPC  H14R 7279   0.497   0.557   8.217  0.8628 -0.3156  0.6489
   79SLPC  H14S 7280   0.391   0.468   8.332 -0.2627 -0.2891 -1.9666
   79SLPC  C215 7281   0.441   0.667   8.386  0.0449  0.3384  0.2513
   79SLPC  H15R 7282   0.362   0.676   8.465 -0.0995 -2.4953  0.5152
   79SLPC  H15S 7283   0.468   0.755   8.324 -1.1600 -0.2126 -1.1102
   79SLPC  C216 7284   0.570   0.630   8.458 -0.1014 -0.6019  0.1825
   79SLPC  H16R 7285   0.650   0.628   8.381  0.1149  0.4382  0.3648
   79SLPC  H16S 7286   0.559   0.529   8.503  0.5044 -0.9815 -0.4984
   79SLPC  C217 7287   0.613   0.736   8.553  0.0989 -0.2655 -0.3062
   79SLPC  H17R 7288   0.603   0.835   8.504  2.7829  0.1624 -0.1608
   79SLPC  H17S 7289   0.720   0.733   8.581 -0.4754  0.7898  2.3571
   79SLPC  C218 7290   0.539   0.738   8.687 -0.3405 -0.2747  0.6760
   79SLPC  H18R 7291   0.582   0.816   8.754 -2.4842  1.3309  0.2874
   79SLPC  H18S 7292   0.546   0.645   8.748  3.0312  0.7336  2.0315
   79SLPC  H18T 7293   0.430   0.747   8.671 -0.0771  1.0476 -0.6012
   79SLPC   C33 7294   0.270   0.983   7.315 -0.1725  0.0828  0.3839
   79SLPC   H3X 7295   0.296   1.083   7.272  1.9091 -0.3365  0.5743
   79SLPC   H3Y 7296   0.353   0.910   7.302 -1.4631 -1.3339 -0.0834
   79SLPC   C34 7297   0.240   1.010   7.463  0.4343 -1.0107 -0.2220
   79SLPC   H4X 7298   0.216   0.909   7.501 -1.0829 -1.4310 -2.1284
   79SLPC   H4Y 7299   0.153   1.077   7.478  0.5778 -0.6899 -0.7945
   79SLPC   C35 7300   0.360   1.074   7.545  0.5018  0.3595  0.8172
   79SLPC   H5X 7301   0.400   1.167   7.497 -0.7713  0.8660  0.7064
   79SLPC   H5Y 7302   0.443   1.000   7.544  0.5067  0.3427  1.6819
   79SLPC   C36 7303   0.320   1.097   7.694 -0.1256  0.6394 -0.3704
   79SLPC   H6X 7304   0.295   0.997   7.736  1.3220  1.2080  2.0021
   79SLPC   H6Y 7305   0.232   1.164   7.706 -1.8604 -1.6711  0.5903
   79SLPC   C37 7306   0.444   1.144   7.775 -0.2290 -0.3867  0.6428
   79SLPC   H7X 7307   0.466   1.243   7.731  0.1970  0.8776  3.4367
   79SLPC   H7Y 7308   0.527   1.071   7.767 -1.3089 -1.7539  1.4546
   79SLPC   C38 7309   0.410   1.167   7.919  0.0615 -0.2990  0.3482
   79SLPC   H8X 7310   0.415   1.066   7.965 -0.3433 -0.4424  0.0921
   79SLPC   H8Y 7311   0.303   1.194   7.932 -0.2492 -0.6401 -1.2482
   79SLPC   C39 7312   0.519   1.256   7.980 -0.0890 -0.1501 -0.1141
   79SLPC   H9X 7313   0.518   1.360   7.940  1.9021  0.3272  0.9268
   79SLPC   H9Y 7314   0.623   1.221   7.962  0.0512 -0.5443  1.3089
   79SLPC  C310 7315   0.501   1.259   8.134  0.4217 -0.1674  0.3361
   79SLPC  H10X 7316   0.532   1.166   8.186 -0.1053  0.0780  1.1073
   79SLPC  H10Y 7317   0.396   1.294   8.151  1.2433  1.3036  3.0564
   79SLPC  C311 7318   0.604   1.358   8.185 -0.7784 -0.3124 -0.2075
   79SLPC  H11X 7319   0.585   1.457   8.140  1.3483  0.6291  0.8277
   79SLPC  H11Y 7320   0.706   1.350   8.141 -0.2370  1.7445  0.5678
   79SLPC  C312 7321   0.619   1.372   8.340  0.3877 -0.7765 -0.7235
   79SLPC  H12X 7322   0.626   1.268   8.380  0.4713 -0.3421  0.4488
   79SLPC  H12Y 7323   0.524   1.418   8.374  0.2569 -1.8086  0.4119
   79SLPC  C313 7324   0.742   1.456   8.383 -0.3932  1.1973  0.1022
   79SLPC  H13X 7325   0.766   1.526   8.300 -0.6359  0.6586 -0.4311
   79SLPC  H13Y 7326   0.824   1.388   8.412  0.8349  2.2915 -0.6909
   79SLPC  C314 7327   0.702   1.549   8.499  0.5884  0.5921  0.6446
   79SLPC  H14X 7328   0.677   1.498   8.594 -0.0030 -2.2993 -0.9350
   79SLPC  H14Y 7329   0.620   1.609   8.454  1.6732  1.2515 -0.5219
   79SLPC  C315 7330   0.818   1.651   8.522  0.2396 -0.1210  0.5479
   79SLPC  H15X 7331   0.863   1.674   8.423 -0.6297  0.0161  0.1790
   79SLPC  H15Y 7332   0.891   1.605   8.593  0.1401  0.2636  0.9062
   79SLPC  C316 7333   0.774   1.792   8.570  0.4738 -0.1990  0.4450
   79SLPC  H16X 7334   0.729   1.774   8.670  0.3708  1.4942  0.7347
   79SLPC  H16Y 7335   0.685   1.815   8.508 -0.9880  0.3270  2.6311
   79SLPC  C317 7336   0.877   1.910   8.566  0.4372 -0.3260 -0.3382
   79SLPC  H17X 7337   0.934   1.908   8.471  0.4467  0.6039 -0.3616
   79SLPC  H17Y 7338   0.949   1.901   8.649  1.0873 -1.0263 -0.9600
   79SLPC  C318 7339   0.803   2.035   8.592  0.3139  0.3524  0.0984
   79SLPC  H18X 7340   0.729   2.054   8.510 -0.2344 -0.1510  0.4724
   79SLPC  H18Y 7341   0.873   2.122   8.594  2.7166 -1.3819 -1.7688
   79SLPC  H18Z 7342   0.737   2.023   8.680  0.7381 -1.2317  0.2306
   80SLPC     N 7343   4.024   6.653   5.753 -0.2051  0.0644 -0.1833
   80SLPC   C13 7344   3.901   6.718   5.705 -0.5451  0.0075  0.5946
   80SLPC  H13A 7345   3.892   6.815   5.753  2.7291  2.2019 -2.6573
   80SLPC  H13B 7346   3.912   6.744   5.601 -2.6182  0.9804  0.5649
   80SLPC  H13C 7347   3.818   6.652   5.686  0.1718 -0.1113 -2.7607
   80SLPC   C14 7348   4.143   6.749   5.740 -0.1088 -0.3567 -0.0827
   80SLPC  H14A 7349   4.237   6.709   5.774  1.0876  2.9571  0.8848
   80SLPC  H14B 7350   4.154   6.783   5.638 -0.6297 -0.6087 -0.2257
   80SLPC  H14C 7351   4.126   6.830   5.809 -1.7999 -1.0792  0.4117
   80SLPC   C15 7352   4.055   6.534   5.665 -0.3369  0.5002  0.4864
   80SLPC  H15A 7353   4.146   6.488   5.699 -2.1957 -2.9336  1.2435
   80SLPC  H15B 7354   3.974   6.463   5.671  0.7311 -0.7767  0.1773
   80SLPC  H15C 7355   4.056   6.569   5.563  0.2057  1.2827  0.7552
   80SLPC   C12 7356   4.001   6.622   5.901  0.0510 -0.4334  0.9510
   80SLPC  H12A 7357   3.979   6.709   5.960 -0.9941  0.6503 -0.9481
   80SLPC  H12B 7358   4.099   6.593   5.936  0.7229 -1.3741 -1.5126
   80SLPC   C11 7359   3.898   6.513   5.940  0.2014  0.2101  0.7861
   80SLPC  H11A 7360   3.910   6.430   5.867  0.7823  1.8738 -1.0885
   80SLPC  H11B 7361   3.797   6.558   5.937  0.1306  0.0197 -0.1926
   80SLPC     P 7362   4.023   6.374   6.133 -0.0879 -0.1849 -0.4239
   80SLPC   O13 7363   3.966   6.236   6.124 -0.4677 -0.1574  0.4883
   80SLPC   O14 7364   4.161   6.394   6.076  0.0007  0.5560  0.1682
   80SLPC   O12 7365   3.908   6.467   6.075 -0.0662  0.0576 -0.0112
   80SLPC   O11 7366   4.020   6.408   6.291 -0.0211 -0.4505  0.2463
   80SLPC    C1 7367   4.071   6.536   6.332  0.1612  0.2423  0.5519
   80SLPC    HA 7368   4.181   6.525   6.347  0.3275  0.0391 -0.7477
   80SLPC    HB 7369   4.063   6.615   6.255 -0.8758  1.4379  1.8255
   80SLPC    C2 7370   4.009   6.583   6.468 -0.1002 -0.5128  0.0020
   80SLPC    HS 7371   4.084   6.651   6.515 -1.7391  1.0592  0.4448
   80SLPC   O21 7372   3.957   6.478   6.549 -0.0303 -0.4086  0.2747
   80SLPC   C21 7373   4.050   6.426   6.629  0.0286 -0.4310 -0.2724
   80SLPC   O22 7374   4.167   6.467   6.631 -0.1588  0.3757 -0.1557
   80SLPC   C22 7375   3.992   6.313   6.717 -0.0432  0.4571 -0.3245
   80SLPC   H2R 7376   3.933   6.244   6.652  1.8661  0.1673 -1.8405
   80SLPC   H2S 7377   4.087   6.259   6.739  1.3059  3.5153  1.9911
   80SLPC    C3 7378   3.901   6.679   6.437  0.5629 -0.0954  1.2633
   80SLPC    HX 7379   3.823   6.622   6.381 -0.5405  0.5351  2.1076
   80SLPC    HY 7380   3.932   6.762   6.370  0.4315 -0.9876  0.0707
   80SLPC   O31 7381   3.846   6.754   6.546  0.0733  0.3730 -0.4406
   80SLPC   C31 7382   3.743   6.693   6.604  0.4771 -0.4389 -0.1264
   80SLPC   O32 7383   3.679   6.599   6.567 -0.6356  0.1397  0.7615
   80SLPC   C32 7384   3.704   6.790   6.717  0.3385  0.7186 -0.4486
   80SLPC   H2X 7385   3.593   6.785   6.713  0.3855 -1.7773 -0.2857
   80SLPC   H2Y 7386   3.745   6.891   6.694  0.3161  0.5594 -1.2290
   80SLPC   C23 7387   3.916   6.362   6.841  0.0947 -1.2236 -0.4478
   80SLPC   H3R 7388   3.849   6.283   6.882 -1.2200 -0.3062 -0.7450
   80SLPC   H3S 7389   3.849   6.448   6.818  1.6050  0.0429 -0.3134
   80SLPC   C24 7390   4.016   6.421   6.942  0.4313 -0.2015 -0.4507
   80SLPC   H4R 7391   4.081   6.506   6.912 -0.8034  0.7938 -0.3680
   80SLPC   H4S 7392   4.094   6.341   6.950 -0.3661 -0.9991 -0.5000
   80SLPC   C25 7393   3.943   6.439   7.077  0.0525 -0.5921  0.4998
   80SLPC   H5R 7394   3.892   6.344   7.105  0.4977 -1.1519 -0.5349
   80SLPC   H5S 7395   3.862   6.512   7.055 -0.0941 -1.2153 -1.1634
   80SLPC   C26 7396   4.035   6.466   7.198  0.4079  0.0750 -0.1334
   80SLPC   H6R 7397   4.097   6.559   7.198  0.5621 -0.0258 -0.9568
   80SLPC   H6S 7398   4.105   6.381   7.215  1.2274  0.5971 -0.7933
   80SLPC   C27 7399   3.933   6.473   7.313 -0.1606 -0.5712 -0.5122
   80SLPC   H7R 7400   3.902   6.369   7.338 -3.3540  0.3475 -0.2637
   80SLPC   H7S 7401   3.846   6.536   7.287  1.0339  1.1006 -0.5987
   80SLPC   C28 7402   3.997   6.533   7.438  0.5568  0.0499 -0.5682
   80SLPC   H8R 7403   3.997   6.644   7.432 -0.6062  0.0944 -0.1545
   80SLPC   H8S 7404   4.098   6.489   7.453  0.3938 -0.2519 -0.3367
   80SLPC   C29 7405   3.895   6.524   7.553 -0.1360 -0.2798  0.0902
   80SLPC   H9R 7406   3.860   6.624   7.582  0.9277 -0.2048  1.2093
   80SLPC  C210 7407   3.832   6.422   7.614 -0.0912 -0.5648 -0.2238
   80SLPC  H10R 7408   3.749   6.443   7.684  0.9783  0.0096  0.9047
   80SLPC  C211 7409   3.844   6.276   7.594 -0.0530 -0.1963 -0.0755
   80SLPC  H11R 7410   3.853   6.230   7.695  1.6067  1.9643  0.8411
   80SLPC  H11S 7411   3.931   6.234   7.540 -0.2635 -1.7985  0.7626
   80SLPC  C212 7412   3.729   6.238   7.511  0.0037 -0.1950  0.6983
   80SLPC  H12R 7413   3.701   6.306   7.429  1.2812 -0.9652 -0.4117
   80SLPC  C213 7414   3.649   6.128   7.531  0.7897  0.5698  1.1481
   80SLPC  H13R 7415   3.570   6.107   7.457  1.4729  0.6368  0.3945
   80SLPC  C214 7416   3.672   6.023   7.635  0.4174 -0.3127 -0.0860
   80SLPC  H14R 7417   3.783   6.013   7.645  0.7628  1.1571 -1.8593
   80SLPC  H14S 7418   3.625   5.926   7.612  0.0833  0.1920 -1.6956
   80SLPC  C215 7419   3.628   6.065   7.776 -0.4878  0.4385 -0.3707
   80SLPC  H15R 7420   3.664   6.169   7.796 -0.8416  1.3532 -3.8315
   80SLPC  H15S 7421   3.663   5.994   7.854 -1.5685  0.0931 -0.1825
   80SLPC  C216 7422   3.481   6.083   7.803 -0.2760  0.3280 -0.2897
   80SLPC  H16R 7423   3.439   5.980   7.804  2.3828 -0.8673  1.6104
   80SLPC  H16S 7424   3.434   6.131   7.714  3.1012  0.8813 -1.9354
   80SLPC  C217 7425   3.445   6.156   7.936 -1.0459  0.4583  0.4075
   80SLPC  H17R 7426   3.447   6.263   7.906 -2.0019  0.3641 -0.0358
   80SLPC  H17S 7427   3.523   6.128   8.010 -1.4775 -1.2289  0.2668
   80SLPC  C218 7428   3.310   6.120   7.990 -0.1108 -0.3919 -0.5432
   80SLPC  H18R 7429   3.224   6.144   7.925 -1.5137  3.0195  2.1866
   80SLPC  H18S 7430   3.296   6.186   8.079 -0.5035 -0.2860 -0.6832
   80SLPC  H18T 7431   3.299   6.014   8.021  0.7965  0.3410  2.6402
   80SLPC   C33 7432   3.742   6.744   6.862  0.1693 -0.6596  0.0345
   80SLPC   H3X 7433   3.852   6.736   6.877 -0.0036 -0.1111  1.7520
   80SLPC   H3Y 7434   3.702   6.641   6.867  4.4476 -2.7634 -2.8282
   80SLPC   C34 7435   3.678   6.833   6.969  0.6376 -0.1311 -0.2496
   80SLPC   H4X 7436   3.644   6.758   7.043  0.2928  0.7376  0.4797
   80SLPC   H4Y 7437   3.584   6.879   6.931  1.4905  0.1453 -2.1849
   80SLPC   C35 7438   3.783   6.918   7.037 -0.7029 -0.2205  0.6354
   80SLPC   H5X 7439   3.789   7.012   6.978  0.8597 -0.0905  0.9448
   80SLPC   H5Y 7440   3.887   6.883   7.021 -0.5121  0.9641 -0.9366
   80SLPC   C36 7441   3.754   6.920   7.187 -0.6101 -0.0135 -0.3643
   80SLPC   H6X 7442   3.767   6.815   7.220 -1.1283 -0.4607 -1.5079
   80SLPC   H6Y 7443   3.646   6.943   7.202 -0.8543 -0.2573 -1.6332
   80SLPC   C37 7444   3.823   7.037   7.274 -0.5168  0.0711  0.2111
   80SLPC   H7X 7445   3.803   7.132   7.221  1.6990  1.5050  1.7579
   80SLPC   H7Y 7446   3.933   7.018   7.273 -0.1578  1.8456  1.7216
   80SLPC   C38 7447   3.776   7.042   7.416  0.3083 -0.3457 -0.3759
   80SLPC   H8X 7448   3.672   7.077   7.428  0.3700 -0.3383  0.1933
   80SLPC   H8Y 7449   3.840   7.117   7.468  2.8423 -2.5292 -0.0913
   80SLPC   C39 7450   3.791   6.912   7.488 -0.0740 -0.2074  0.1911
   80SLPC   H9X 7451   3.887   6.862   7.462 -1.7248 -2.2146 -2.5233
   80SLPC   H9Y 7452   3.716   6.843   7.445 -0.3930  0.3664 -0.1921
   80SLPC  C310 7453   3.765   6.922   7.641 -0.4204 -0.2874  0.6502
   80SLPC  H10X 7454   3.722   6.830   7.686 -2.8762  1.4264  2.0834
   80SLPC  H10Y 7455   3.690   7.003   7.655 -0.3417 -0.3474  1.5127
   80SLPC  C311 7456   3.888   6.963   7.732 -0.1020  0.5874  0.5102
   80SLPC  H11X 7457   3.924   7.065   7.710  1.3067  0.8499  3.4989
   80SLPC  H11Y 7458   3.968   6.901   7.686 -2.0076 -0.5129 -1.4758
   80SLPC  C312 7459   3.865   6.938   7.883 -0.5178  0.8658 -0.1182
   80SLPC  H12X 7460   3.958   6.965   7.936 -0.4377 -1.2574  0.9569
   80SLPC  H12Y 7461   3.851   6.833   7.918  1.1803  0.5729 -0.2276
   80SLPC  C313 7462   3.747   7.011   7.949 -0.3185 -0.1782 -0.1588
   80SLPC  H13X 7463   3.652   6.960   7.922 -0.0504 -2.5760  2.8323
   80SLPC  H13Y 7464   3.746   7.113   7.906  1.6237  0.0493  0.2672
   80SLPC  C314 7465   3.765   7.006   8.103  0.4239  0.8217 -0.7896
   80SLPC  H14X 7466   3.850   7.073   8.130  0.8386  0.6023 -1.5163
   80SLPC  H14Y 7467   3.801   6.906   8.136  3.1156  1.4547 -1.5313
   80SLPC  C315 7468   3.641   7.040   8.194 -0.5027 -1.0204 -0.1972
   80SLPC  H15X 7469   3.597   7.137   8.161  1.2839  0.8913  2.6206
   80SLPC  H15Y 7470   3.668   7.061   8.299 -3.1336  1.7085  0.0839
   80SLPC  C316 7471   3.530   6.927   8.201 -0.6689 -0.2853  0.1317
   80SLPC  H16X 7472   3.570   6.826   8.222  0.4524  0.2341  0.5726
   80SLPC  H16Y 7473   3.490   6.921   8.098 -0.0412  0.4053 -0.1589
   80SLPC  C317 7474   3.414   6.969   8.283  0.3664  0.2117 -0.5103
   80SLPC  H17X 7475   3.388   7.075   8.260 -0.6864 -0.3770 -2.1410
   80SLPC  H17Y 7476   3.440   6.971   8.391 -0.2093  2.2146 -0.3553
   80SLPC  C318 7477   3.294   6.877   8.261 -0.4700  0.3533 -0.1296
   80SLPC  H18X 7478   3.250   6.877   8.159  2.4978 -1.7231 -1.5546
   80SLPC  H18Y 7479   3.210   6.885   8.333 -0.9794  0.5575 -0.7451
   80SLPC  H18Z 7480   3.326   6.771   8.262  1.6919  0.9619 -0.0638
   81SAPS     N 7481   5.120   5.386  11.030  0.0548 -0.3859  0.3185
   81SAPS   HN1 7482   5.174   5.298  11.021 -1.4454 -1.2098 -1.2276
   81SAPS   HN2 7483   5.033   5.362  11.082 -0.2474  0.7999  0.4002
   81SAPS   HN3 7484   5.101   5.412  10.931  0.5652  0.0329  0.3180
   81SAPS   C12 7485   5.198   5.504  11.089 -0.3661 -0.3083  0.8882
   81SAPS  H12A 7486   5.144   5.594  11.062 -2.8355 -2.4811 -2.1883
   81SAPS   C13 7487   5.219   5.490  11.237 -0.3507  0.6989  0.8089
   81SAPS  O13A 7488   5.131   5.422  11.292  0.2208 -0.1073 -0.1913
   81SAPS  O13B 7489   5.292   5.573  11.293 -0.0273  0.4161  0.3019
   81SAPS   C11 7490   5.329   5.523  11.021  0.4035  0.5251  0.2058
   81SAPS  H11A 7491   5.404   5.448  11.054  0.4684  0.9966  1.1855
   81SAPS  H11B 7492   5.383   5.615  11.053  2.5760 -0.0166 -1.6733
   81SAPS     P 7493   5.450   5.519  10.785  0.1788 -0.2957 -0.4290
   81SAPS   O13 7494   5.554   5.612  10.850  0.7368 -0.2952  0.1051
   81SAPS   O14 7495   5.487   5.377  10.771  0.1213  0.0451 -0.6017
   81SAPS   O12 7496   5.324   5.530  10.876  0.1354  0.0959  0.6056
   81SAPS   O11 7497   5.399   5.587  10.649 -0.2281 -0.1863  0.2113
   81SAPS    C1 7498   5.368   5.721  10.636  0.3155  0.4675 -0.0618
   81SAPS    HA 7499   5.261   5.723  10.608 -0.1486 -0.5155  1.5024
   81SAPS    HB 7500   5.367   5.782  10.729 -1.4235 -0.8941  0.8711
   81SAPS    C2 7501   5.444   5.792  10.520 -0.0237  0.0489  0.5254
   81SAPS    HS 7502   5.393   5.885  10.485  1.8625  1.6756  1.8509
   81SAPS   O21 7503   5.462   5.701  10.414  0.4750  0.1839  0.2194
   81SAPS   C21 7504   5.360   5.684  10.339 -0.0919  0.2521  0.7387
   81SAPS   O22 7505   5.243   5.718  10.365 -0.7720  0.3581  0.6255
   81SAPS   C22 7506   5.398   5.620  10.205  0.2678 -0.1254  0.6557
   81SAPS   H2R 7507   5.504   5.586  10.214  1.6361  2.7267 -2.4000
   81SAPS   H2S 7508   5.331   5.533  10.186  0.2588 -0.4404  2.0179
   81SAPS    C3 7509   5.580   5.850  10.558 -0.2143 -0.0967 -0.1626
   81SAPS    HX 7510   5.660   5.778  10.585  1.1400  1.0266 -1.0503
   81SAPS    HY 7511   5.573   5.917  10.646  0.1976 -2.2254  1.5578
   81SAPS   O31 7512   5.622   5.929  10.450 -0.6994 -0.9837  0.4320
   81SAPS   C31 7513   5.722   5.881  10.368 -1.1265  0.3890  0.3053
   81SAPS   O32 7514   5.774   5.772  10.387 -0.4248  0.5574  0.4652
   81SAPS   C32 7515   5.756   5.977  10.257  0.3273 -0.1313  0.0213
   81SAPS   H2X 7516   5.776   6.075  10.305 -0.8189  0.7986 -1.2948
   81SAPS   H2Y 7517   5.661   6.008  10.209  0.4226  1.0469  0.5613
   81SAPS   C23 7518   5.384   5.708  10.079  0.5237  0.4702  0.3085
   81SAPS   H3R 7519   5.444   5.798  10.101  2.4074 -1.2189  2.5044
   81SAPS   H3S 7520   5.280   5.745  10.061  0.8318  0.5933 -1.4162
   81SAPS   C24 7521   5.447   5.646   9.944  1.0322  0.4728 -0.6020
   81SAPS   H4R 7522   5.557   5.639   9.957  0.9457  1.7428  1.2184
   81SAPS   H4S 7523   5.426   5.725   9.869 -2.7403 -1.3822 -1.7510
   81SAPS   C25 7524   5.391   5.513   9.901 -0.5108  0.1499 -0.0082
   81SAPS   H5R 7525   5.362   5.444   9.982  1.2028  0.4530  0.9173
   81SAPS   C26 7526   5.369   5.472   9.775  0.2458  0.6581  0.6782
   81SAPS   H6R 7527   5.342   5.368   9.752 -2.0324  1.5600 -1.1043
   81SAPS   C27 7528   5.410   5.546   9.646  0.2093 -0.2050  0.0187
   81SAPS   H7R 7529   5.505   5.509   9.602 -1.0932 -1.3133 -1.9975
   81SAPS   H7S 7530   5.421   5.654   9.670  1.3256  0.0467 -1.4764
   81SAPS   C28 7531   5.304   5.562   9.538 -0.0042  0.4584  0.2323
   81SAPS   H8R 7532   5.203   5.587   9.574  0.3541  0.4839  1.2302
   81SAPS   C29 7533   5.314   5.531   9.412 -0.5530  0.1236 -0.8589
   81SAPS   H9R 7534   5.221   5.544   9.354 -1.8038 -0.1916  0.9979
   81SAPS  C210 7535   5.442   5.487   9.351  0.1667  0.2811 -0.2143
   81SAPS  H10R 7536   5.497   5.405   9.403 -2.7844 -2.9077 -1.7162
   81SAPS  H10S 7537   5.510   5.572   9.331  0.6914 -0.3118 -1.0084
   81SAPS  C211 7538   5.410   5.425   9.218  0.4593 -0.0440 -0.5211
   81SAPS  H11R 7539   5.338   5.343   9.229 -0.0172  0.3328 -0.7826
   81SAPS  C212 7540   5.466   5.441   9.098  0.2441  0.0059 -0.4773
   81SAPS  H12R 7541   5.414   5.399   9.010 -0.6113 -3.1667  1.3761
   81SAPS  C213 7542   5.584   5.533   9.056 -0.2107  0.4552  0.2208
   81SAPS  H13R 7543   5.676   5.528   9.118 -0.4877  1.1886  0.7028
   81SAPS  H13S 7544   5.551   5.639   9.058  1.2314  0.9592 -0.7684
   81SAPS  C214 7545   5.627   5.505   8.909  0.4983 -0.1399  0.6707
   81SAPS  H14R 7546   5.674   5.410   8.882  1.7391  0.5791  0.1916
   81SAPS  C215 7547   5.598   5.593   8.808  0.1677  0.1599 -0.4473
   81SAPS  H15R 7548   5.628   5.585   8.702 -0.9938  3.3149 -1.1475
   81SAPS  C216 7549   5.528   5.725   8.825  0.5962 -0.2720  0.2231
   81SAPS  H16R 7550   5.603   5.790   8.874 -0.1631  1.2368 -0.5616
   81SAPS  H16S 7551   5.439   5.712   8.890 -0.0242 -0.2281 -0.6101
   81SAPS  C217 7552   5.480   5.797   8.697 -0.4924 -0.0247  0.5071
   81SAPS  H17R 7553   5.416   5.722   8.645 -1.4343 -0.2632  1.9436
   81SAPS  H17S 7554   5.568   5.818   8.633 -0.5746  1.3923  0.8260
   81SAPS  C218 7555   5.381   5.912   8.728 -0.1985  0.1165  0.2588
   81SAPS  H18R 7556   5.443   5.975   8.796 -0.9291 -0.8161  1.8572
   81SAPS  H18S 7557   5.283   5.880   8.769 -0.6142 -1.1476 -1.5973
   81SAPS  C219 7558   5.357   5.998   8.598  0.2083  0.0706 -0.1377
   81SAPS  H19R 7559   5.267   6.062   8.611  0.0497 -0.2579  0.3888
   81SAPS  H19S 7560   5.325   5.923   8.522 -0.5099 -1.0783  1.2587
   81SAPS  C220 7561   5.465   6.091   8.545 -0.0355 -0.1552 -0.3073
   81SAPS  H20R 7562   5.486   6.163   8.626  1.3737 -0.8261 -0.0519
   81SAPS  H20S 7563   5.428   6.154   8.461 -1.8569  1.8365  1.8475
   81SAPS  H20T 7564   5.559   6.034   8.528  0.2154  0.2853 -0.4126
   81SAPS   C33 7565   5.878   5.941  10.162 -0.1073 -0.0468 -0.3405
   81SAPS   H3X 7566   5.953   5.892  10.227  1.7304  1.5603 -1.1553
   81SAPS   H3Y 7567   5.928   6.033  10.125 -0.4675  0.9418  1.5125
   81SAPS   C34 7568   5.843   5.850  10.046  0.5003 -0.3126 -0.5455
   81SAPS   H4X 7569   5.788   5.764  10.088  3.2702 -0.8964  2.2089
   81SAPS   H4Y 7570   5.944   5.813  10.020  1.6720  0.2601  2.7376
   81SAPS   C35 7571   5.768   5.929   9.933  0.1933  0.7784 -0.4453
   81SAPS   H5X 7572   5.828   6.019   9.910 -3.5291  3.4695 -0.5298
   81SAPS   H5Y 7573   5.668   5.972   9.954 -0.3939 -0.1413 -1.2485
   81SAPS   C36 7574   5.756   5.837   9.811  0.9301  0.6195  0.2443
   81SAPS   H6X 7575   5.696   5.752   9.849  0.5667  0.9255  0.3574
   81SAPS   H6Y 7576   5.862   5.808   9.793  1.0191  0.7048  0.6302
   81SAPS   C37 7577   5.706   5.907   9.692  0.3316 -0.2046  0.3743
   81SAPS   H7X 7578   5.785   5.983   9.675  0.6034 -0.9799 -2.3904
   81SAPS   H7Y 7579   5.607   5.956   9.704  0.4010  0.3230 -0.9763
   81SAPS   C38 7580   5.709   5.810   9.571 -0.1369 -0.6687  0.8437
   81SAPS   H8X 7581   5.613   5.757   9.557 -0.6862  1.0656 -3.5709
   81SAPS   H8Y 7582   5.781   5.729   9.595 -0.7414 -1.7824 -0.9039
   81SAPS   C39 7583   5.748   5.880   9.438  0.2762  0.4993  0.3274
   81SAPS   H9X 7584   5.848   5.927   9.449  1.2524 -1.4448  0.1717
   81SAPS   H9Y 7585   5.673   5.959   9.416 -1.1995 -0.8351  0.3614
   81SAPS  C310 7586   5.751   5.773   9.332  0.0072  0.3743 -0.6540
   81SAPS  H10X 7587   5.649   5.730   9.326 -0.0147  0.5241 -1.4447
   81SAPS  H10Y 7588   5.821   5.693   9.363 -0.9170  0.2188  1.1557
   81SAPS  C311 7589   5.796   5.824   9.197 -0.1699  0.4444  0.4413
   81SAPS  H11X 7590   5.813   5.749   9.118  0.1797 -0.3016  1.2148
   81SAPS  H11Y 7591   5.898   5.865   9.211  0.2556 -0.1277 -0.9206
   81SAPS  C312 7592   5.713   5.935   9.136 -0.0903 -0.2812 -0.1127
   81SAPS  H12X 7593   5.677   6.017   9.202 -1.1757 -0.6819 -0.1796
   81SAPS  H12Y 7594   5.627   5.879   9.093 -0.3512 -0.7064  0.9363
   81SAPS  C313 7595   5.775   5.994   9.009  0.4709 -0.5730 -0.1152
   81SAPS  H13X 7596   5.769   5.912   8.935  0.4984  0.1859 -0.9685
   81SAPS  H13Y 7597   5.880   6.013   9.041  0.9368 -1.3239 -1.1667
   81SAPS  C314 7598   5.716   6.128   8.965 -0.2067  0.4478  0.0291
   81SAPS  H14X 7599   5.749   6.207   9.035 -0.3513 -0.5905  1.2976
   81SAPS  H14Y 7600   5.605   6.119   8.959 -0.0782 -0.1491 -3.0068
   81SAPS  C315 7601   5.767   6.171   8.825  0.7684  0.8947  0.6411
   81SAPS  H15X 7602   5.720   6.109   8.746 -2.0476  1.9047  1.4137
   81SAPS  H15Y 7603   5.877   6.157   8.825  0.9266  1.1823 -3.4636
   81SAPS  C316 7604   5.730   6.314   8.797 -0.1766 -0.4439  0.6267
   81SAPS  H16X 7605   5.741   6.377   8.888  0.2641 -0.4377  0.5735
   81SAPS  H16Y 7606   5.626   6.316   8.758 -0.2985 -2.2437  0.7958
   81SAPS  C317 7607   5.792   6.373   8.669 -0.0430  0.4495 -0.6923
   81SAPS  H17X 7608   5.784   6.302   8.584  1.1844  1.1027 -1.3927
   81SAPS  H17Y 7609   5.899   6.402   8.679 -0.8926  3.0190  2.1027
   81SAPS  C318 7610   5.743   6.518   8.637 -0.7064 -0.0664 -0.1015
   81SAPS  H18X 7611   5.771   6.552   8.535 -2.9225 -1.0737 -1.1023
   81SAPS  H18Y 7612   5.791   6.593   8.704 -0.2667 -0.6045  0.1946
   81SAPS  H18Z 7613   5.632   6.516   8.636 -0.7969 -0.5460  2.5305
   82SAPS     N 7614   4.287   5.538  10.997 -0.4963 -0.3595  0.0441
   82SAPS   HN1 7615   4.313   5.569  10.901  0.6170 -1.1981  0.0544
   82SAPS   HN2 7616   4.212   5.467  10.991 -2.2209  1.0207  2.9029
   82SAPS   HN3 7617   4.241   5.615  11.049  0.1973  1.1831 -1.5149
   82SAPS   C12 7618   4.404   5.497  11.082 -0.3713 -0.5521  0.5693
   82SAPS  H12A 7619   4.466   5.585  11.091 -0.7079 -0.3352  0.7714
   82SAPS   C13 7620   4.383   5.436  11.225 -0.4850  0.5056 -0.2222
   82SAPS  O13A 7621   4.267   5.419  11.262  0.1130  0.0180  0.6976
   82SAPS  O13B 7622   4.489   5.399  11.290 -0.5975 -0.4583  0.3222
   82SAPS   C11 7623   4.493   5.389  11.015  0.2405 -1.0386 -0.2105
   82SAPS  H11A 7624   4.433   5.299  10.992 -1.3206  0.1369 -0.8751
   82SAPS  H11B 7625   4.583   5.367  11.077  0.1474 -0.3505  0.1723
   82SAPS     P 7626   4.634   5.373  10.789  0.1420 -0.0246 -0.1791
   82SAPS   O13 7627   4.728   5.461  10.730  0.5723 -0.2923 -0.7270
   82SAPS   O14 7628   4.683   5.244  10.843 -0.0002 -0.0546  0.1325
   82SAPS   O12 7629   4.541   5.449  10.891 -0.4493 -0.1515  0.5017
   82SAPS   O11 7630   4.529   5.328  10.677  0.1931 -0.3777 -0.6471
   82SAPS    C1 7631   4.446   5.423  10.610  0.3781 -0.3470  0.0367
   82SAPS    HA 7632   4.344   5.379  10.608  0.6342 -0.9621 -2.8933
   82SAPS    HB 7633   4.429   5.519  10.663 -1.8514 -0.5501 -0.2076
   82SAPS    C2 7634   4.475   5.446  10.462 -0.1175  0.3008 -0.9083
   82SAPS    HS 7635   4.435   5.355  10.412 -0.2738  0.0169 -0.2657
   82SAPS   O21 7636   4.621   5.453  10.437  0.0815 -0.8899 -0.3259
   82SAPS   C21 7637   4.678   5.338  10.415  0.4867 -0.2644  0.2513
   82SAPS   O22 7638   4.620   5.235  10.382  0.0243 -0.6267  0.0219
   82SAPS   C22 7639   4.827   5.359  10.435 -0.5338 -0.2262  0.0391
   82SAPS   H2R 7640   4.867   5.433  10.362 -1.4513  0.8800  0.6311
   82SAPS   H2S 7641   4.841   5.398  10.538  1.6195 -1.3056  0.2198
   82SAPS    C3 7642   4.403   5.575  10.401 -0.0296  0.1050  0.0673
   82SAPS    HX 7643   4.431   5.667  10.456 -0.9807  0.0321  0.7099
   82SAPS    HY 7644   4.293   5.561  10.405  0.0902 -1.0600 -0.1725
   82SAPS   O31 7645   4.451   5.584  10.266  0.4027  0.8208 -0.5669
   82SAPS   C31 7646   4.403   5.496  10.177 -0.1023  0.2367 -0.4688
   82SAPS   O32 7647   4.327   5.402  10.200 -0.1220  0.5678 -0.4888
   82SAPS   C32 7648   4.461   5.524  10.039 -0.1360  0.3758  0.5977
   82SAPS   H2X 7649   4.561   5.570  10.055 -0.4089  1.0750  0.3346
   82SAPS   H2Y 7650   4.386   5.585   9.984 -0.0395  0.3074  0.3884
   82SAPS   C23 7651   4.912   5.236  10.410 -0.1372 -0.4784  0.3745
   82SAPS   H3R 7652   4.873   5.150  10.469 -0.2917 -2.0860 -1.9195
   82SAPS   H3S 7653   5.020   5.252  10.431  0.3971 -3.0562 -0.0237
   82SAPS   C24 7654   4.904   5.197  10.262 -0.2785  0.2057 -0.3194
   82SAPS   H4R 7655   4.914   5.284  10.194 -0.8196  0.1128 -0.5142
   82SAPS   H4S 7656   4.800   5.163  10.247 -0.4608  0.1332  0.9395
   82SAPS   C25 7657   4.987   5.076  10.225 -0.3801  0.2934 -0.5644
   82SAPS   H5R 7658   5.001   5.007  10.310  0.2398  0.1459 -0.7840
   82SAPS   C26 7659   5.055   5.047  10.117  0.2155 -0.3221 -0.0057
   82SAPS   H6R 7660   5.102   4.947  10.111 -0.7138 -0.7099 -1.4397
   82SAPS   C27 7661   5.061   5.130   9.992 -0.2596  0.2016 -0.6778
   82SAPS   H7R 7662   5.144   5.204   9.989  0.5362 -0.6459 -0.2455
   82SAPS   H7S 7663   4.973   5.196   9.977 -0.9265 -1.0641 -2.6756
   82SAPS   C28 7664   5.080   5.046   9.865 -0.0184  0.0854 -0.0661
   82SAPS   H8R 7665   5.111   4.944   9.894 -0.4092 -0.0019  0.0529
   82SAPS   C29 7666   5.064   5.085   9.737 -0.3666  0.0900 -0.0269
   82SAPS   H9R 7667   5.071   5.004   9.664 -0.1595  2.1945 -2.4841
   82SAPS  C210 7668   5.029   5.227   9.687  0.1924 -0.3943  0.1156
   82SAPS  H10R 7669   5.081   5.258   9.593 -1.8890 -0.8401 -1.2523
   82SAPS  H10S 7670   5.045   5.310   9.758  0.4515  0.6455 -1.1219
   82SAPS  C211 7671   4.881   5.225   9.668  0.5294  0.1910  1.2870
   82SAPS  H11R 7672   4.826   5.195   9.758 -0.9899 -0.3288  0.2392
   82SAPS  C212 7673   4.818   5.251   9.552  0.0848 -0.7639 -0.2005
   82SAPS  H12R 7674   4.709   5.264   9.544  0.4081  1.5101 -2.1972
   82SAPS  C213 7675   4.884   5.289   9.412  0.3333  0.2258 -0.7830
   82SAPS  H13R 7676   4.992   5.315   9.416  0.2123  0.6157  1.9539
   82SAPS  H13S 7677   4.836   5.386   9.387  0.6044  1.2703  2.3502
   82SAPS  C214 7678   4.853   5.177   9.312  0.4210 -0.3523  0.3098
   82SAPS  H14R 7679   4.830   5.080   9.359  1.3128 -0.1855  1.1253
   82SAPS  C215 7680   4.845   5.196   9.179  0.2489 -0.2926  0.0276
   82SAPS  H15R 7681   4.815   5.112   9.115  1.0262 -0.4809 -0.0992
   82SAPS  C216 7682   4.862   5.330   9.113  0.4888  0.4323 -0.0224
   82SAPS  H16R 7683   4.863   5.418   9.182  0.7125 -0.8345  1.6419
   82SAPS  H16S 7684   4.782   5.351   9.039  0.7397  0.6500 -0.2337
   82SAPS  C217 7685   4.995   5.320   9.028  0.9860  0.0453 -0.0334
   82SAPS  H17R 7686   4.976   5.254   8.941 -1.1661  0.2257  0.2626
   82SAPS  H17S 7687   5.071   5.280   9.098  0.7510  1.2718  0.9533
   82SAPS  C218 7688   5.048   5.456   8.971 -0.3063 -0.7899 -0.9401
   82SAPS  H18R 7689   4.976   5.491   8.894 -0.4078 -1.3824 -1.1208
   82SAPS  H18S 7690   5.142   5.439   8.914 -0.3304 -0.9022 -0.9474
   82SAPS  C219 7691   5.064   5.562   9.079 -0.0377 -0.2597  0.8875
   82SAPS  H19R 7692   5.116   5.526   9.170  0.2365  1.6579  1.5517
   82SAPS  H19S 7693   4.970   5.606   9.119 -0.1492  0.5530 -0.1937
   82SAPS  C220 7694   5.138   5.684   9.023 -0.2714  0.1459  0.0401
   82SAPS  H20R 7695   5.076   5.725   8.941  1.9337  1.5953 -0.9942
   82SAPS  H20S 7696   5.230   5.655   8.969  0.7485  4.1808 -0.7048
   82SAPS  H20T 7697   5.155   5.767   9.095  0.7209  0.0528 -0.0759
   82SAPS   C33 7698   4.482   5.386   9.970  0.0192 -0.0163  1.1020
   82SAPS   H3X 7699   4.382   5.341   9.947  0.7865 -0.1410 -2.5604
   82SAPS   H3Y 7700   4.553   5.318  10.021 -0.3793 -1.0883  0.2643
   82SAPS   C34 7701   4.551   5.389   9.837  0.5971 -0.3889  0.3003
   82SAPS   H4X 7702   4.556   5.287   9.793 -1.6074  0.1865 -1.4933
   82SAPS   H4Y 7703   4.658   5.418   9.842  0.3927  1.1256 -2.2054
   82SAPS   C35 7704   4.470   5.472   9.725 -0.0341  0.5612 -0.3173
   82SAPS   H5X 7705   4.478   5.582   9.743 -0.4547  0.6478 -0.6389
   82SAPS   H5Y 7706   4.365   5.437   9.734  0.9101 -2.4984 -0.0894
   82SAPS   C36 7707   4.523   5.456   9.589 -0.1834 -0.3045 -0.2700
   82SAPS   H6X 7708   4.471   5.372   9.537 -0.4652 -0.8233  0.8166
   82SAPS   H6Y 7709   4.632   5.440   9.598  0.2663  2.0165 -0.9468
   82SAPS   C37 7710   4.531   5.582   9.500 -0.7685  0.6977  0.0591
   82SAPS   H7X 7711   4.581   5.670   9.545 -1.5481  1.3760 -0.3675
   82SAPS   H7Y 7712   4.427   5.614   9.476 -1.5237 -1.1583  0.6729
   82SAPS   C38 7713   4.601   5.553   9.366 -0.6956 -0.2244 -0.1351
   82SAPS   H8X 7714   4.574   5.462   9.308  0.3510 -0.4314 -0.3113
   82SAPS   H8Y 7715   4.711   5.545   9.377 -0.5502 -2.3536 -2.2994
   82SAPS   C39 7716   4.580   5.662   9.259 -0.4327  0.4007  0.0485
   82SAPS   H9X 7717   4.631   5.748   9.308 -1.6573 -0.0033  2.1772
   82SAPS   H9Y 7718   4.475   5.689   9.236 -0.3686 -0.9692 -2.0710
   82SAPS  C310 7719   4.642   5.619   9.130  0.3602 -0.3238  0.8901
   82SAPS  H10X 7720   4.602   5.519   9.101  0.9934 -0.4424  0.3758
   82SAPS  H10Y 7721   4.750   5.608   9.156  1.1598  1.6969 -1.1957
   82SAPS  C311 7722   4.635   5.732   9.024  1.1715  0.1327  0.4129
   82SAPS  H11X 7723   4.694   5.822   9.049  2.1405 -0.4370  0.2204
   82SAPS  H11Y 7724   4.529   5.758   9.000  0.7814 -2.0282 -0.5543
   82SAPS  C312 7725   4.672   5.680   8.883 -0.5430  0.0195 -0.8574
   82SAPS  H12X 7726   4.778   5.650   8.899  0.3785  4.1910  2.6907
   82SAPS  H12Y 7727   4.689   5.766   8.814 -1.1820 -1.6067 -3.1985
   82SAPS  C313 7728   4.578   5.580   8.816 -0.5128  0.2416 -0.2185
   82SAPS  H13X 7729   4.472   5.616   8.818  0.2912  2.7952 -0.1838
   82SAPS  H13Y 7730   4.570   5.482   8.868 -0.3121  1.3251  1.9793
   82SAPS  C314 7731   4.613   5.568   8.664  0.3993  0.3838 -0.0816
   82SAPS  H14X 7732   4.606   5.665   8.609 -1.8366 -0.1131 -0.7856
   82SAPS  H14Y 7733   4.535   5.510   8.610 -0.5697 -1.0101  2.6358
   82SAPS  C315 7734   4.749   5.503   8.646  0.1214 -0.1399 -0.3689
   82SAPS  H15X 7735   4.754   5.436   8.735 -0.7694 -2.4028 -1.9504
   82SAPS  H15Y 7736   4.822   5.587   8.652 -0.2778  0.1993 -0.1877
   82SAPS  C316 7737   4.776   5.429   8.515  0.3059  0.0015 -0.3336
   82SAPS  H16X 7738   4.769   5.515   8.446 -0.7085  1.4130  1.4393
   82SAPS  H16Y 7739   4.702   5.347   8.508  1.2970 -0.9478 -0.1387
   82SAPS  C317 7740   4.918   5.369   8.508  0.6709 -0.1866 -0.0903
   82SAPS  H17X 7741   4.999   5.431   8.552 -2.1206  2.4211  1.7851
   82SAPS  H17Y 7742   4.938   5.355   8.400  1.5915  1.9966 -0.2582
   82SAPS  C318 7743   4.933   5.236   8.575  0.2242 -0.2085  0.5818
   82SAPS  H18X 7744   4.850   5.170   8.543  0.6034  0.4270 -1.9661
   82SAPS  H18Y 7745   4.911   5.241   8.683  0.0434  1.2037  0.5018
   82SAPS  H18Z 7746   5.035   5.193   8.566 -0.2265 -1.3724  0.8365
   83SAPS     N 7747   0.594   0.432  11.194 -0.7385  0.1987 -0.0367
   83SAPS   HN1 7748   0.557   0.346  11.240  0.3496 -0.9843 -1.2785
   83SAPS   HN2 7749   0.645   0.403  11.108 -3.3158 -0.7064 -1.3472
   83SAPS   HN3 7750   0.671   0.473  11.252 -0.2223  2.1862 -2.0063
   83SAPS   C12 7751   0.507   0.538  11.161  0.7207  0.1257 -0.4512
   83SAPS  H12A 7752   0.448   0.500  11.079  1.9250 -0.1096 -1.2294
   83SAPS   C13 7753   0.400   0.560  11.275 -0.3923 -0.3570 -0.7324
   83SAPS  O13A 7754   0.402   0.493  11.381 -0.5687  0.0185  0.0779
   83SAPS  O13B 7755   0.312   0.648  11.250 -0.1730  0.6368 -0.2383
   83SAPS   C11 7756   0.595   0.658  11.132 -0.1193  0.4873  0.8584
   83SAPS  H11A 7757   0.632   0.705  11.226  0.2951 -0.2151  1.0519
   83SAPS  H11B 7758   0.525   0.726  11.079 -0.0872 -0.0880  0.0597
   83SAPS     P 7759   0.800   0.725  10.969  0.1777 -0.3904 -0.0879
   83SAPS   O13 7760   0.843   0.834  11.062  1.0705  0.4768  0.6090
   83SAPS   O14 7761   0.909   0.666  10.888  0.0136 -0.6915  0.1355
   83SAPS   O12 7762   0.710   0.618  11.049  0.0844  0.6454  0.5762
   83SAPS   O11 7763   0.695   0.794  10.873  0.0760 -0.0521  0.5526
   83SAPS    C1 7764   0.596   0.720  10.803 -0.4279 -0.1671 -0.3631
   83SAPS    HA 7765   0.626   0.615  10.782  0.4171 -0.0653  0.2748
   83SAPS    HB 7766   0.511   0.732  10.873  1.4105 -0.3348  2.0181
   83SAPS    C2 7767   0.542   0.784  10.666 -0.4236  0.0316  0.1637
   83SAPS    HS 7768   0.466   0.721  10.616 -0.0964  0.2022 -0.5548
   83SAPS   O21 7769   0.657   0.810  10.571  0.2397  0.1253 -0.5271
   83SAPS   C21 7770   0.709   0.708  10.528 -0.0588  0.6577 -0.0108
   83SAPS   O22 7771   0.667   0.592  10.534 -0.2424 -0.3026 -0.1921
   83SAPS   C22 7772   0.824   0.746  10.437 -0.3344  0.2910 -0.4783
   83SAPS   H2R 7773   0.798   0.825  10.363  0.9672 -1.3615 -2.8471
   83SAPS   H2S 7774   0.896   0.779  10.515 -1.7422  0.4671  0.7831
   83SAPS    C3 7775   0.457   0.914  10.693 -0.3434 -0.1787  0.0460
   83SAPS    HX 7776   0.518   0.990  10.747 -2.1237 -0.8782  3.3346
   83SAPS    HY 7777   0.374   0.899  10.766  0.3672 -1.2374  0.6696
   83SAPS   O31 7778   0.401   0.961  10.570  0.1467 -0.2273  0.1470
   83SAPS   C31 7779   0.478   1.058  10.515 -0.3117 -0.0051  0.5043
   83SAPS   O32 7780   0.586   1.097  10.554  0.6118 -0.0463  0.3892
   83SAPS   C32 7781   0.403   1.113  10.393 -0.3588 -0.1141 -0.6653
   83SAPS   H2X 7782   0.308   1.137  10.444 -0.0681  0.6989 -0.4963
   83SAPS   H2Y 7783   0.391   1.032  10.317 -2.3047  0.9215 -1.5154
   83SAPS   C23 7784   0.889   0.638  10.349 -0.1521 -0.3127  0.1932
   83SAPS   H3R 7785   0.843   0.633  10.248 -0.9421  1.0726  0.4449
   83SAPS   H3S 7786   0.866   0.535  10.383 -1.4430 -0.3274 -0.6486
   83SAPS   C24 7787   1.041   0.655  10.343  0.5676  0.2537  0.1979
   83SAPS   H4R 7788   1.087   0.675  10.442  1.5407  0.9369 -0.3760
   83SAPS   H4S 7789   1.063   0.749  10.288 -1.4956  0.0683 -1.0579
   83SAPS   C25 7790   1.114   0.539  10.284  0.3206 -0.2422  0.2432
   83SAPS   H5R 7791   1.141   0.468  10.363 -0.9797  1.6125  2.4683
   83SAPS   C26 7792   1.145   0.516  10.157  0.3501  0.3706  0.3828
   83SAPS   H6R 7793   1.221   0.442  10.126  0.3578  0.2131  0.7720
   83SAPS   C27 7794   1.103   0.603  10.038 -0.4200  0.3486 -0.0154
   83SAPS   H7R 7795   1.167   0.694  10.045  2.2706 -1.1203 -2.8593
   83SAPS   H7S 7796   0.998   0.638  10.045 -0.3098  1.1474 -1.7755
   83SAPS   C28 7797   1.121   0.541   9.905 -0.1075  0.0659  0.3581
   83SAPS   H8R 7798   1.072   0.442   9.895 -0.9569  0.6576 -2.2885
   83SAPS   C29 7799   1.157   0.594   9.790  0.1924 -0.3065  0.4055
   83SAPS   H9R 7800   1.172   0.534   9.699 -0.0328  1.6618 -0.9845
   83SAPS  C210 7801   1.194   0.735   9.779 -0.1787  0.2394 -0.6485
   83SAPS  H10R 7802   1.168   0.789   9.873 -1.2335 -2.0904  0.4653
   83SAPS  H10S 7803   1.119   0.778   9.708 -2.1541  0.9843  1.7427
   83SAPS  C211 7804   1.336   0.760   9.742 -0.3846  0.0722 -0.1698
   83SAPS  H11R 7805   1.410   0.768   9.823  0.1318  0.8598 -0.6924
   83SAPS  C212 7806   1.373   0.778   9.614  0.0029  0.4197  1.0939
   83SAPS  H12R 7807   1.475   0.800   9.580 -0.3389  0.3905  0.0342
   83SAPS  C213 7808   1.290   0.762   9.493  0.1389  0.0102  0.1438
   83SAPS  H13R 7809   1.179   0.762   9.504  0.0752  0.0928 -0.4732
   83SAPS  H13S 7810   1.322   0.666   9.449  1.0226 -0.7195  2.2775
   83SAPS  C214 7811   1.312   0.877   9.401 -0.0224 -0.6469 -0.6876
   83SAPS  H14R 7812   1.245   0.962   9.424 -2.3900 -2.6187  0.2307
   83SAPS  C215 7813   1.395   0.882   9.297 -0.1066 -0.3172  0.7119
   83SAPS  H15R 7814   1.401   0.967   9.228  1.3416 -2.0261 -1.4293
   83SAPS  C216 7815   1.485   0.767   9.254 -0.1880 -0.0134 -0.0927
   83SAPS  H16R 7816   1.469   0.679   9.320 -1.9136  1.0838  1.0389
   83SAPS  H16S 7817   1.595   0.782   9.254 -0.1825  0.0189  1.3311
   83SAPS  C217 7818   1.432   0.701   9.122 -0.9499 -0.0514 -0.5370
   83SAPS  H17R 7819   1.429   0.777   9.041 -1.6403 -0.3115 -0.7607
   83SAPS  H17S 7820   1.331   0.657   9.132 -1.5917  1.2036 -1.2741
   83SAPS  C218 7821   1.542   0.604   9.066  0.0438  0.4069  0.5070
   83SAPS  H18R 7822   1.548   0.513   9.130  0.9957  0.3179  0.3065
   83SAPS  H18S 7823   1.641   0.654   9.062  1.7485 -2.6434  1.3822
   83SAPS  C219 7824   1.503   0.563   8.929  0.5446 -0.4569 -0.7457
   83SAPS  H19R 7825   1.498   0.652   8.862  0.3778  0.0914 -0.0138
   83SAPS  H19S 7826   1.401   0.521   8.945 -0.3096  2.2696  1.9026
   83SAPS  C220 7827   1.594   0.462   8.860  0.5318  0.1768  0.7701
   83SAPS  H20R 7828   1.699   0.498   8.865  0.1597  1.2258  1.1651
   83SAPS  H20S 7829   1.567   0.442   8.754 -0.1398 -0.7626  1.0984
   83SAPS  H20T 7830   1.599   0.366   8.917 -0.6314 -1.3879 -1.5825
   83SAPS   C33 7831   0.446   1.249  10.340 -0.1222 -0.1858 -0.1464
   83SAPS   H3X 7832   0.556   1.242  10.327 -0.3994 -2.5556 -1.9096
   83SAPS   H3Y 7833   0.427   1.319  10.424  1.0363 -2.6999  2.3715
   83SAPS   C34 7834   0.368   1.306  10.226 -0.3174  0.7285  0.1580
   83SAPS   H4X 7835   0.362   1.417  10.227  0.3130  0.7992 -1.4469
   83SAPS   H4Y 7836   0.263   1.269  10.234 -0.4532  1.1653  0.3987
   83SAPS   C35 7837   0.432   1.267  10.097  0.3643 -0.3969 -0.4704
   83SAPS   H5X 7838   0.455   1.158  10.099  1.6771 -0.1911 -2.1122
   83SAPS   H5Y 7839   0.525   1.326  10.085  1.8140 -1.9642  2.0482
   83SAPS   C36 7840   0.341   1.302   9.977  0.2125 -0.5098  0.1690
   83SAPS   H6X 7841   0.320   1.411   9.975 -0.4102 -0.6048  1.1640
   83SAPS   H6Y 7842   0.242   1.252   9.978  0.5606 -1.2396  1.4449
   83SAPS   C37 7843   0.413   1.271   9.850 -0.2252  0.5424  0.3314
   83SAPS   H7X 7844   0.414   1.162   9.825 -0.2309  0.6853 -0.3098
   83SAPS   H7Y 7845   0.518   1.303   9.867  0.7379 -0.2026 -3.2826
   83SAPS   C38 7846   0.349   1.355   9.739  0.1657 -0.0828 -0.2889
   83SAPS   H8X 7847   0.356   1.463   9.761 -0.5701  0.2923 -1.7722
   83SAPS   H8Y 7848   0.240   1.333   9.732 -0.0758  0.3581  1.5218
   83SAPS   C39 7849   0.407   1.343   9.594 -0.7897 -0.0802 -0.4089
   83SAPS   H9X 7850   0.511   1.383   9.587 -0.4740 -0.9628 -0.8920
   83SAPS   H9Y 7851   0.342   1.406   9.529 -0.0959  0.7831 -0.2876
   83SAPS  C310 7852   0.410   1.196   9.539 -0.6507  0.0511 -0.1177
   83SAPS  H10X 7853   0.306   1.158   9.549 -1.2758  1.1967 -1.8283
   83SAPS  H10Y 7854   0.471   1.135   9.609 -0.8163 -0.4450 -0.4011
   83SAPS  C311 7855   0.452   1.192   9.395 -0.2804  0.9409  0.3421
   83SAPS  H11X 7856   0.557   1.227   9.385 -0.5972  1.3635 -2.1351
   83SAPS  H11Y 7857   0.400   1.268   9.332 -1.0046  1.1600  1.1951
   83SAPS  C312 7858   0.434   1.048   9.327 -0.5068 -0.0401  0.2250
   83SAPS  H12X 7859   0.325   1.030   9.318 -0.4549 -0.8788  1.1448
   83SAPS  H12Y 7860   0.482   0.976   9.397  0.5304 -1.0226 -1.4369
   83SAPS  C313 7861   0.494   1.036   9.186  0.1879  0.1934  0.2192
   83SAPS  H13X 7862   0.603   1.018   9.197  0.1067 -0.6725 -0.3525
   83SAPS  H13Y 7863   0.480   1.134   9.135 -1.0737 -0.2665 -0.3545
   83SAPS  C314 7864   0.439   0.926   9.095 -0.0399  0.8486 -0.2258
   83SAPS  H14X 7865   0.487   0.909   8.996 -0.6951 -2.0237 -0.1410
   83SAPS  H14Y 7866   0.328   0.927   9.102  0.0034 -1.0518  1.8915
   83SAPS  C315 7867   0.469   0.792   9.158 -0.2902  0.2198  0.3336
   83SAPS  H15X 7868   0.439   0.783   9.265 -0.5256 -0.2079  0.2317
   83SAPS  H15Y 7869   0.580   0.781   9.164 -0.2559 -1.5375 -2.2857
   83SAPS  C316 7870   0.425   0.672   9.066 -0.1055 -0.9964 -0.3842
   83SAPS  H16X 7871   0.466   0.690   8.965  0.0408 -3.3386 -0.8020
   83SAPS  H16Y 7872   0.314   0.661   9.068  0.0458 -2.9648  0.0117
   83SAPS  C317 7873   0.487   0.542   9.102 -0.5683  1.1526 -0.2069
   83SAPS  H17X 7874   0.594   0.569   9.109 -0.4934  0.6368  0.7652
   83SAPS  H17Y 7875   0.461   0.470   9.021 -1.1985  0.3524  0.6847
   83SAPS  C318 7876   0.431   0.480   9.232  0.2806 -0.2018  0.1391
   83SAPS  H18X 7877   0.413   0.539   9.325 -0.9563 -1.3909  0.6979
   83SAPS  H18Y 7878   0.497   0.399   9.269 -0.7526 -0.9141  0.4586
   83SAPS  H18Z 7879   0.333   0.438   9.201  1.2282 -0.6678 -2.4425
   84SAPS     N 7880   0.519   5.448  11.048  0.0011 -0.0632  0.3618
   84SAPS   HN1 7881   0.561   5.500  10.969 -1.5713  0.5617 -0.1126
   84SAPS   HN2 7882   0.511   5.519  11.124  0.4154  0.9046 -0.4746
   84SAPS   HN3 7883   0.573   5.366  11.081 -1.1259 -2.1612 -2.5365
   84SAPS   C12 7884   0.388   5.391  10.999 -0.3337  0.3680 -0.7671
   84SAPS  H12A 7885   0.349   5.333  11.081  0.2703 -1.6962 -1.8946
   84SAPS   C13 7886   0.294   5.502  10.956  0.3678 -0.6244 -0.0012
   84SAPS  O13A 7887   0.325   5.622  10.955  0.6527 -0.2120  0.3230
   84SAPS  O13B 7888   0.176   5.469  10.924  0.1300 -0.1763 -0.5950
   84SAPS   C11 7889   0.412   5.293  10.885 -0.4304  0.0123 -0.5597
   84SAPS  H11A 7890   0.454   5.348  10.798  1.5051 -0.1128  0.2486
   84SAPS  H11B 7891   0.317   5.244  10.857 -0.0679 -1.3785  0.5412
   84SAPS     P 7892   0.608   5.115  10.850  0.4880  0.2287  0.1352
   84SAPS   O13 7893   0.732   5.199  10.850 -0.4274  0.4658 -0.2592
   84SAPS   O14 7894   0.629   4.978  10.896  0.3124 -0.4973  0.6298
   84SAPS   O12 7895   0.492   5.186  10.932 -0.1147  0.6142 -0.2591
   84SAPS   O11 7896   0.554   5.102  10.697 -0.5864  0.0148  0.3053
   84SAPS    C1 7897   0.445   5.026  10.654 -0.7443 -0.7739 -0.2475
   84SAPS    HA 7898   0.370   5.003  10.732 -1.4005  0.3414 -0.5238
   84SAPS    HB 7899   0.405   5.079  10.565  1.0760  0.7796 -0.1873
   84SAPS    C2 7900   0.491   4.896  10.592 -0.4588 -0.5065 -0.7971
   84SAPS    HS 7901   0.544   4.848  10.677 -1.0895  0.7050  0.3327
   84SAPS   O21 7902   0.577   4.934  10.477 -0.0096  0.0786 -0.0846
   84SAPS   C21 7903   0.621   4.835  10.406 -0.7218 -0.0509  0.0558
   84SAPS   O22 7904   0.597   4.716  10.428 -0.3764  0.1168  0.3849
   84SAPS   C22 7905   0.714   4.892  10.294 -0.3710 -0.6161 -0.3735
   84SAPS   H2R 7906   0.796   4.952  10.339 -1.0164  0.0241 -0.0275
   84SAPS   H2S 7907   0.772   4.805  10.257 -0.8243 -1.4607  0.8458
   84SAPS    C3 7908   0.363   4.812  10.558 -0.0348 -0.1691 -0.2931
   84SAPS    HX 7909   0.322   4.797  10.660 -1.1224 -0.3731 -0.7498
   84SAPS    HY 7910   0.400   4.714  10.522  1.9685  0.0832  0.9068
   84SAPS   O31 7911   0.274   4.878  10.473  0.2069 -0.3471 -0.0558
   84SAPS   C31 7912   0.144   4.893  10.507 -0.0232 -0.1558 -0.1763
   84SAPS   O32 7913   0.089   4.859  10.606 -0.0163  0.5594 -0.9315
   84SAPS   C32 7914   0.066   4.975  10.395  0.3137 -0.0210 -0.9313
   84SAPS   H2X 7915   0.036   5.080  10.418 -1.1664  0.1986 -3.5078
   84SAPS   H2Y 7916  -0.032   4.925  10.384 -0.1648  0.5754  0.4284
   84SAPS   C23 7917   0.635   4.978  10.198  0.7457  0.1639 -0.5123
   84SAPS   H3R 7918   0.697   5.040  10.130  0.2515 -0.2615 -1.3689
   84SAPS   H3S 7919   0.564   5.047  10.249 -1.4459 -1.7782 -0.7917
   84SAPS   C24 7920   0.541   4.890  10.116  0.3231  0.1449 -0.4114
   84SAPS   H4R 7921   0.454   4.947  10.076 -0.3003 -0.3581  0.2096
   84SAPS   H4S 7922   0.501   4.813  10.185 -0.2653  0.8779  0.0883
   84SAPS   C25 7923   0.613   4.820  10.000 -0.0076 -0.5410  0.7748
   84SAPS   H5R 7924   0.682   4.739  10.025 -0.2091 -1.1309 -0.5085
   84SAPS   C26 7925   0.594   4.845   9.869  0.8250  0.3033  0.6756
   84SAPS   H6R 7926   0.645   4.793   9.786 -2.4100  0.6637 -1.7628
   84SAPS   C27 7927   0.491   4.938   9.805 -0.0299  0.4402  0.2542
   84SAPS   H7R 7928   0.411   4.976   9.871 -0.3135  2.2407 -1.0527
   84SAPS   H7S 7929   0.458   4.884   9.714 -0.0169 -0.0736  0.5531
   84SAPS   C28 7930   0.569   5.062   9.759 -0.0440  0.1018 -0.2803
   84SAPS   H8R 7931   0.578   5.144   9.832 -2.3136  0.8245 -0.7036
   84SAPS   C29 7932   0.631   5.080   9.637 -0.1572 -0.2151 -0.1835
   84SAPS   H9R 7933   0.685   5.173   9.618 -2.0256  0.7250 -1.1522
   84SAPS  C210 7934   0.614   4.981   9.527  0.6510  0.2560  0.7378
   84SAPS  H10R 7935   0.616   4.875   9.562 -1.2672 -1.2555 -3.0793
   84SAPS  H10S 7936   0.693   4.990   9.450 -0.8744 -0.6476 -1.0320
   84SAPS  C211 7937   0.475   5.001   9.461  0.6112  0.0343 -0.0298
   84SAPS  H11R 7938   0.411   4.921   9.501 -1.3197  0.6707 -1.6795
   84SAPS  C212 7939   0.420   5.085   9.369 -0.2441 -0.2959  0.8380
   84SAPS  H12R 7940   0.316   5.082   9.331  0.0427  0.1206 -0.0084
   84SAPS  C213 7941   0.497   5.197   9.306  0.2915  0.9353 -0.4088
   84SAPS  H13R 7942   0.557   5.249   9.384 -0.5972  1.1019  0.1767
   84SAPS  H13S 7943   0.416   5.267   9.280 -0.2644  1.0423  1.4463
   84SAPS  C214 7944   0.577   5.167   9.189 -0.3893 -0.2089 -0.4065
   84SAPS  H14R 7945   0.651   5.086   9.197 -1.5579 -1.4626 -1.6772
   84SAPS  C215 7946   0.571   5.224   9.073  0.7043 -0.9995  0.1496
   84SAPS  H15R 7947   0.625   5.175   8.990  0.8369 -3.3372  1.5259
   84SAPS  C216 7948   0.480   5.339   9.029 -0.2766  0.2715 -0.3520
   84SAPS  H16R 7949   0.454   5.404   9.116 -0.2871  0.8398 -0.7704
   84SAPS  H16S 7950   0.388   5.300   8.982  2.0746 -1.3572 -4.0383
   84SAPS  C217 7951   0.563   5.422   8.925 -0.0638  0.4918 -0.5176
   84SAPS  H17R 7952   0.487   5.499   8.899 -0.8267 -1.2496 -4.1737
   84SAPS  H17S 7953   0.580   5.355   8.838  2.9987 -1.4416  1.3967
   84SAPS  C218 7954   0.701   5.478   8.982 -0.1177  0.0161 -0.0614
   84SAPS  H18R 7955   0.785   5.405   8.974 -0.9144 -0.8321 -1.0103
   84SAPS  H18S 7956   0.673   5.501   9.087 -1.2516 -2.4753  0.2656
   84SAPS  C219 7957   0.741   5.595   8.893  0.8231  0.2105  0.0771
   84SAPS  H19R 7958   0.667   5.678   8.901  0.4337  0.1709 -2.5232
   84SAPS  H19S 7959   0.735   5.557   8.789 -2.3574  1.0469 -0.1525
   84SAPS  C220 7960   0.873   5.663   8.913 -0.1127  0.0504 -0.5373
   84SAPS  H20R 7961   0.955   5.590   8.933  0.1336  0.2670 -0.7520
   84SAPS  H20S 7962   0.868   5.733   8.999 -1.0007  0.1149 -0.6311
   84SAPS  H20T 7963   0.904   5.733   8.833  1.0896 -0.1924 -0.3098
   84SAPS   C33 7964   0.137   4.982  10.256 -0.9860  0.4025  0.3997
   84SAPS   H3X 7965   0.180   4.880  10.245 -0.3037  0.6942  0.2699
   84SAPS   H3Y 7966   0.211   5.066  10.257 -0.2110 -0.2232 -1.0213
   84SAPS   C34 7967   0.046   5.013  10.137  0.6428 -0.2383  0.2400
   84SAPS   H4X 7968   0.004   5.116  10.133  2.0803  0.3457 -0.9889
   84SAPS   H4Y 7969  -0.044   4.949  10.136  0.4399 -0.0639  2.5407
   84SAPS   C35 7970   0.116   5.002   9.998  0.1786 -1.1043 -0.8121
   84SAPS   H5X 7971   0.128   4.894   9.974  0.7546 -2.1199  3.3001
   84SAPS   H5Y 7972   0.205   5.069   9.992  0.3261 -1.2896 -0.7013
   84SAPS   C36 7973   0.013   5.044   9.887  0.1529  0.2337 -0.5380
   84SAPS   H6X 7974  -0.018   5.150   9.899 -2.1380 -0.2951 -1.1978
   84SAPS   H6Y 7975  -0.070   4.971   9.898  0.6653 -0.4545 -1.1603
   84SAPS   C37 7976   0.073   5.024   9.742  0.1915  0.2719  0.0801
   84SAPS   H7X 7977   0.125   4.925   9.735 -2.6837 -1.2553 -1.3525
   84SAPS   H7Y 7978   0.147   5.100   9.710  0.4234  0.1290  0.2630
   84SAPS   C38 7979  -0.030   5.026   9.631 -0.3929 -0.5028  0.0240
   84SAPS   H8X 7980  -0.069   5.130   9.626  4.2030  1.3941 -2.1706
   84SAPS   H8Y 7981  -0.116   4.960   9.651 -0.0460 -0.8847  0.2722
   84SAPS   C39 7982   0.029   5.000   9.493 -0.6616 -0.4614  0.2080
   84SAPS   H9X 7983   0.060   4.894   9.490  1.5059 -0.0817  3.5664
   84SAPS   H9Y 7984   0.124   5.054   9.475 -0.9238 -0.3227 -0.8493
   84SAPS  C310 7985  -0.068   5.043   9.375 -0.5950 -0.7315  0.2778
   84SAPS  H10X 7986  -0.086   5.150   9.400  1.3067  0.0737 -1.4549
   84SAPS  H10Y 7987  -0.161   4.983   9.369 -0.8301 -0.4913  1.3324
   84SAPS  C311 7988  -0.007   5.045   9.238 -0.3109 -0.4746 -0.2170
   84SAPS  H11X 7989   0.083   5.110   9.236 -1.7183  1.5499 -0.9301
   84SAPS  H11Y 7990  -0.075   5.099   9.168 -0.0359  1.5479  0.9806
   84SAPS  C312 7991   0.022   4.907   9.185  0.6911 -0.6216 -0.4627
   84SAPS  H12X 7992  -0.079   4.862   9.193  0.6992 -0.5279  0.2842
   84SAPS  H12Y 7993   0.082   4.858   9.265  1.2338  2.0539  0.8899
   84SAPS  C313 7994   0.078   4.914   9.046 -0.1495 -0.6253 -0.2179
   84SAPS  H13X 7995   0.040   4.997   8.984  0.4889  0.8091  1.2262
   84SAPS  H13Y 7996   0.042   4.816   9.008 -1.0475 -0.6083  0.5586
   84SAPS  C314 7997   0.231   4.922   9.041  0.0937  0.5995  0.2832
   84SAPS  H14X 7998   0.280   4.870   9.126 -0.2783 -2.4634 -1.2327
   84SAPS  H14Y 7999   0.271   5.026   9.046  0.1000  0.6363 -0.3747
   84SAPS  C315 8000   0.278   4.845   8.911 -0.8200 -0.8068 -0.1480
   84SAPS  H15X 8001   0.245   4.901   8.821  0.6400 -0.1415 -0.2833
   84SAPS  H15Y 8002   0.229   4.745   8.908  0.4788 -1.4714  0.1994
   84SAPS  C316 8003   0.429   4.798   8.906  0.1092  0.1077 -0.4681
   84SAPS  H16X 8004   0.445   4.731   8.819  0.0999  0.1057 -0.4692
   84SAPS  H16Y 8005   0.456   4.740   8.997 -0.0007 -1.3898 -1.3538
   84SAPS  C317 8006   0.531   4.906   8.886  0.2285 -0.9967  0.2516
   84SAPS  H17X 8007   0.528   4.986   8.964  0.2043 -0.2589 -0.4913
   84SAPS  H17Y 8008   0.511   4.962   8.792  1.4114  0.4634  0.8170
   84SAPS  C318 8009   0.678   4.864   8.891  0.7411  0.3779 -0.3305
   84SAPS  H18X 8010   0.709   4.814   8.797  2.7224  0.2749  0.3494
   84SAPS  H18Y 8011   0.691   4.787   8.969 -0.2509  1.0852  0.5744
   84SAPS  H18Z 8012   0.755   4.939   8.916  0.2697  0.3238  1.3940
   85SAPS     N 8013   2.241   0.782  11.103  0.3448  0.2181  0.6018
   85SAPS   HN1 8014   2.142   0.770  11.132  0.6881  0.3102  1.8814
   85SAPS   HN2 8015   2.276   0.689  11.070 -0.6776  0.0129  0.0652
   85SAPS   HN3 8016   2.300   0.813  11.183  0.0955  1.7590  0.2037
   85SAPS   C12 8017   2.272   0.873  10.993  0.1281 -0.6837 -0.1613
   85SAPS  H12A 8018   2.199   0.867  10.914 -0.5079  1.9559  0.1363
   85SAPS   C13 8019   2.272   1.018  11.034  0.1014 -0.2817 -0.0907
   85SAPS  O13A 8020   2.257   1.055  11.152  0.0076  0.2480  0.2505
   85SAPS  O13B 8021   2.285   1.101  10.941 -0.3494  0.7308  0.2953
   85SAPS   C11 8022   2.417   0.840  10.948 -0.2958 -0.0624 -0.1914
   85SAPS  H11A 8023   2.487   0.876  11.027  1.7595  0.5007 -2.1369
   85SAPS  H11B 8024   2.442   0.902  10.859 -0.1691  0.3507  0.1271
   85SAPS     P 8025   2.559   0.655  10.843 -0.3998  0.4773 -0.0405
   85SAPS   O13 8026   2.669   0.683  10.932  0.3175 -0.5024 -0.3886
   85SAPS   O14 8027   2.551   0.513  10.799 -0.3286  0.2056  0.5513
   85SAPS   O12 8028   2.426   0.702  10.911  0.4819 -0.0798  0.0462
   85SAPS   O11 8029   2.575   0.757  10.726  0.5557  0.4206  0.4918
   85SAPS    C1 8030   2.508   0.735  10.596  0.1820  0.0551  1.0456
   85SAPS    HA 8031   2.406   0.694  10.613  0.5053 -0.8298  0.9105
   85SAPS    HB 8032   2.507   0.834  10.547  2.3182 -0.8271 -1.0104
   85SAPS    C2 8033   2.586   0.632  10.501 -0.9791  0.0723  0.2261
   85SAPS    HS 8034   2.564   0.532  10.544  0.4699 -1.6049 -2.6654
   85SAPS   O21 8035   2.730   0.658  10.505 -0.0131  0.5971  0.5303
   85SAPS   C21 8036   2.806   0.556  10.463  0.5831 -0.6781  0.1320
   85SAPS   O22 8037   2.767   0.443  10.451 -0.2780 -0.2497 -0.4146
   85SAPS   C22 8038   2.945   0.608  10.441 -0.6875  0.5534  0.1224
   85SAPS   H2R 8039   2.939   0.712  10.402  0.2288  0.1963 -1.0477
   85SAPS   H2S 8040   3.004   0.601  10.535  0.3423  1.9503 -0.3794
   85SAPS    C3 8041   2.540   0.639  10.356  0.9152  0.4494  0.5551
   85SAPS    HX 8042   2.588   0.564  10.289 -2.0260 -1.9971  0.9379
   85SAPS    HY 8043   2.567   0.736  10.308 -1.1904 -0.1810 -2.1711
   85SAPS   O31 8044   2.391   0.628  10.347 -0.1752 -0.7983  0.0366
   85SAPS   C31 8045   2.347   0.497  10.347  0.2214 -0.1429 -0.1383
   85SAPS   O32 8046   2.416   0.400  10.323 -0.4183 -0.1206  0.3621
   85SAPS   C32 8047   2.191   0.497  10.358  0.1272 -0.2214  0.5076
   85SAPS   H2X 8048   2.157   0.588  10.305  1.0291  0.8417  1.6965
   85SAPS   H2Y 8049   2.161   0.503  10.465 -1.3025  1.8001  0.0373
   85SAPS   C23 8050   3.021   0.542  10.325  0.1558  0.3197  0.6651
   85SAPS   H3R 8051   3.043   0.436  10.351 -2.5790 -0.7569 -1.0525
   85SAPS   H3S 8052   3.115   0.600  10.309  0.2107  0.0041 -0.1563
   85SAPS   C24 8053   2.940   0.538  10.195 -0.1739  0.9836  0.2282
   85SAPS   H4R 8054   2.849   0.475  10.203 -1.2045  2.3746 -0.1396
   85SAPS   H4S 8055   3.008   0.480  10.129 -0.7123  1.9025 -1.1870
   85SAPS   C25 8056   2.902   0.678  10.149 -0.0585 -0.1382  0.1757
   85SAPS   H5R 8057   2.951   0.765  10.196  0.9543 -1.3116  1.3992
   85SAPS   C26 8058   2.803   0.694  10.062  0.1796 -0.0150 -0.2981
   85SAPS   H6R 8059   2.777   0.797  10.033  0.1382  0.1147  0.1855
   85SAPS   C27 8060   2.715   0.588  10.011  0.4826 -1.0413  0.2643
   85SAPS   H7R 8061   2.683   0.532  10.102  0.1437 -3.5689 -1.3083
   85SAPS   H7S 8062   2.771   0.508   9.957  0.8974 -1.2282  0.9645
   85SAPS   C28 8063   2.593   0.638   9.937 -0.4503  0.0043 -0.0506
   85SAPS   H8R 8064   2.502   0.649   9.998 -1.8679 -0.7884 -1.9450
   85SAPS   C29 8065   2.587   0.652   9.804  0.6623  0.0079 -0.3275
   85SAPS   H9R 8066   2.496   0.703   9.770 -0.3855 -0.9692  0.9038
   85SAPS  C210 8067   2.702   0.633   9.711 -0.0006 -0.2125  0.4885
   85SAPS  H10R 8068   2.800   0.644   9.763  1.9621 -3.0336 -2.1740
   85SAPS  H10S 8069   2.710   0.710   9.631  0.0184 -1.0656 -0.3514
   85SAPS  C211 8070   2.708   0.493   9.656  0.1427  0.0185  0.2799
   85SAPS  H11R 8071   2.650   0.423   9.718  0.4138 -0.2007  0.2909
   85SAPS  C212 8072   2.772   0.449   9.545  0.4399  0.0014  0.5774
   85SAPS  H12R 8073   2.741   0.350   9.506  0.3046  0.7251 -1.2610
   85SAPS  C213 8074   2.863   0.540   9.457  0.3433 -0.2498 -0.2323
   85SAPS  H13R 8075   2.968   0.512   9.477  0.2004 -2.3709 -2.0540
   85SAPS  H13S 8076   2.862   0.647   9.487  0.1201 -0.0765 -0.8402
   85SAPS  C214 8077   2.814   0.515   9.317 -0.1314 -0.6303  0.1288
   85SAPS  H14R 8078   2.710   0.544   9.297 -0.3578 -2.0214 -0.9267
   85SAPS  C215 8079   2.877   0.455   9.207 -0.1004 -0.0667 -0.1713
   85SAPS  H15R 8080   2.830   0.436   9.109  1.5592  0.2149 -1.0464
   85SAPS  C216 8081   3.016   0.391   9.200 -0.2613 -0.4954 -0.1172
   85SAPS  H16R 8082   3.069   0.423   9.293 -1.1186 -0.3446  0.3301
   85SAPS  H16S 8083   3.070   0.446   9.120  2.6655  1.7953  3.1138
   85SAPS  C217 8084   3.000   0.236   9.175 -0.6832 -0.6362  0.5003
   85SAPS  H17R 8085   2.949   0.202   9.268  0.4740 -2.2190  0.5907
   85SAPS  H17S 8086   3.104   0.196   9.169 -1.2204 -1.9451 -0.6264
   85SAPS  C218 8087   2.917   0.194   9.060  0.0755 -0.7701 -0.0488
   85SAPS  H18R 8088   2.813   0.232   9.072  0.1563  0.1199 -1.8011
   85SAPS  H18S 8089   2.920   0.083   9.057 -1.7146 -0.8698  0.8425
   85SAPS  C219 8090   2.969   0.249   8.927  0.8889  0.6139  0.5466
   85SAPS  H19R 8091   3.072   0.215   8.903  0.0826  0.0725 -2.5911
   85SAPS  H19S 8092   2.968   0.360   8.933 -0.1917  0.6702 -0.3682
   85SAPS  C220 8093   2.884   0.214   8.801 -0.2696  0.1279 -0.1135
   85SAPS  H20R 8094   2.942   0.145   8.736 -0.7726 -1.3167  0.9261
   85SAPS  H20S 8095   2.864   0.308   8.745  2.7179  2.7326  2.7816
   85SAPS  H20T 8096   2.789   0.157   8.812  0.5558 -0.9042  2.1171
   85SAPS   C33 8097   2.133   0.379  10.279  0.0603 -0.0352 -0.1049
   85SAPS   H3X 8098   2.024   0.376  10.302 -0.3206  2.3598 -1.2955
   85SAPS   H3Y 8099   2.177   0.281  10.306 -2.2418 -0.4158  2.8123
   85SAPS   C34 8100   2.132   0.389  10.121 -0.3901 -0.5848  0.1002
   85SAPS   H4X 8101   2.103   0.284  10.099 -1.7093 -0.3289  0.5276
   85SAPS   H4Y 8102   2.237   0.405  10.087  0.2108 -1.0275  1.6637
   85SAPS   C35 8103   2.030   0.482  10.067  0.6789 -0.5277 -0.5836
   85SAPS   H5X 8104   2.043   0.580  10.117  2.9272 -0.9415 -0.2799
   85SAPS   H5Y 8105   1.930   0.444  10.096  0.0891  1.1664 -0.2752
   85SAPS   C36 8106   2.045   0.500   9.919  0.8177 -0.1698 -0.1446
   85SAPS   H6X 8107   2.143   0.550   9.902  0.5466  0.6463  0.6284
   85SAPS   H6Y 8108   1.964   0.571   9.893  2.4046  1.1258 -1.8376
   85SAPS   C37 8109   2.043   0.374   9.829  0.4398  0.3180  0.2610
   85SAPS   H7X 8110   1.952   0.314   9.847  1.2223 -1.1388 -0.4899
   85SAPS   H7Y 8111   2.128   0.310   9.860  0.2980  0.0169  0.0311
   85SAPS   C38 8112   2.059   0.395   9.678 -0.4036  1.2291 -0.2157
   85SAPS   H8X 8113   1.984   0.469   9.643  0.6017  1.6654 -1.5271
   85SAPS   H8Y 8114   2.056   0.302   9.617 -0.0216  0.5792  0.7468
   85SAPS   C39 8115   2.194   0.467   9.647 -0.6122 -0.2463  0.5746
   85SAPS   H9X 8116   2.277   0.407   9.690 -1.3151 -2.2896 -0.7684
   85SAPS   H9Y 8117   2.186   0.560   9.708 -1.0362 -1.3803  2.3385
   85SAPS  C310 8118   2.233   0.499   9.501  0.0874  0.6605 -0.5851
   85SAPS  H10X 8119   2.260   0.410   9.440 -1.1378 -0.0220 -0.1777
   85SAPS  H10Y 8120   2.314   0.574   9.504 -0.2902  1.0462  1.3149
   85SAPS  C311 8121   2.127   0.578   9.422 -0.4430 -0.4353 -0.0190
   85SAPS  H11X 8122   2.137   0.688   9.437 -0.7692 -0.3958 -0.0844
   85SAPS  H11Y 8123   2.023   0.571   9.460 -1.0530  2.4560 -0.9176
   85SAPS  C312 8124   2.134   0.539   9.270 -0.6044 -0.2325 -0.3329
   85SAPS  H12X 8125   2.140   0.428   9.272 -0.2506 -0.2548  2.8392
   85SAPS  H12Y 8126   2.230   0.577   9.228 -1.3436 -0.1362 -2.0276
   85SAPS  C313 8127   2.019   0.605   9.191 -0.1864 -0.1102 -0.2210
   85SAPS  H13X 8128   2.011   0.715   9.210 -2.2382 -0.1518 -0.6511
   85SAPS  H13Y 8129   1.916   0.579   9.224 -0.6768  1.9820  0.0633
   85SAPS  C314 8130   2.042   0.587   9.041  0.2248 -0.1846  0.0979
   85SAPS  H14X 8131   2.147   0.619   9.023  0.1674  0.9161  1.5432
   85SAPS  H14Y 8132   1.968   0.658   8.999 -0.8786 -0.7619  1.0130
   85SAPS  C315 8133   2.013   0.443   8.992 -0.3168 -0.2115 -0.0261
   85SAPS  H15X 8134   1.913   0.407   9.023 -0.3624 -0.2469 -0.2116
   85SAPS  H15Y 8135   2.097   0.380   9.028 -0.4664 -0.2040  0.3405
   85SAPS  C316 8136   2.013   0.439   8.835  0.1860  0.1810 -0.0127
   85SAPS  H16X 8137   2.106   0.489   8.801  0.0755  1.4955  1.5356
   85SAPS  H16Y 8138   1.932   0.494   8.783  2.6333  1.9638 -2.2191
   85SAPS  C317 8139   2.018   0.304   8.775 -0.8466  0.4603 -0.4498
   85SAPS  H17X 8140   2.104   0.250   8.820 -0.5259  2.0091  0.8644
   85SAPS  H17Y 8141   2.040   0.320   8.667 -0.4154 -0.8585 -0.5755
   85SAPS  C318 8142   1.895   0.223   8.791 -0.0160 -0.3584 -0.3711
   85SAPS  H18X 8143   1.893   0.196   8.898  0.1663  0.3756 -0.1771
   85SAPS  H18Y 8144   1.897   0.136   8.722 -0.7917  0.8810 -2.0267
   85SAPS  H18Z 8145   1.795   0.262   8.760 -1.0618 -1.5239  1.3763
   86SAPS     N 8146   4.793   5.700  10.867  0.0452 -0.5002  0.1542
   86SAPS   HN1 8147   4.892   5.730  10.878 -0.2789  0.3708  0.8062
   86SAPS   HN2 8148   4.787   5.597  10.877  0.0172 -0.9427 -3.2289
   86SAPS   HN3 8149   4.769   5.721  10.768 -0.5619  0.7168  0.5352
   86SAPS   C12 8150   4.704   5.774  10.968  0.1835 -0.0055 -0.1303
   86SAPS  H12A 8151   4.602   5.753  10.942 -0.7268  0.2967  2.8411
   86SAPS   C13 8152   4.715   5.714  11.110  0.3045  0.7225  0.3565
   86SAPS  O13A 8153   4.801   5.631  11.137  0.5270 -0.0030  0.0722
   86SAPS  O13B 8154   4.626   5.756  11.188 -0.3980 -0.5775  0.3938
   86SAPS   C11 8155   4.739   5.922  10.972 -0.5061  0.5403  0.3912
   86SAPS  H11A 8156   4.845   5.933  11.005 -0.6287 -0.3199  1.1181
   86SAPS  H11B 8157   4.666   5.964  11.043 -0.7083 -1.4265  1.4274
   86SAPS     P 8158   4.584   6.037  10.779 -0.3477  0.3779  0.0168
   86SAPS   O13 8159   4.507   5.921  10.727  0.3391 -0.1467 -0.0263
   86SAPS   O14 8160   4.518   6.127  10.875 -0.4354 -0.4074  0.5138
   86SAPS   O12 8161   4.718   5.980  10.842 -0.1060  0.4560  0.3375
   86SAPS   O11 8162   4.627   6.117  10.660  0.1136  0.2642  0.4738
   86SAPS    C1 8163   4.739   6.101  10.571  0.4965 -0.4064  0.0722
   86SAPS    HA 8164   4.768   6.201  10.532 -2.0432 -0.1382 -1.3461
   86SAPS    HB 8165   4.826   6.049  10.617  0.9249 -1.3406 -1.6890
   86SAPS    C2 8166   4.701   6.017  10.449 -0.1020  0.2502 -1.1491
   86SAPS    HS 8167   4.632   5.939  10.488  1.2271 -0.3539  0.0904
   86SAPS   O21 8168   4.815   5.962  10.384  0.2792  0.4729 -0.2562
   86SAPS   C21 8169   4.798   5.844  10.325 -0.0602 -0.1322 -0.7297
   86SAPS   O22 8170   4.703   5.770  10.335  0.4061 -0.1333  0.0469
   86SAPS   C22 8171   4.915   5.811  10.244 -0.2891 -0.1975  0.0524
   86SAPS   H2R 8172   4.930   5.901  10.181 -0.7769  0.0358  0.2625
   86SAPS   H2S 8173   5.004   5.795  10.309 -1.0658 -2.0854  0.7195
   86SAPS    C3 8174   4.618   6.101  10.345  0.0366  0.3323 -0.1684
   86SAPS    HX 8175   4.692   6.178  10.315  2.5568  0.3708  4.9761
   86SAPS    HY 8176   4.527   6.155  10.379 -2.4089 -2.1340 -2.2749
   86SAPS   O31 8177   4.591   6.022  10.234  0.7385  0.2660 -0.2284
   86SAPS   C31 8178   4.467   5.964  10.234  1.2909 -0.0051 -0.8704
   86SAPS   O32 8179   4.381   5.986  10.317 -0.4889 -0.0681 -0.1083
   86SAPS   C32 8180   4.452   5.875  10.111 -0.3294 -0.4180 -0.4507
   86SAPS   H2X 8181   4.381   5.790  10.124 -2.4005  1.3930  0.7795
   86SAPS   H2Y 8182   4.547   5.817  10.111 -0.5727 -1.1280  3.9135
   86SAPS   C23 8183   4.898   5.681  10.160  0.4661  0.0383  0.0140
   86SAPS   H3R 8184   4.805   5.692  10.100 -0.9737 -1.5074  1.8201
   86SAPS   H3S 8185   4.888   5.587  10.218  0.1041  0.8000  1.2262
   86SAPS   C24 8186   5.016   5.661  10.068  0.6340  0.3671  0.7069
   86SAPS   H4R 8187   5.111   5.633  10.119  0.1297 -2.2911  0.3148
   86SAPS   H4S 8188   5.045   5.763  10.034  1.2445  0.2175  0.7511
   86SAPS   C25 8189   4.980   5.573   9.951 -0.6818  0.0175  0.4073
   86SAPS   H5R 8190   5.007   5.467   9.958  0.6362  0.1819 -1.4543
   86SAPS   C26 8191   4.946   5.620   9.825 -0.3054 -0.0967 -0.1820
   86SAPS   H6R 8192   4.918   5.548   9.746 -2.3802 -1.7267  1.8940
   86SAPS   C27 8193   4.940   5.769   9.789  0.6239 -0.5077  0.5852
   86SAPS   H7R 8194   5.040   5.787   9.746 -0.2014  0.5278 -0.9796
   86SAPS   H7S 8195   4.930   5.840   9.875  1.9076 -0.0866  0.4050
   86SAPS   C28 8196   4.815   5.798   9.691  0.1455  0.0802 -0.9671
   86SAPS   H8R 8197   4.715   5.828   9.726  0.8760  0.9206  0.4695
   86SAPS   C29 8198   4.825   5.778   9.558 -0.0485 -0.2124 -0.9090
   86SAPS   H9R 8199   4.736   5.792   9.495 -0.6030 -0.3003 -0.1607
   86SAPS  C210 8200   4.946   5.720   9.482 -0.5163 -0.0670  0.6024
   86SAPS  H10R 8201   4.926   5.612   9.467 -0.0932 -0.1129  0.3507
   86SAPS  H10S 8202   5.040   5.720   9.540  1.4283 -2.5707 -2.2613
   86SAPS  C211 8203   4.978   5.782   9.349 -0.1817  0.5794 -0.1356
   86SAPS  H11R 8204   4.937   5.737   9.256 -2.0574 -1.2797  1.4827
   86SAPS  C212 8205   5.045   5.897   9.341 -0.4984 -0.0720 -0.7454
   86SAPS  H12R 8206   5.054   5.938   9.240 -0.7510 -1.9323 -1.5594
   86SAPS  C213 8207   5.097   5.980   9.465  0.4707  0.5034  0.1309
   86SAPS  H13R 8208   5.033   5.962   9.554 -0.0472 -1.3036 -0.5608
   86SAPS  H13S 8209   5.083   6.089   9.450  0.9649  0.5853  0.2337
   86SAPS  C214 8210   5.242   5.950   9.512  0.2950  0.7705 -0.2138
   86SAPS  H14R 8211   5.294   5.863   9.470 -0.5794  1.4804 -2.9878
   86SAPS  C215 8212   5.302   6.031   9.599  0.3498  0.9462 -0.0955
   86SAPS  H15R 8213   5.405   6.005   9.625  1.1558  2.7881 -1.2684
   86SAPS  C216 8214   5.257   6.155   9.679  0.3413  0.5940  0.0759
   86SAPS  H16R 8215   5.146   6.156   9.687  0.3196  2.0780 -0.1052
   86SAPS  H16S 8216   5.288   6.240   9.614  0.0890  1.4005  0.9898
   86SAPS  C217 8217   5.313   6.173   9.821 -0.5140  0.3280 -0.9777
   86SAPS  H17R 8218   5.298   6.278   9.852  2.6913  1.8126 -3.8347
   86SAPS  H17S 8219   5.420   6.149   9.807 -0.5551 -0.9575  0.6576
   86SAPS  C218 8220   5.266   6.067   9.918 -0.4851  0.1920  0.1535
   86SAPS  H18R 8221   5.305   5.966   9.892 -2.2328 -0.1413 -1.4333
   86SAPS  H18S 8222   5.156   6.057   9.915 -0.7161  2.4418 -1.6256
   86SAPS  C219 8223   5.319   6.100  10.063  0.1718 -0.0350 -0.0735
   86SAPS  H19R 8224   5.332   6.209  10.076 -1.4593  0.0697  0.8503
   86SAPS  H19S 8225   5.416   6.047  10.076 -0.9778 -2.2220 -0.0224
   86SAPS  C220 8226   5.212   6.059  10.166 -0.0602  0.6251 -0.5083
   86SAPS  H20R 8227   5.122   6.124  10.163 -0.3098  0.3673  0.7853
   86SAPS  H20S 8228   5.233   6.068  10.275 -2.3552  2.4140 -0.1341
   86SAPS  H20T 8229   5.182   5.954  10.147  0.7721  0.0769  1.0183
   86SAPS   C33 8230   4.445   5.952   9.973  0.3053 -0.4408 -0.0621
   86SAPS   H3X 8231   4.536   6.011   9.954 -0.4876  1.5124  1.7537
   86SAPS   H3Y 8232   4.364   6.028   9.974  1.0410  0.3559  1.5019
   86SAPS   C34 8233   4.412   5.852   9.860 -0.1189 -0.2316  0.2691
   86SAPS   H4X 8234   4.313   5.810   9.889 -1.3285  1.6304 -0.9149
   86SAPS   H4Y 8235   4.492   5.776   9.868 -0.3199 -0.3585  1.1182
   86SAPS   C35 8236   4.396   5.925   9.718  0.3429 -0.7560  0.0033
   86SAPS   H5X 8237   4.380   5.843   9.645 -1.9225 -1.0827  0.8044
   86SAPS   H5Y 8238   4.481   5.989   9.686  0.4963 -1.6134 -1.4108
   86SAPS   C36 8239   4.276   6.021   9.723  0.8641  1.1198 -0.1365
   86SAPS   H6X 8240   4.283   6.098   9.802  0.7234  0.4536  0.5455
   86SAPS   H6Y 8241   4.182   5.964   9.741  1.3730  0.3326  0.1239
   86SAPS   C37 8242   4.257   6.094   9.589  0.5118 -0.0217 -0.4080
   86SAPS   H7X 8243   4.350   6.140   9.550  1.4300 -2.2056 -0.9397
   86SAPS   H7Y 8244   4.184   6.172   9.619  1.4201  0.2315  1.2501
   86SAPS   C38 8245   4.199   6.008   9.477  0.7465 -0.0378 -0.3355
   86SAPS   H8X 8246   4.099   5.976   9.512 -0.3165  0.8699 -2.3795
   86SAPS   H8Y 8247   4.264   5.922   9.451  1.2935  0.8662 -2.1189
   86SAPS   C39 8248   4.186   6.083   9.346  0.1568  0.3217  0.2191
   86SAPS   H9X 8249   4.277   6.146   9.331 -0.6472  2.0260  2.0310
   86SAPS   H9Y 8250   4.105   6.156   9.364 -0.6137 -0.3121 -0.5939
   86SAPS  C310 8251   4.132   6.008   9.225 -0.2828  0.3014  0.2776
   86SAPS  H10X 8252   4.060   5.928   9.254  0.0436 -0.1281 -0.0827
   86SAPS  H10Y 8253   4.213   5.964   9.163  0.4599  0.8789  0.8284
   86SAPS  C311 8254   4.049   6.100   9.131  0.4285  0.2041 -0.1919
   86SAPS  H11X 8255   4.085   6.203   9.108  1.3345  0.5494  2.4105
   86SAPS  H11Y 8256   3.948   6.117   9.174  0.8347  1.1259  0.4155
   86SAPS  C312 8257   4.026   6.027   9.001  0.8225 -0.3888  0.2733
   86SAPS  H12X 8258   3.981   5.927   9.017  1.4085 -0.5294  1.0734
   86SAPS  H12Y 8259   4.123   6.008   8.951  1.3938  1.0036  0.7977
   86SAPS  C313 8260   3.939   6.123   8.909 -0.3908 -0.5225 -0.4665
   86SAPS  H13X 8261   3.996   6.215   8.887 -0.5884 -0.7210 -1.9113
   86SAPS  H13Y 8262   3.854   6.165   8.968 -0.2762  3.3610 -2.7612
   86SAPS  C314 8263   3.872   6.062   8.784 -0.0524  0.0241 -0.3753
   86SAPS  H14X 8264   3.799   5.984   8.814 -0.0946  0.5435  0.9473
   86SAPS  H14Y 8265   3.950   6.014   8.720 -0.6336 -3.3517  1.2627
   86SAPS  C315 8266   3.798   6.170   8.702  0.0790  0.0940  0.7894
   86SAPS  H15X 8267   3.868   6.257   8.700 -0.2310  0.3619  1.3475
   86SAPS  H15Y 8268   3.709   6.193   8.764 -0.5827  1.1818 -0.5155
   86SAPS  C316 8269   3.751   6.114   8.566 -0.6743 -0.1797  0.6662
   86SAPS  H16X 8270   3.697   6.019   8.584 -0.1615 -0.5622  0.1931
   86SAPS  H16Y 8271   3.835   6.085   8.500 -1.5717  0.2621 -0.7292
   86SAPS  C317 8272   3.658   6.207   8.483  0.1782  0.2956  0.0708
   86SAPS  H17X 8273   3.717   6.296   8.453  1.1447  0.2114  1.6135
   86SAPS  H17Y 8274   3.592   6.251   8.561 -0.4246 -0.6492  0.1158
   86SAPS  C318 8275   3.580   6.132   8.379  0.0801  0.1493  0.1662
   86SAPS  H18X 8276   3.503   6.190   8.325 -1.1675 -0.0957  1.6379
   86SAPS  H18Y 8277   3.528   6.047   8.427 -1.5441  0.0710 -1.6312
   86SAPS  H18Z 8278   3.649   6.085   8.305 -0.6728  0.2101 -0.5951
   87SAPS     N 8279   4.812   0.430  10.872 -0.4429 -0.4153 -0.5947
   87SAPS   HN1 8280   4.743   0.462  10.801 -0.0993  1.2175 -0.2285
   87SAPS   HN2 8281   4.868   0.515  10.890 -3.7801  1.6719  1.0188
   87SAPS   HN3 8282   4.874   0.358  10.830  0.4594 -0.0334  0.0644
   87SAPS   C12 8283   4.747   0.386  10.995 -0.1552 -0.0902 -0.1789
   87SAPS  H12A 8284   4.830   0.371  11.063  1.2985 -1.3069 -2.1462
   87SAPS   C13 8285   4.650   0.480  11.066 -1.0587 -0.9568  0.3828
   87SAPS  O13A 8286   4.634   0.592  11.009 -0.3844 -0.4567  0.2611
   87SAPS  O13B 8287   4.616   0.458  11.186  0.2638 -0.1638  0.4657
   87SAPS   C11 8288   4.684   0.249  10.979  0.7051  0.1844 -0.0663
   87SAPS  H11A 8289   4.632   0.224  11.074  0.1368  0.8708 -0.1821
   87SAPS  H11B 8290   4.768   0.177  10.968  2.0053  1.7367 -0.7988
   87SAPS     P 8291   4.450   0.179  10.868  0.4616  0.2400 -0.1538
   87SAPS   O13 8292   4.418   0.123  11.003  0.0281  0.2817  0.3456
   87SAPS   O14 8293   4.358   0.282  10.816 -0.8879 -0.1910  0.6503
   87SAPS   O12 8294   4.595   0.236  10.870 -0.1029 -0.5200  0.0370
   87SAPS   O11 8295   4.457   0.066  10.761 -0.5771  0.1273 -0.0333
   87SAPS    C1 8296   4.344   0.022  10.688  0.0943 -0.1841 -0.1947
   87SAPS    HA 8297   4.350  -0.088  10.702  0.1826 -0.1406  0.1107
   87SAPS    HB 8298   4.249   0.061  10.730  1.3472  1.5222  1.2140
   87SAPS    C2 8299   4.347   0.043  10.530  0.0791  0.4366  0.2097
   87SAPS    HS 8300   4.449   0.015  10.497  0.5959 -0.3568  2.3149
   87SAPS   O21 8301   4.311   0.179  10.492  0.0008 -0.2367  0.4206
   87SAPS   C21 8302   4.412   0.252  10.447 -0.4078  0.5571  0.0851
   87SAPS   O22 8303   4.530   0.221  10.446 -0.0495  0.1572  0.2347
   87SAPS   C22 8304   4.369   0.397  10.412 -0.1245  0.8455 -0.5362
   87SAPS   H2R 8305   4.298   0.422  10.493 -0.8468 -0.1429 -0.8437
   87SAPS   H2S 8306   4.458   0.463  10.415  0.8727 -0.2307 -3.2923
   87SAPS    C3 8307   4.248  -0.042  10.454  0.2899  0.2236 -0.6481
   87SAPS    HX 8308   4.266  -0.023  10.346  1.7271  1.7542 -0.1646
   87SAPS    HY 8309   4.150  -0.001  10.488  1.3872  1.7229  0.8337
   87SAPS   O31 8310   4.246  -0.182  10.498 -0.1971  0.3487  0.3181
   87SAPS   C31 8311   4.152  -0.254  10.438  0.2812  0.3435 -0.1109
   87SAPS   O32 8312   4.063  -0.209  10.364 -0.5790 -0.4418 -0.5132
   87SAPS   C32 8313   4.178  -0.401  10.453 -0.0972  0.6372  0.6115
   87SAPS   H2X 8314   4.157  -0.414  10.562 -0.5991  0.6129  0.5142
   87SAPS   H2Y 8315   4.288  -0.418  10.446 -0.3551 -1.0934  0.5659
   87SAPS   C23 8316   4.304   0.417  10.269  0.1098  0.3274  0.0523
   87SAPS   H3R 8317   4.249   0.514  10.267  0.4976  0.5497  0.2028
   87SAPS   H3S 8318   4.236   0.330  10.254  0.5785 -0.0548  0.1185
   87SAPS   C24 8319   4.413   0.416  10.149  0.6250  0.5096  0.4454
   87SAPS   H4R 8320   4.462   0.317  10.144 -0.7238 -0.1964  0.7002
   87SAPS   H4S 8321   4.495   0.483  10.182  2.3468 -2.2322  2.1376
   87SAPS   C25 8322   4.346   0.456  10.021  0.0290  1.1887  0.4364
   87SAPS   H5R 8323   4.275   0.541  10.022  0.0863  1.2467 -0.0535
   87SAPS   C26 8324   4.359   0.393   9.898 -0.3018  0.5746 -0.2044
   87SAPS   H6R 8325   4.306   0.437   9.812 -2.4835  0.0879  0.8396
   87SAPS   C27 8326   4.433   0.266   9.872 -0.2236 -0.3003  0.1575
   87SAPS   H7R 8327   4.363   0.180   9.865 -1.8755  1.0571 -0.8747
   87SAPS   H7S 8328   4.501   0.250   9.958  2.8935  1.9478 -1.6762
   87SAPS   C28 8329   4.524   0.273   9.746  0.1522 -0.0945 -0.0743
   87SAPS   H8R 8330   4.632   0.277   9.762  0.1088 -0.0934  0.2101
   87SAPS   C29 8331   4.486   0.289   9.616 -0.9913  0.2347  0.2120
   87SAPS   H9R 8332   4.557   0.300   9.533 -1.1839  1.1945  0.1621
   87SAPS  C210 8333   4.341   0.302   9.572  0.2052 -0.1061  0.2490
   87SAPS  H10R 8334   4.292   0.393   9.611 -0.6307  1.3366 -3.7162
   87SAPS  H10S 8335   4.285   0.221   9.624  0.3687  0.6634  1.6689
   87SAPS  C211 8336   4.318   0.311   9.424 -0.0922  0.4294 -0.6850
   87SAPS  H11R 8337   4.383   0.390   9.384 -0.1575 -0.2915 -2.2789
   87SAPS  C212 8338   4.224   0.256   9.346  0.0015 -0.5644 -0.3151
   87SAPS  H12R 8339   4.224   0.274   9.237 -2.7304 -0.0073 -0.2987
   87SAPS  C213 8340   4.108   0.172   9.388 -0.3531  0.0405 -0.1152
   87SAPS  H13R 8341   4.086   0.178   9.497 -1.0417  0.6278 -0.2799
   87SAPS  H13S 8342   4.131   0.065   9.369  0.0606  0.0582  0.2580
   87SAPS  C214 8343   3.988   0.216   9.310 -0.8419  0.6291 -0.4128
   87SAPS  H14R 8344   3.924   0.288   9.363 -1.2945 -0.9205  1.2578
   87SAPS  C215 8345   3.957   0.163   9.186 -0.2925 -0.1407 -0.7163
   87SAPS  H15R 8346   3.870   0.192   9.125  0.4357  0.0766 -1.6732
   87SAPS  C216 8347   4.038   0.065   9.110 -0.5553 -0.1268 -0.1561
   87SAPS  H16R 8348   3.981  -0.024   9.075 -0.1447 -0.6081  0.3934
   87SAPS  H16S 8349   4.127   0.028   9.165  0.6144  2.2775 -0.3090
   87SAPS  C217 8350   4.065   0.138   8.971  0.3986  0.3311 -0.0341
   87SAPS  H17R 8351   4.155   0.097   8.920 -0.2701  1.3064 -2.1187
   87SAPS  H17S 8352   4.079   0.247   8.989 -2.8532  0.7054  0.8282
   87SAPS  C218 8353   3.951   0.120   8.873 -0.4365  0.7380  0.3934
   87SAPS  H18R 8354   3.862   0.186   8.884 -0.9398  0.7657 -2.8874
   87SAPS  H18S 8355   3.931   0.011   8.864 -3.5061  1.1532  0.9530
   87SAPS  C219 8356   4.002   0.155   8.726 -0.0853 -0.2496  0.1410
   87SAPS  H19R 8357   4.100   0.109   8.702 -0.2314 -0.0916 -0.8126
   87SAPS  H19S 8358   4.018   0.265   8.719  1.1426 -0.2915  1.6290
   87SAPS  C220 8359   3.901   0.105   8.626 -0.1386  0.1908 -0.0799
   87SAPS  H20R 8360   3.796   0.090   8.659  0.3324 -0.0403  1.3883
   87SAPS  H20S 8361   3.924  -0.001   8.599 -1.2193  0.3206 -1.6544
   87SAPS  H20T 8362   3.889   0.166   8.534 -1.6227  1.7220  1.0757
   87SAPS   C33 8363   4.091  -0.504  10.373  0.0586 -0.1193 -0.1646
   87SAPS   H3X 8364   3.984  -0.485  10.398 -0.2685 -0.7250 -1.0554
   87SAPS   H3Y 8365   4.123  -0.601  10.416  3.7502  1.5781  1.3760
   87SAPS   C34 8366   4.114  -0.517  10.219 -0.1490 -0.2360 -0.1852
   87SAPS   H4X 8367   4.209  -0.573  10.205  0.2353 -0.5047  2.8770
   87SAPS   H4Y 8368   4.137  -0.414  10.183 -1.1849  0.7720  1.8331
   87SAPS   C35 8369   3.990  -0.574  10.157 -0.2768 -0.2712  0.4271
   87SAPS   H5X 8370   3.911  -0.498  10.172  0.9695  0.9898  0.8157
   87SAPS   H5Y 8371   3.937  -0.656  10.210  1.9027 -3.1857 -1.5687
   87SAPS   C36 8372   4.018  -0.607  10.012  0.0788  0.6350  0.4239
   87SAPS   H6X 8373   4.056  -0.710   9.998 -0.9715  0.2451  0.3085
   87SAPS   H6Y 8374   4.098  -0.548   9.964  0.7580 -0.6809 -0.1021
   87SAPS   C37 8375   3.890  -0.594   9.929  0.3863 -0.7287  0.6857
   87SAPS   H7X 8376   3.870  -0.487   9.909 -2.7554 -1.2100  0.6877
   87SAPS   H7Y 8377   3.805  -0.643   9.980 -1.5241  1.6700  0.0038
   87SAPS   C38 8378   3.894  -0.665   9.794 -0.5392  0.1800  0.6817
   87SAPS   H8X 8379   3.913  -0.770   9.823 -0.1185  0.4735  1.5010
   87SAPS   H8Y 8380   3.978  -0.644   9.724  2.4206 -2.9468  2.9835
   87SAPS   C39 8381   3.763  -0.660   9.710  0.4628 -0.1784 -0.1489
   87SAPS   H9X 8382   3.743  -0.557   9.674  0.5431  0.2312  0.9443
   87SAPS   H9Y 8383   3.674  -0.699   9.765  1.7168 -3.0410  0.0661
   87SAPS  C310 8384   3.776  -0.748   9.584  0.3180 -0.0664 -0.2204
   87SAPS  H10X 8385   3.816  -0.849   9.609 -0.5016 -0.2209  0.5047
   87SAPS  H10Y 8386   3.847  -0.700   9.513 -0.1838 -0.8024 -1.2497
   87SAPS  C311 8387   3.649  -0.761   9.500  0.2535  0.1375 -0.3512
   87SAPS  H11X 8388   3.643  -0.659   9.456 -0.4638  0.1263 -0.2942
   87SAPS  H11Y 8389   3.563  -0.783   9.567 -0.0755  0.2992 -0.7169
   87SAPS  C312 8390   3.658  -0.855   9.380 -0.1870 -0.2729  0.1335
   87SAPS  H12X 8391   3.671  -0.960   9.413 -2.6099 -0.2666  1.3272
   87SAPS  H12Y 8392   3.750  -0.822   9.327 -0.5669 -1.3496 -1.2343
   87SAPS  C313 8393   3.547  -0.833   9.277  0.1449 -0.0940 -0.1502
   87SAPS  H13X 8394   3.540  -0.726   9.247 -1.8818  0.4116  1.8386
   87SAPS  H13Y 8395   3.450  -0.858   9.324  0.6626 -0.1050  0.9544
   87SAPS  C314 8396   3.556  -0.932   9.153 -0.4326 -0.1429 -0.1659
   87SAPS  H14X 8397   3.487  -1.017   9.172 -1.9729  1.6247  3.1978
   87SAPS  H14Y 8398   3.663  -0.961   9.154 -0.4941 -0.3457  0.5823
   87SAPS  C315 8399   3.515  -0.861   9.021  0.3726  0.3486 -0.1926
   87SAPS  H15X 8400   3.586  -0.779   8.999 -0.0202  0.3527 -1.5280
   87SAPS  H15Y 8401   3.412  -0.823   9.039 -0.2808 -2.0628  1.6072
   87SAPS  C316 8402   3.502  -0.958   8.899 -0.0005 -0.5739  0.2344
   87SAPS  H16X 8403   3.465  -1.057   8.935  0.8989 -1.7513 -1.9189
   87SAPS  H16Y 8404   3.602  -0.975   8.855 -0.3312 -0.7437 -0.4655
   87SAPS  C317 8405   3.412  -0.907   8.787 -0.6621 -0.0326 -0.0722
   87SAPS  H17X 8406   3.471  -0.822   8.747  0.2937  0.2499  1.8134
   87SAPS  H17Y 8407   3.313  -0.871   8.825  0.1399  1.4650  0.6968
   87SAPS  C318 8408   3.398  -1.005   8.665 -0.4277 -0.4924 -0.1195
   87SAPS  H18X 8409   3.359  -0.955   8.573 -0.9435  0.9276  0.8318
   87SAPS  H18Y 8410   3.355  -1.103   8.693 -0.4080  0.5348  4.3026
   87SAPS  H18Z 8411   3.503  -1.029   8.639  0.1090  0.6384  0.8631
   88SAPS     N 8412   2.457   2.481  10.682  0.2955  0.0606  0.0587
   88SAPS   HN1 8413   2.538   2.544  10.663 -0.0289  0.8357  1.2154
   88SAPS   HN2 8414   2.478   2.380  10.665  3.0978  1.1402 -4.8206
   88SAPS   HN3 8415   2.385   2.501  10.609 -0.3190  1.0596  0.9187
   88SAPS   C12 8416   2.404   2.513  10.814 -0.0490 -0.5276 -0.3037
   88SAPS  H12A 8417   2.312   2.456  10.825 -1.2091  1.3115  0.0186
   88SAPS   C13 8418   2.503   2.487  10.932  0.1948  0.0844 -0.3444
   88SAPS  O13A 8419   2.607   2.418  10.906  0.1755 -0.5676 -0.4626
   88SAPS  O13B 8420   2.458   2.498  11.048 -0.2419  0.0677  0.1119
   88SAPS   C11 8421   2.364   2.662  10.824 -0.5045 -0.0138 -0.2576
   88SAPS  H11A 8422   2.453   2.728  10.824 -0.0111 -0.6360  1.3149
   88SAPS  H11B 8423   2.307   2.684  10.917  0.4721 -0.0653  0.3603
   88SAPS     P 8424   2.126   2.674  10.714  0.0917  0.4687  0.3461
   88SAPS   O13 8425   2.077   2.575  10.618  0.3950 -0.0576 -0.2435
   88SAPS   O14 8426   2.087   2.642  10.851 -0.0194  0.0345  0.1680
   88SAPS   O12 8427   2.284   2.690  10.708 -0.0450  0.1115 -0.4978
   88SAPS   O11 8428   2.069   2.811  10.675  0.0337 -0.0156 -0.0422
   88SAPS    C1 8429   2.114   2.881  10.560  0.3401  0.2388 -0.2299
   88SAPS    HA 8430   2.076   2.985  10.558  0.7201  0.3868  0.0692
   88SAPS    HB 8431   2.225   2.883  10.550  0.6810 -1.6346  2.2168
   88SAPS    C2 8432   2.053   2.822  10.435  0.5935 -0.4087 -0.6209
   88SAPS    HS 8433   2.066   2.712  10.439  0.6078 -0.3648  1.9514
   88SAPS   O21 8434   2.118   2.881  10.326 -0.3411  0.0637 -0.1670
   88SAPS   C21 8435   2.242   2.837  10.291 -0.1652 -0.7494 -0.5028
   88SAPS   O22 8436   2.308   2.758  10.356 -0.2295 -0.2213 -0.1717
   88SAPS   C22 8437   2.283   2.895  10.163  0.6962  0.1291  0.7820
   88SAPS   H2R 8438   2.274   3.005  10.173 -1.3784 -0.1558  3.2016
   88SAPS   H2S 8439   2.388   2.865  10.143  0.1214 -1.1537 -0.5098
   88SAPS    C3 8440   1.899   2.846  10.428  0.1906  0.8039  0.2351
   88SAPS    HX 8441   1.881   2.955  10.436 -2.7199  0.5210 -1.1786
   88SAPS    HY 8442   1.861   2.798  10.521 -2.5524 -0.5725 -1.4828
   88SAPS   O31 8443   1.843   2.787  10.310  0.6444 -0.3900  0.1072
   88SAPS   C31 8444   1.842   2.873  10.200  0.9001 -1.3192 -0.1076
   88SAPS   O32 8445   1.893   2.988  10.205  0.0713 -0.1769  0.6973
   88SAPS   C32 8446   1.761   2.819  10.090 -0.0683 -0.0557  0.0808
   88SAPS   H2X 8447   1.661   2.857  10.119  0.8016  1.2273  1.4798
   88SAPS   H2Y 8448   1.760   2.708  10.099  2.4472 -0.1506 -0.1947
   88SAPS   C23 8449   2.209   2.839  10.039 -0.1164  0.6019 -0.3242
   88SAPS   H3R 8450   2.257   2.883   9.949  4.5617 -1.1484  0.9978
   88SAPS   H3S 8451   2.105   2.876  10.046  0.4461  2.2296 -0.1860
   88SAPS   C24 8452   2.218   2.678  10.037 -0.1142  0.5366  0.2211
   88SAPS   H4R 8453   2.170   2.651   9.941  1.3007 -0.2105 -0.3058
   88SAPS   H4S 8454   2.144   2.636  10.110 -1.4825  2.2164 -0.1302
   88SAPS   C25 8455   2.362   2.611  10.037  0.6853  0.0205 -0.1024
   88SAPS   H5R 8456   2.368   2.533  10.114  2.4417  0.8441  0.6405
   88SAPS   C26 8457   2.452   2.630   9.937  0.2435 -0.2516  0.2400
   88SAPS   H6R 8458   2.550   2.580   9.935 -0.0513 -0.8264 -1.4247
   88SAPS   C27 8459   2.435   2.719   9.817 -0.2954  0.2367  0.2064
   88SAPS   H7R 8460   2.445   2.822   9.856  1.8016 -0.5096  1.8689
   88SAPS   H7S 8461   2.338   2.701   9.767  0.5217 -2.1360 -0.6744
   88SAPS   C28 8462   2.538   2.717   9.708 -0.3886  0.5980 -0.2026
   88SAPS   H8R 8463   2.633   2.675   9.746 -1.2104  1.3895  3.1116
   88SAPS   C29 8464   2.509   2.733   9.580 -0.1360  0.1735  0.4418
   88SAPS   H9R 8465   2.595   2.723   9.512 -0.0422  2.5559  0.1100
   88SAPS  C210 8466   2.377   2.768   9.511 -0.2594  0.2578  0.4796
   88SAPS  H10R 8467   2.307   2.812   9.585  0.4107 -0.6794  1.7040
   88SAPS  H10S 8468   2.329   2.676   9.473  0.6721 -0.7001  1.5466
   88SAPS  C211 8469   2.407   2.870   9.399  0.0819 -0.3341  0.0223
   88SAPS  H11R 8470   2.427   2.971   9.437 -2.0293  1.1664 -2.5385
   88SAPS  C212 8471   2.403   2.852   9.262  0.5175 -0.5353  0.3875
   88SAPS  H12R 8472   2.429   2.933   9.191 -0.3847  0.4660  1.1604
   88SAPS  C213 8473   2.379   2.721   9.193  0.4167 -0.1306  0.0678
   88SAPS  H13R 8474   2.317   2.654   9.257 -1.2190  1.0651 -0.2006
   88SAPS  H13S 8475   2.472   2.663   9.178  0.3757 -0.0939 -0.3498
   88SAPS  C214 8476   2.313   2.745   9.059 -0.3325  0.1996  0.4382
   88SAPS  H14R 8477   2.242   2.828   9.066 -0.2480  0.4246 -1.1852
   88SAPS  C215 8478   2.342   2.697   8.938 -0.5751  0.1582  0.5894
   88SAPS  H15R 8479   2.292   2.730   8.846  1.5533  1.3250 -0.2117
   88SAPS  C216 8480   2.450   2.601   8.909  0.1354 -0.4317 -0.2755
   88SAPS  H16R 8481   2.421   2.495   8.922 -0.5535 -0.3725 -1.2028
   88SAPS  H16S 8482   2.539   2.623   8.972  0.6734  0.0531 -1.1729
   88SAPS  C217 8483   2.491   2.610   8.762  0.2671  0.3690  0.1152
   88SAPS  H17R 8484   2.520   2.715   8.742  0.7207  0.0986 -0.6873
   88SAPS  H17S 8485   2.410   2.583   8.690  1.2138  1.5583 -1.4690
   88SAPS  C218 8486   2.605   2.518   8.726 -0.0216 -0.1955 -0.1026
   88SAPS  H18R 8487   2.578   2.413   8.750  1.1852 -0.1278  1.7847
   88SAPS  H18S 8488   2.689   2.551   8.792 -0.0243  1.8723 -1.0594
   88SAPS  C219 8489   2.638   2.539   8.576 -0.2404 -0.1636 -0.4348
   88SAPS  H19R 8490   2.633   2.648   8.552 -1.1767 -0.2217 -0.5387
   88SAPS  H19S 8491   2.550   2.509   8.515 -1.0832  1.1729  0.0621
   88SAPS  C220 8492   2.766   2.477   8.525  0.3865 -0.1676  0.3583
   88SAPS  H20R 8493   2.761   2.369   8.548 -0.6160 -0.4468 -1.0339
   88SAPS  H20S 8494   2.862   2.511   8.569 -0.1032 -1.5021  2.6052
   88SAPS  H20T 8495   2.787   2.480   8.416 -0.6423 -0.6790  0.1403
   88SAPS   C33 8496   1.801   2.868   9.952  0.6453 -0.3487  0.3914
   88SAPS   H3X 8497   1.900   2.827   9.924  0.5850  0.0218 -0.3957
   88SAPS   H3Y 8498   1.801   2.979   9.950  1.0764 -0.3109  1.7473
   88SAPS   C34 8499   1.702   2.833   9.844  0.2266 -0.0801  0.1119
   88SAPS   H4X 8500   1.708   2.898   9.754 -3.1979 -1.8790 -1.6188
   88SAPS   H4Y 8501   1.603   2.855   9.889  1.7329  1.7091  2.8256
   88SAPS   C35 8502   1.717   2.688   9.805 -0.3043  0.5276  1.6416
   88SAPS   H5X 8503   1.684   2.628   9.892 -0.2569 -0.0698  1.2512
   88SAPS   H5Y 8504   1.822   2.669   9.773 -0.4340  3.6268 -1.2573
   88SAPS   C36 8505   1.615   2.656   9.691 -0.3637  0.1001 -0.0560
   88SAPS   H6X 8506   1.582   2.756   9.654  0.2002 -0.4775 -2.2647
   88SAPS   H6Y 8507   1.538   2.594   9.741  0.8942 -0.8746  0.7268
   88SAPS   C37 8508   1.677   2.575   9.576 -0.3600  0.7713 -0.3667
   88SAPS   H7X 8509   1.725   2.484   9.619  0.8100  1.6814  0.3347
   88SAPS   H7Y 8510   1.765   2.629   9.534 -0.5608  0.8999 -0.6254
   88SAPS   C38 8511   1.586   2.548   9.452 -0.4202 -0.1369  0.3074
   88SAPS   H8X 8512   1.535   2.641   9.420 -0.6196 -0.6093 -0.7855
   88SAPS   H8Y 8513   1.511   2.475   9.488 -1.4008  0.1510 -1.1129
   88SAPS   C39 8514   1.675   2.500   9.331 -0.0198  0.1837 -0.3919
   88SAPS   H9X 8515   1.715   2.397   9.344  1.4897  0.9651  1.7897
   88SAPS   H9Y 8516   1.763   2.564   9.308  0.6931 -0.9218 -0.7775
   88SAPS  C310 8517   1.592   2.497   9.200  0.3264 -0.5327 -0.5583
   88SAPS  H10X 8518   1.653   2.461   9.115  0.3406  1.7991 -1.6189
   88SAPS  H10Y 8519   1.546   2.596   9.178 -0.4298 -0.9163 -0.7062
   88SAPS  C311 8520   1.481   2.386   9.209 -0.2655  0.3890  0.7211
   88SAPS  H11X 8521   1.403   2.415   9.283 -0.6806 -0.5590  0.6678
   88SAPS  H11Y 8522   1.524   2.287   9.231  1.4825 -0.0114 -3.4987
   88SAPS  C312 8523   1.393   2.375   9.081 -0.4592 -1.0358 -0.3127
   88SAPS  H12X 8524   1.468   2.362   8.999  1.1357  2.6656  0.3451
   88SAPS  H12Y 8525   1.346   2.472   9.052 -0.4393 -1.5589 -2.2384
   88SAPS  C313 8526   1.288   2.261   9.085  0.4481  1.2011 -0.6907
   88SAPS  H13X 8527   1.243   2.238   9.184  1.2861  0.6740 -0.4222
   88SAPS  H13Y 8528   1.347   2.168   9.072 -0.0050  0.7403  0.3439
   88SAPS  C314 8529   1.194   2.269   8.965  0.0351  0.0335 -0.7168
   88SAPS  H14X 8530   1.138   2.365   8.962  0.3365  0.2248 -0.3697
   88SAPS  H14Y 8531   1.120   2.188   8.977 -0.4573  0.6227  0.4126
   88SAPS  C315 8532   1.266   2.254   8.836 -0.1703  0.0721  0.0340
   88SAPS  H15X 8533   1.324   2.160   8.839 -1.1936 -0.5960 -0.6115
   88SAPS  H15Y 8534   1.341   2.332   8.811  2.0413 -1.5145  1.4099
   88SAPS  C316 8535   1.172   2.241   8.716  0.4675 -0.0520 -0.4290
   88SAPS  H16X 8536   1.136   2.341   8.682 -0.8434  0.2981  1.7565
   88SAPS  H16Y 8537   1.082   2.183   8.747 -1.6760  3.4418  0.5189
   88SAPS  C317 8538   1.233   2.158   8.599  0.4059 -0.2648 -0.2374
   88SAPS  H17X 8539   1.153   2.139   8.524  0.6996 -1.6235 -0.2337
   88SAPS  H17Y 8540   1.265   2.057   8.633  0.1880 -1.0016 -2.0898
   88SAPS  C318 8541   1.349   2.220   8.522  0.1679  0.5263  0.1568
   88SAPS  H18X 8542   1.433   2.245   8.590 -0.7397 -0.1444  1.5833
   88SAPS  H18Y 8543   1.325   2.300   8.448  0.7306  0.8681  0.3360
   88SAPS  H18Z 8544   1.392   2.143   8.455  2.5921  0.6281  1.4793
   89SAPS     N 8545   1.140   0.789  10.820 -0.0356  0.1441  0.2127
   89SAPS   HN1 8546   1.128   0.870  10.757 -3.2401 -0.2307  0.1651
   89SAPS   HN2 8547   1.180   0.708  10.769  0.6143 -1.3414  2.8550
   89SAPS   HN3 8548   1.055   0.738  10.853 -0.8714 -0.1916 -2.2917
   89SAPS   C12 8549   1.233   0.822  10.945  0.5992 -0.3431  0.3643
   89SAPS  H12A 8550   1.193   0.914  10.986 -0.7435 -1.5613  1.9320
   89SAPS   C13 8551   1.241   0.712  11.050  0.4424  0.6760 -0.0420
   89SAPS  O13A 8552   1.190   0.597  11.029 -0.4393  0.8298  0.0527
   89SAPS  O13B 8553   1.284   0.740  11.164 -0.3829  0.1151  0.0851
   89SAPS   C11 8554   1.374   0.852  10.889  0.1765  0.3301 -0.6820
   89SAPS  H11A 8555   1.414   0.758  10.846  1.8764  1.4979 -1.7917
   89SAPS  H11B 8556   1.435   0.897  10.970  0.5777  0.1027 -0.8497
   89SAPS     P 8557   1.515   1.029  10.767 -0.2403 -0.3876 -0.3071
   89SAPS   O13 8558   1.512   1.160  10.834 -0.1661  0.1902 -0.0808
   89SAPS   O14 8559   1.621   0.934  10.803  0.0411 -0.3586 -1.2088
   89SAPS   O12 8560   1.379   0.957  10.789 -0.1836 -0.2100 -0.0412
   89SAPS   O11 8561   1.528   1.048  10.606  0.4590  0.4633 -0.2123
   89SAPS    C1 8562   1.438   0.995  10.512 -0.0652 -0.2596 -0.0251
   89SAPS    HA 8563   1.335   0.977  10.549 -0.6951 -1.0469 -2.0335
   89SAPS    HB 8564   1.428   1.062  10.424 -0.0030  0.3165  0.3942
   89SAPS    C2 8565   1.498   0.860  10.472  0.2452 -0.9091  0.1922
   89SAPS    HS 8566   1.530   0.808  10.565  2.3710 -1.5937 -0.8361
   89SAPS   O21 8567   1.608   0.889  10.382 -0.5169  0.2068 -0.4316
   89SAPS   C21 8568   1.718   0.815  10.401 -0.4817 -0.6198 -0.1367
   89SAPS   O22 8569   1.721   0.716  10.466  0.6719 -0.0158 -0.5847
   89SAPS   C22 8570   1.832   0.858  10.308 -0.6539 -0.4029  0.1616
   89SAPS   H2R 8571   1.915   0.910  10.362 -1.4286  0.8071  0.2203
   89SAPS   H2S 8572   1.879   0.767  10.265  1.6253  1.5008 -1.6955
   89SAPS    C3 8573   1.408   0.769  10.388  0.3991 -0.4741  0.2976
   89SAPS    HX 8574   1.319   0.756  10.453  0.4104  2.8466  1.1511
   89SAPS    HY 8575   1.455   0.669  10.382  0.8046 -0.2839  0.3087
   89SAPS   O31 8576   1.387   0.815  10.248 -0.1298 -0.1562 -0.3660
   89SAPS   C31 8577   1.289   0.910  10.229  0.2389 -0.4560 -0.6079
   89SAPS   O32 8578   1.214   0.936  10.324 -0.6862  0.3346 -0.4004
   89SAPS   C32 8579   1.288   0.957  10.092  0.3134 -0.1693 -0.2870
   89SAPS   H2X 8580   1.183   0.939  10.059  0.2210 -0.1733  0.0088
   89SAPS   H2Y 8581   1.357   0.897  10.030 -0.4874 -1.4531  0.0348
   89SAPS   C23 8582   1.787   0.957  10.193 -0.5358  0.9338  0.2164
   89SAPS   H3R 8583   1.885   0.978  10.146  0.7208 -2.1922  1.1154
   89SAPS   H3S 8584   1.737   1.044  10.240  0.7067  1.9323 -0.2792
   89SAPS   C24 8585   1.687   0.904  10.091 -0.1146 -0.0052 -0.0017
   89SAPS   H4R 8586   1.584   0.891  10.132 -0.2339 -4.6304 -1.2317
   89SAPS   H4S 8587   1.726   0.804  10.062  1.7891  0.0811  2.0281
   89SAPS   C25 8588   1.673   0.983   9.971 -0.1861  0.0388  0.0097
   89SAPS   H5R 8589   1.643   1.088   9.986 -0.2478 -0.2975  2.7174
   89SAPS   C26 8590   1.699   0.941   9.845 -0.6871  0.0469 -0.0745
   89SAPS   H6R 8591   1.672   1.005   9.759 -0.8105 -1.3322 -1.0994
   89SAPS   C27 8592   1.746   0.807   9.798 -0.4737 -0.0867  0.2165
   89SAPS   H7R 8593   1.670   0.792   9.718 -0.9462  1.6452  0.3094
   89SAPS   H7S 8594   1.739   0.724   9.872  1.8878 -1.2007 -0.7128
   89SAPS   C28 8595   1.878   0.817   9.735  0.0603 -0.0916  0.6774
   89SAPS   H8R 8596   1.960   0.814   9.809 -1.0990 -0.7907  1.9812
   89SAPS   C29 8597   1.912   0.853   9.609  0.4565 -0.0698 -0.5433
   89SAPS   H9R 8598   2.014   0.874   9.574  0.0381 -1.8676 -3.0837
   89SAPS  C210 8599   1.815   0.874   9.500  0.2209 -0.0777 -0.3938
   89SAPS  H10R 8600   1.718   0.846   9.546  1.3917  0.2650  2.4960
   89SAPS  H10S 8601   1.839   0.807   9.415 -0.8849  0.7349 -1.3857
   89SAPS  C211 8602   1.811   1.019   9.451 -0.2422 -0.1777 -0.0670
   89SAPS  H11R 8603   1.812   1.098   9.527  1.2868 -0.7333  0.5244
   89SAPS  C212 8604   1.811   1.052   9.319 -1.0167 -0.2200 -0.4586
   89SAPS  H12R 8605   1.808   1.159   9.294  1.8437 -0.4044 -2.0208
   89SAPS  C213 8606   1.820   0.961   9.199 -0.0843  0.3662 -0.0495
   89SAPS  H13R 8607   1.723   0.964   9.145  0.2407 -0.4909 -0.6862
   89SAPS  H13S 8608   1.825   0.853   9.222  1.4467  0.3087 -0.5777
   89SAPS  C214 8609   1.932   0.999   9.108 -0.0067 -0.5488  0.5003
   89SAPS  H14R 8610   2.026   0.954   9.142 -0.0322 -0.3589  0.8270
   89SAPS  C215 8611   1.924   1.070   8.993 -0.6316  0.2882  0.0468
   89SAPS  H15R 8612   2.019   1.075   8.937 -0.3935  0.6024  0.4784
   89SAPS  C216 8613   1.797   1.129   8.937 -0.1136 -0.2039  0.3527
   89SAPS  H16R 8614   1.832   1.217   8.879 -1.3149 -0.8273 -1.4087
   89SAPS  H16S 8615   1.718   1.160   9.009  0.1817  0.6569  0.3149
   89SAPS  C217 8616   1.718   1.050   8.829 -0.0487 -0.6203  0.6661
   89SAPS  H17R 8617   1.663   0.967   8.879 -2.0251  1.0685  1.4290
   89SAPS  H17S 8618   1.799   1.017   8.759 -0.9947 -1.0141 -0.2700
   89SAPS  C218 8619   1.631   1.137   8.751  1.2711  0.1366 -0.4962
   89SAPS  H18R 8620   1.697   1.220   8.718 -1.2599  2.6617  0.2974
   89SAPS  H18S 8621   1.561   1.178   8.828  0.5542  0.4808 -1.3150
   89SAPS  C219 8622   1.564   1.070   8.636 -0.3684 -0.3590 -0.2354
   89SAPS  H19R 8623   1.491   0.999   8.680  0.4562 -0.8908  0.2944
   89SAPS  H19S 8624   1.633   1.002   8.582 -0.8337 -0.5174 -0.6338
   89SAPS  C220 8625   1.482   1.156   8.543  0.0144  0.0243 -0.5083
   89SAPS  H20R 8626   1.410   1.094   8.486  2.9107 -0.5789 -3.8016
   89SAPS  H20S 8627   1.544   1.235   8.496  0.1582  0.3415  0.1993
   89SAPS  H20T 8628   1.411   1.211   8.609  0.7622 -0.0420  0.3736
   89SAPS   C33 8629   1.315   1.113  10.083  0.1749 -0.2553  0.7584
   89SAPS   H3X 8630   1.423   1.125  10.104  0.4791  0.2082 -0.9120
   89SAPS   H3Y 8631   1.249   1.169  10.152  1.0259  1.3968  0.2697
   89SAPS   C34 8632   1.272   1.162   9.943  0.5112  0.2286  0.5038
   89SAPS   H4X 8633   1.244   1.268   9.956  2.1611  0.8538 -0.7399
   89SAPS   H4Y 8634   1.179   1.111   9.907  0.5887  1.0047 -0.8484
   89SAPS   C35 8635   1.386   1.149   9.834  0.0165 -0.3526 -0.3155
   89SAPS   H5X 8636   1.399   1.042   9.807 -0.4835 -0.4974 -0.0075
   89SAPS   H5Y 8637   1.481   1.179   9.881  0.3818 -2.5086  0.4659
   89SAPS   C36 8638   1.354   1.221   9.709 -0.5181  0.5348  0.3999
   89SAPS   H6X 8639   1.320   1.325   9.729 -2.1841 -0.1624  1.4543
   89SAPS   H6Y 8640   1.276   1.167   9.652  0.8399  0.4997 -1.5343
   89SAPS   C37 8641   1.483   1.229   9.622  0.1583  0.0974  1.0984
   89SAPS   H7X 8642   1.539   1.133   9.620 -1.8879 -1.1484  1.2345
   89SAPS   H7Y 8643   1.551   1.307   9.664 -0.1538  0.3180  1.2029
   89SAPS   C38 8644   1.449   1.281   9.478  0.9388 -0.1810 -0.6057
   89SAPS   H8X 8645   1.390   1.374   9.467 -0.9586 -1.3104 -0.5294
   89SAPS   H8Y 8646   1.403   1.201   9.416  0.5574  0.2859 -0.9326
   89SAPS   C39 8647   1.572   1.318   9.399  0.5586 -0.3843 -0.0533
   89SAPS   H9X 8648   1.636   1.228   9.390 -1.6117 -2.2825  1.9865
   89SAPS   H9Y 8649   1.622   1.401   9.454 -0.9597  1.1119 -0.8282
   89SAPS  C310 8650   1.539   1.357   9.259  0.2260  0.5469 -0.4918
   89SAPS  H10X 8651   1.472   1.445   9.250 -0.4031 -0.0747 -2.2508
   89SAPS  H10Y 8652   1.496   1.276   9.196  1.0470  0.3862 -0.8622
   89SAPS  C311 8653   1.664   1.407   9.187 -0.3189 -0.0045 -0.4670
   89SAPS  H11X 8654   1.744   1.331   9.176 -0.5650 -0.3369  0.0191
   89SAPS  H11Y 8655   1.703   1.498   9.237 -0.1191 -0.1111 -0.4294
   89SAPS  C312 8656   1.643   1.462   9.041  0.0123 -0.3314  0.4335
   89SAPS  H12X 8657   1.604   1.384   8.972  1.6433 -1.2700  0.5220
   89SAPS  H12Y 8658   1.742   1.492   9.003 -0.0188 -2.5013 -1.5542
   89SAPS  C313 8659   1.543   1.581   9.043  0.0573  0.7110 -0.4137
   89SAPS  H13X 8660   1.585   1.658   9.112 -1.7806  1.5485 -0.1814
   89SAPS  H13Y 8661   1.441   1.549   9.071  0.1254 -0.1232 -1.0921
   89SAPS  C314 8662   1.531   1.642   8.898 -0.1342 -0.5665 -1.0018
   89SAPS  H14X 8663   1.486   1.742   8.918  0.3082 -0.4555 -0.5310
   89SAPS  H14Y 8664   1.458   1.575   8.848 -0.2069 -3.7060  2.7955
   89SAPS  C315 8665   1.663   1.650   8.826 -0.1449  0.1881  0.0144
   89SAPS  H15X 8666   1.706   1.551   8.798 -0.3363  0.6250 -2.0207
   89SAPS  H15Y 8667   1.737   1.698   8.893 -2.0550  3.5039 -0.0498
   89SAPS  C316 8668   1.646   1.747   8.704 -0.6962 -0.4992 -0.2066
   89SAPS  H16X 8669   1.626   1.847   8.749  0.2145 -0.1736 -0.4920
   89SAPS  H16Y 8670   1.551   1.705   8.664 -1.2414  0.5798 -0.0773
   89SAPS  C317 8671   1.756   1.760   8.598 -0.4967 -0.4995 -0.3125
   89SAPS  H17X 8672   1.778   1.659   8.557 -0.4910 -1.0988  1.0815
   89SAPS  H17Y 8673   1.853   1.799   8.634 -0.5643  1.8801 -2.4381
   89SAPS  C318 8674   1.693   1.850   8.488 -0.2298 -0.0270 -0.1748
   89SAPS  H18X 8675   1.753   1.943   8.477 -0.4272  0.2185  0.7475
   89SAPS  H18Y 8676   1.587   1.873   8.512 -0.4363 -2.7631  2.0325
   89SAPS  H18Z 8677   1.695   1.796   8.391  0.1022  2.9175 -1.9556
   90SAPS     N 8678   1.026   0.410  10.899  0.6729  0.0980 -0.3917
   90SAPS   HN1 8679   1.106   0.472  10.925 -0.0372 -0.0838  2.5370
   90SAPS   HN2 8680   0.939   0.466  10.912 -0.5024 -1.4262 -1.4092
   90SAPS   HN3 8681   1.027   0.320  10.951  0.0855 -1.0362 -2.2616
   90SAPS   C12 8682   1.041   0.370  10.759 -0.1610 -0.3472  0.0811
   90SAPS  H12A 8683   1.117   0.294  10.754 -0.5225 -0.8833  1.9591
   90SAPS   C13 8684   0.909   0.325  10.697  0.4636  0.3852 -0.1135
   90SAPS  O13A 8685   0.810   0.312  10.772 -0.1653  0.2277 -0.5182
   90SAPS  O13B 8686   0.913   0.276  10.584  0.0058  0.3970  0.2110
   90SAPS   C11 8687   1.096   0.499  10.683  0.3000  0.5776 -0.0151
   90SAPS  H11A 8688   1.016   0.576  10.687 -0.4781 -0.2130 -0.2755
   90SAPS  H11B 8689   1.102   0.473  10.575  1.5124 -0.4550  0.2838
   90SAPS     P 8690   1.358   0.470  10.694 -0.2263  0.0389  0.0282
   90SAPS   O13 8691   1.469   0.555  10.740  0.3398 -0.4574  0.1739
   90SAPS   O14 8692   1.370   0.333  10.749  0.1563 -0.1367  0.6563
   90SAPS   O12 8693   1.224   0.536  10.738  0.5779 -0.6118 -0.9374
   90SAPS   O11 8694   1.348   0.463  10.533 -0.2393  0.0795 -0.1257
   90SAPS    C1 8695   1.364   0.344  10.462 -1.0356 -0.2036 -0.0165
   90SAPS    HA 8696   1.345   0.247  10.513  1.3585 -1.3783 -1.2213
   90SAPS    HB 8697   1.291   0.347  10.378 -2.1326  1.1556  0.9374
   90SAPS    C2 8698   1.501   0.328  10.389  0.4791  0.5514  0.6054
   90SAPS    HS 8699   1.584   0.342  10.460  0.7256  2.1397  0.0419
   90SAPS   O21 8700   1.495   0.431  10.288  0.0992 -0.3227 -0.8270
   90SAPS   C21 8701   1.606   0.454  10.234 -0.0095 -0.4700  0.1516
   90SAPS   O22 8702   1.717   0.414  10.266  0.2654 -0.6248 -0.0783
   90SAPS   C22 8703   1.587   0.555  10.115 -0.1921 -0.1843 -0.2747
   90SAPS   H2R 8704   1.559   0.651  10.163  0.9291  0.4857 -0.9144
   90SAPS   H2S 8705   1.686   0.574  10.068 -1.4530  2.2425 -2.1863
   90SAPS    C3 8706   1.510   0.183  10.325  0.4470  0.0829 -0.5664
   90SAPS    HX 8707   1.510   0.117  10.414 -1.1531  0.4864 -0.2452
   90SAPS    HY 8708   1.607   0.181  10.271  0.6006  2.6331 -0.5116
   90SAPS   O31 8709   1.398   0.154  10.228  0.2957  1.1015  0.2488
   90SAPS   C31 8710   1.367   0.030  10.222 -0.4083  0.7423 -0.0014
   90SAPS   O32 8711   1.435  -0.068  10.261  0.2052 -0.2718  0.0495
   90SAPS   C32 8712   1.251   0.019  10.123 -0.2807 -0.4374  0.9343
   90SAPS   H2X 8713   1.167   0.085  10.153 -2.1607 -2.6538  0.8309
   90SAPS   H2Y 8714   1.215  -0.086  10.120 -2.1509  0.1927 -1.4302
   90SAPS   C23 8715   1.485   0.504  10.008 -0.4854 -0.5026  0.5166
   90SAPS   H3R 8716   1.458   0.589   9.941 -1.3076 -1.2734 -0.1666
   90SAPS   H3S 8717   1.393   0.461  10.052 -0.5487  2.1135  3.2749
   90SAPS   C24 8718   1.540   0.399   9.907  0.1139 -0.3924  0.0468
   90SAPS   H4R 8719   1.462   0.373   9.833 -1.3317  1.0210  1.0056
   90SAPS   H4S 8720   1.558   0.313   9.975  0.8625  0.8507  1.5028
   90SAPS   C25 8721   1.663   0.445   9.841  0.2922 -0.7243 -0.0205
   90SAPS   H5R 8722   1.744   0.461   9.914  0.3091 -2.2024  0.3295
   90SAPS   C26 8723   1.681   0.471   9.713 -0.4233 -0.2063  0.0657
   90SAPS   H6R 8724   1.783   0.489   9.676 -0.8419 -0.5486 -1.3346
   90SAPS   C27 8725   1.573   0.456   9.605 -0.1097  0.0328 -0.1171
   90SAPS   H7R 8726   1.498   0.536   9.619  0.6018  0.4929  1.2512
   90SAPS   H7S 8727   1.524   0.357   9.615 -1.0459  0.5764  0.8057
   90SAPS   C28 8728   1.632   0.484   9.468 -0.2436  0.5388  0.2690
   90SAPS   H8R 8729   1.639   0.591   9.445 -1.4322  0.2472 -1.6949
   90SAPS   C29 8730   1.670   0.391   9.373  0.5649  0.2055 -0.1247
   90SAPS   H9R 8731   1.700   0.431   9.275 -0.4788  1.2186 -0.0439
   90SAPS  C210 8732   1.669   0.239   9.397  0.2811  0.4858 -0.8009
   90SAPS  H10R 8733   1.577   0.198   9.349  0.1666  0.4564 -0.5524
   90SAPS  H10S 8734   1.666   0.201   9.501 -0.9511 -1.3617 -1.4459
   90SAPS  C211 8735   1.802   0.186   9.344 -0.6561 -0.0156 -0.7236
   90SAPS  H11R 8736   1.895   0.240   9.366 -0.4436 -0.2898 -0.9510
   90SAPS  C212 8737   1.801   0.083   9.260  0.2048 -0.9251  0.0448
   90SAPS  H12R 8738   1.891   0.034   9.220 -0.4600 -0.7611 -1.7769
   90SAPS  C213 8739   1.674   0.011   9.201  0.9442 -0.0271 -0.2827
   90SAPS  H13R 8740   1.601  -0.011   9.281  1.9358  0.2893  0.7295
   90SAPS  H13S 8741   1.708  -0.083   9.152  1.8182 -1.1668  2.3296
   90SAPS  C214 8742   1.618   0.103   9.091  0.1501 -0.4919  0.2870
   90SAPS  H14R 8743   1.610   0.212   9.106 -2.0115 -0.3933 -1.1708
   90SAPS  C215 8744   1.566   0.067   8.972  0.1422 -0.5277 -0.4619
   90SAPS  H15R 8745   1.530   0.144   8.903  0.8034 -2.3019 -2.9142
   90SAPS  C216 8746   1.560  -0.069   8.913 -0.2400  0.4677 -0.5930
   90SAPS  H16R 8747   1.451  -0.086   8.899  0.1712 -0.8288 -2.6926
   90SAPS  H16S 8748   1.584  -0.150   8.984 -0.0853 -0.2323 -1.4213
   90SAPS  C217 8749   1.637  -0.080   8.786 -0.4905  0.0458  0.9719
   90SAPS  H17R 8750   1.643  -0.188   8.760  0.2651  0.6106 -1.3710
   90SAPS  H17S 8751   1.742  -0.044   8.797  0.4136 -2.5049  1.5250
   90SAPS  C218 8752   1.556  -0.010   8.675 -0.5316 -0.9246 -0.2043
   90SAPS  H18R 8753   1.542   0.096   8.708 -0.6343 -1.3334  1.1403
   90SAPS  H18S 8754   1.455  -0.052   8.656 -0.7794  0.6559 -2.9985
   90SAPS  C219 8755   1.626  -0.007   8.537 -0.1459  0.4544  0.0876
   90SAPS  H19R 8756   1.647  -0.113   8.512 -1.5116  0.3343 -0.6627
   90SAPS  H19S 8757   1.720   0.052   8.536 -1.2761  2.3359 -0.8406
   90SAPS  C220 8758   1.544   0.052   8.427 -0.4105  0.0754  0.1749
   90SAPS  H20R 8759   1.502   0.148   8.467 -0.2295  0.5324 -0.7044
   90SAPS  H20S 8760   1.468  -0.021   8.393 -0.8068  0.5801 -0.0554
   90SAPS  H20T 8761   1.598   0.083   8.335 -0.2866  2.1806  0.9038
   90SAPS   C33 8762   1.286   0.075   9.985 -0.1130 -0.9583  0.7228
   90SAPS   H3X 8763   1.386   0.041   9.949  0.6341  0.6311  1.1755
   90SAPS   H3Y 8764   1.288   0.184  10.007 -1.3758 -0.9318  0.7413
   90SAPS   C34 8765   1.175   0.043   9.884 -0.5244 -0.5165  0.6709
   90SAPS   H4X 8766   1.068   0.054   9.913 -0.8945 -3.2873  0.5996
   90SAPS   H4Y 8767   1.188  -0.066   9.870  4.6151 -0.2057  1.3657
   90SAPS   C35 8768   1.204   0.088   9.741  0.4062 -0.1721 -0.0323
   90SAPS   H5X 8769   1.142   0.028   9.671 -1.1501 -0.5105  1.5532
   90SAPS   H5Y 8770   1.310   0.077   9.711  0.0305  0.6595 -1.8113
   90SAPS   C36 8771   1.167   0.231   9.723 -0.5899 -0.7144 -0.0867
   90SAPS   H6X 8772   1.240   0.304   9.764 -2.4171  2.2078 -1.7327
   90SAPS   H6Y 8773   1.070   0.242   9.775 -0.6297 -1.1509 -0.0605
   90SAPS   C37 8774   1.144   0.268   9.579 -0.9666 -0.7889 -0.2568
   90SAPS   H7X 8775   1.085   0.362   9.590  1.0611  0.6431 -0.8126
   90SAPS   H7Y 8776   1.095   0.190   9.517 -0.3034 -1.5847  0.2027
   90SAPS   C38 8777   1.276   0.308   9.499 -0.3483 -0.5374 -0.1487
   90SAPS   H8X 8778   1.355   0.230   9.503  0.6577  0.4601  0.1544
   90SAPS   H8Y 8779   1.313   0.395   9.558 -1.2484 -2.0314  2.8469
   90SAPS   C39 8780   1.246   0.352   9.354 -0.0252 -0.9323 -0.0948
   90SAPS   H9X 8781   1.277   0.455   9.328 -0.8272 -0.7713 -0.4609
   90SAPS   H9Y 8782   1.135   0.362   9.347  0.1869  1.9445 -0.2512
   90SAPS  C310 8783   1.287   0.243   9.256  0.0089  1.2221 -0.1716
   90SAPS  H10X 8784   1.223   0.154   9.276  1.4536  0.2045  0.0663
   90SAPS  H10Y 8785   1.392   0.213   9.274 -1.1785 -2.4662  1.7672
   90SAPS  C311 8786   1.265   0.291   9.113 -0.2196 -0.1324  0.3360
   90SAPS  H11X 8787   1.360   0.333   9.074 -0.2545 -0.4027 -0.0550
   90SAPS  H11Y 8788   1.190   0.372   9.105 -0.9231 -0.9483 -4.1170
   90SAPS  C312 8789   1.215   0.172   9.018  0.0116  0.0973 -0.7849
   90SAPS  H12X 8790   1.123   0.133   9.066  1.3106 -0.3508  1.4967
   90SAPS  H12Y 8791   1.280   0.082   9.029 -1.4442 -0.9511 -0.4473
   90SAPS  C313 8792   1.194   0.216   8.878  0.3728  0.3358  0.0173
   90SAPS  H13X 8793   1.280   0.266   8.828 -0.5451  2.1331  0.1517
   90SAPS  H13Y 8794   1.107   0.285   8.874  1.2235  1.5094  0.9783
   90SAPS  C314 8795   1.153   0.092   8.795  0.4300 -0.8334  0.2105
   90SAPS  H14X 8796   1.050   0.059   8.818  0.1044 -1.5274 -2.0589
   90SAPS  H14Y 8797   1.227   0.016   8.828  1.0487 -1.6878 -2.8187
   90SAPS  C315 8798   1.158   0.109   8.637 -0.1408  0.2147  0.2102
   90SAPS  H15X 8799   1.131   0.010   8.595  2.4749 -2.0815  3.3485
   90SAPS  H15Y 8800   1.261   0.135   8.608  0.2380 -1.3336  0.0602
   90SAPS  C316 8801   1.059   0.216   8.581 -0.2011  0.0898  0.2597
   90SAPS  H16X 8802   1.079   0.319   8.618 -0.4019  1.0604 -2.1571
   90SAPS  H16Y 8803   0.956   0.184   8.610 -0.3161  0.0642 -0.1720
   90SAPS  C317 8804   1.068   0.220   8.423 -0.1995 -0.4224 -0.6920
   90SAPS  H17X 8805   0.981   0.271   8.378 -1.1767 -3.0618 -2.0018
   90SAPS  H17Y 8806   1.070   0.118   8.380  0.7409 -0.8769  0.3545
   90SAPS  C318 8807   1.198   0.289   8.367  0.1940  0.2369 -0.3317
   90SAPS  H18X 8808   1.284   0.229   8.405  0.7634  0.4850 -1.1894
   90SAPS  H18Y 8809   1.190   0.395   8.398 -3.1619  0.8973 -2.8471
   90SAPS  H18Z 8810   1.192   0.291   8.256 -0.3126 -0.2264 -0.3161
   91SAPS     N 8811   6.694   2.128   5.913  0.4965 -0.3241 -0.5264
   91SAPS   HN1 8812   6.651   2.136   5.819  0.6401  0.5569 -0.5224
   91SAPS   HN2 8813   6.696   2.027   5.939  1.7897  0.0579  0.9832
   91SAPS   HN3 8814   6.624   2.180   5.970 -0.9117  0.6467 -2.9745
   91SAPS   C12 8815   6.820   2.200   5.941 -0.0239 -0.2804  0.4133
   91SAPS  H12A 8816   6.892   2.147   5.880  0.4368 -0.0097  0.7187
   91SAPS   C13 8817   6.826   2.345   5.886 -0.0198  0.5135 -0.9475
   91SAPS  O13A 8818   6.733   2.396   5.819 -0.8707 -0.1127 -0.1580
   91SAPS  O13B 8819   6.936   2.407   5.906 -0.0319  0.4669  0.4354
   91SAPS   C11 8820   6.845   2.217   6.090  0.7595 -0.2253 -0.4796
   91SAPS  H11A 8821   6.932   2.283   6.109  0.1009  0.5424 -0.0733
   91SAPS  H11B 8822   6.849   2.116   6.135 -2.8641 -0.6675 -0.8202
   91SAPS     P 8823   6.719   2.333   6.297 -0.3130 -0.5775 -0.3902
   91SAPS   O13 8824   6.714   2.480   6.268 -0.1617 -0.1986 -0.1813
   91SAPS   O14 8825   6.604   2.277   6.364 -0.1697  0.1294 -0.2185
   91SAPS   O12 8826   6.730   2.276   6.150  0.6060  0.1068 -0.2965
   91SAPS   O11 8827   6.860   2.290   6.361  0.4255  0.0569 -0.3646
   91SAPS    C1 8828   6.978   2.370   6.390 -0.0933 -0.8217 -0.2858
   91SAPS    HA 8829   7.068   2.331   6.338 -1.4865 -3.7489 -0.7479
   91SAPS    HB 8830   6.967   2.469   6.340  2.4905  0.5769  1.6972
   91SAPS    C2 8831   7.014   2.386   6.539  0.4371  0.0582 -0.4667
   91SAPS    HS 8832   7.094   2.463   6.539  0.2921  0.2092 -1.0258
   91SAPS   O21 8833   7.041   2.254   6.605 -0.0621 -0.4024 -0.1865
   91SAPS   C21 8834   7.163   2.207   6.590 -0.3779  0.1310 -0.3047
   91SAPS   O22 8835   7.245   2.258   6.514  0.4298 -0.3340 -0.4474
   91SAPS   C22 8836   7.183   2.086   6.676 -0.3241 -0.5509  0.2831
   91SAPS   H2R 8837   7.118   2.002   6.643  0.1817 -1.9367  2.5901
   91SAPS   H2S 8838   7.292   2.066   6.665  0.0823  1.3927  0.4379
   91SAPS    C3 8839   6.893   2.448   6.612 -0.1104 -0.1320  0.2059
   91SAPS    HX 8840   6.814   2.375   6.640  1.3326 -1.0008  2.2319
   91SAPS    HY 8841   6.848   2.519   6.539 -0.9775  0.0234  0.8817
   91SAPS   O31 8842   6.942   2.525   6.724  0.8164  1.0604 -0.1982
   91SAPS   C31 8843   6.920   2.466   6.844  0.1678 -0.3407  0.7887
   91SAPS   O32 8844   6.893   2.347   6.856 -0.1721 -0.2484  0.1570
   91SAPS   C32 8845   6.930   2.571   6.957  0.5215  0.5541  0.1368
   91SAPS   H2X 8846   6.831   2.622   6.958  0.6799  0.8569  0.3205
   91SAPS   H2Y 8847   7.002   2.654   6.942 -0.7893  1.6701 -0.1303
   91SAPS   C23 8848   7.159   2.124   6.824 -0.2862  0.0522  0.3554
   91SAPS   H3R 8849   7.177   2.031   6.883  1.1775  0.2226  0.2249
   91SAPS   H3S 8850   7.050   2.143   6.823 -0.4178 -0.4049 -2.4030
   91SAPS   C24 8851   7.238   2.242   6.885 -0.1223 -0.1457  1.1293
   91SAPS   H4R 8852   7.184   2.264   6.980 -1.9076 -0.4332  0.2287
   91SAPS   H4S 8853   7.230   2.335   6.824  0.4178 -1.0568 -0.3719
   91SAPS   C25 8854   7.386   2.212   6.909  0.7808  0.2429  0.1075
   91SAPS   H5R 8855   7.441   2.162   6.827  1.2486  2.7334 -1.1893
   91SAPS   C26 8856   7.451   2.247   7.022  0.4884 -0.0320 -0.0906
   91SAPS   H6R 8857   7.554   2.214   7.041 -0.2794 -2.1128  0.7593
   91SAPS   C27 8858   7.397   2.329   7.140 -0.4529 -0.0587  0.3923
   91SAPS   H7R 8859   7.330   2.411   7.106  2.0973  1.5501 -1.0141
   91SAPS   H7S 8860   7.488   2.386   7.166  0.8806 -2.2444  0.7581
   91SAPS   C28 8861   7.339   2.253   7.258 -0.8402  0.6151  0.6464
   91SAPS   H8R 8862   7.278   2.171   7.220  0.1737 -0.4521  1.2669
   91SAPS   C29 8863   7.371   2.260   7.393  0.1811 -1.1664 -0.0427
   91SAPS   H9R 8864   7.313   2.206   7.469 -0.8372  0.2822  0.2525
   91SAPS  C210 8865   7.460   2.365   7.454 -0.2066  0.4391  0.3731
   91SAPS  H10R 8866   7.492   2.430   7.370 -1.9998 -0.5096 -1.1293
   91SAPS  H10S 8867   7.544   2.305   7.496 -0.8879 -3.0606 -2.7367
   91SAPS  C211 8868   7.391   2.465   7.543  0.2144 -0.3445 -0.1358
   91SAPS  H11R 8869   7.317   2.531   7.494 -0.7692 -2.0745 -1.0596
   91SAPS  C212 8870   7.406   2.484   7.678 -0.0179  0.3214  0.2654
   91SAPS  H12R 8871   7.351   2.569   7.722  0.8910  0.6586  0.7896
   91SAPS  C213 8872   7.482   2.399   7.781  0.2896  0.9962  0.6665
   91SAPS  H13R 8873   7.589   2.419   7.760  0.1485  2.2274  1.0643
   91SAPS  H13S 8874   7.462   2.291   7.765  1.2639  1.1528 -2.1182
   91SAPS  C214 8875   7.436   2.432   7.919 -0.3935  0.0331 -0.2702
   91SAPS  H14R 8876   7.326   2.428   7.931 -0.2905  0.6975  1.0030
   91SAPS  C215 8877   7.517   2.472   8.018  0.8387  0.3114 -0.2406
   91SAPS  H15R 8878   7.453   2.510   8.099  0.7596  2.3482 -1.2007
   91SAPS  C216 8879   7.665   2.500   8.019  0.0680  0.1524 -0.3341
   91SAPS  H16R 8880   7.672   2.610   8.031 -2.0920  0.2402  0.7296
   91SAPS  H16S 8881   7.716   2.473   7.924 -2.5438 -0.3382 -1.6985
   91SAPS  C217 8882   7.742   2.446   8.143  0.5561 -0.5438 -0.1073
   91SAPS  H17R 8883   7.669   2.441   8.227 -1.1917  2.6154 -1.2274
   91SAPS  H17S 8884   7.795   2.534   8.186  1.0107 -1.5595  1.4963
   91SAPS  C218 8885   7.817   2.317   8.126 -0.4980  0.9543 -0.0339
   91SAPS  H18R 8886   7.887   2.304   8.211  0.5764 -3.6200 -1.3660
   91SAPS  H18S 8887   7.888   2.330   8.041  0.2036 -0.2191  0.3579
   91SAPS  C219 8888   7.721   2.199   8.113 -0.2641 -0.3252 -0.3501
   91SAPS  H19R 8889   7.770   2.106   8.076 -0.0114  0.0766 -1.0329
   91SAPS  H19S 8890   7.646   2.216   8.033 -1.2115 -1.9777  0.1228
   91SAPS  C220 8891   7.661   2.159   8.247 -0.1151 -0.8730  0.3589
   91SAPS  H20R 8892   7.711   2.073   8.297 -1.0176 -1.1751  0.7613
   91SAPS  H20S 8893   7.553   2.136   8.236  0.1446 -1.1328 -2.6231
   91SAPS  H20T 8894   7.663   2.230   8.332  0.1513 -0.2033 -0.1872
   91SAPS   C33 8895   6.941   2.506   7.091  0.5529 -0.0284 -0.7475
   91SAPS   H3X 8896   7.032   2.443   7.098  0.0898 -0.6229  0.0305
   91SAPS   H3Y 8897   6.853   2.442   7.111 -0.1297  0.3940 -2.2157
   91SAPS   C34 8898   6.950   2.620   7.197  0.0738 -0.5289  0.4365
   91SAPS   H4X 8899   6.861   2.685   7.182  0.5057 -0.1036 -0.3319
   91SAPS   H4Y 8900   7.043   2.678   7.182 -1.3087  1.8777  0.6707
   91SAPS   C35 8901   6.958   2.549   7.335  0.0173  0.1336  0.4248
   91SAPS   H5X 8902   7.032   2.466   7.328 -0.0560  0.1176 -0.2393
   91SAPS   H5Y 8903   6.863   2.493   7.346  0.0898  0.0544  0.6663
   91SAPS   C36 8904   6.995   2.644   7.447 -0.8569  0.2621  0.0977
   91SAPS   H6X 8905   6.922   2.727   7.439 -0.4234  0.5483 -0.9903
   91SAPS   H6Y 8906   7.100   2.682   7.443 -0.0853 -1.8008 -0.5942
   91SAPS   C37 8907   6.974   2.574   7.585  0.0010  0.4311 -0.4360
   91SAPS   H7X 8908   7.064   2.512   7.607  0.6092  0.7314 -1.9139
   91SAPS   H7Y 8909   6.891   2.502   7.576  0.2583  0.0677  0.0369
   91SAPS   C38 8910   6.953   2.663   7.708 -0.1428  0.0219  0.2749
   91SAPS   H8X 8911   6.848   2.698   7.713 -0.0335  0.6082 -1.0854
   91SAPS   H8Y 8912   7.013   2.757   7.700  0.3834 -0.4290 -1.7988
   91SAPS   C39 8913   6.982   2.575   7.833 -0.4683 -0.0489  0.4458
   91SAPS   H9X 8914   7.090   2.549   7.822 -0.4706  0.7168 -2.0560
   91SAPS   H9Y 8915   6.921   2.484   7.845 -0.1316 -0.1012  2.0168
   91SAPS  C310 8916   6.969   2.655   7.962 -0.1933 -0.1563 -0.4292
   91SAPS  H10X 8917   6.861   2.677   7.974 -0.5871 -1.5737 -1.0919
   91SAPS  H10Y 8918   7.019   2.752   7.978  0.1389 -0.5594  1.1187
   91SAPS  C311 8919   7.014   2.562   8.074  0.3932  0.2962  0.3042
   91SAPS  H11X 8920   7.124   2.554   8.075  0.5121  1.4262  2.7662
   91SAPS  H11Y 8921   6.976   2.458   8.064  0.9402  0.0428  0.8106
   91SAPS  C312 8922   6.964   2.608   8.213 -0.3540  0.9980 -0.6499
   91SAPS  H12X 8923   6.957   2.718   8.203  0.6899  1.0549 -0.8935
   91SAPS  H12Y 8924   7.029   2.579   8.298 -1.8616  1.7108  0.8012
   91SAPS  C313 8925   6.824   2.552   8.252 -0.6593  0.9440 -0.2623
   91SAPS  H13X 8926   6.818   2.442   8.238 -0.1782  0.7592  0.8328
   91SAPS  H13Y 8927   6.745   2.604   8.194  1.1735  2.9782 -1.0234
   91SAPS  C314 8928   6.793   2.574   8.396  0.3367 -0.9136  0.5108
   91SAPS  H14X 8929   6.826   2.674   8.428  0.0266 -0.1899 -1.2984
   91SAPS  H14Y 8930   6.853   2.501   8.455 -0.9777 -2.4469  0.0459
   91SAPS  C315 8931   6.649   2.566   8.430 -0.1935  0.0903 -0.3099
   91SAPS  H15X 8932   6.606   2.467   8.401  0.2359 -1.0381  2.6242
   91SAPS  H15Y 8933   6.589   2.642   8.374  0.8017  1.6085  0.6273
   91SAPS  C316 8934   6.613   2.591   8.575 -0.0817 -1.0057  0.8959
   91SAPS  H16X 8935   6.672   2.673   8.621 -1.2601 -0.6065  1.7708
   91SAPS  H16Y 8936   6.637   2.508   8.644  0.3029 -0.5667  1.2940
   91SAPS  C317 8937   6.472   2.630   8.609 -0.6429 -0.6472  0.0649
   91SAPS  H17X 8938   6.410   2.541   8.584 -0.7336 -0.2504 -1.2292
   91SAPS  H17Y 8939   6.428   2.716   8.552 -0.7433  0.3545  1.5942
   91SAPS  C318 8940   6.465   2.661   8.755 -0.8671 -0.1033  0.8085
   91SAPS  H18X 8941   6.501   2.578   8.819  1.9202  0.2059 -0.2154
   91SAPS  H18Y 8942   6.360   2.683   8.783 -1.6844 -1.5831 -0.9112
   91SAPS  H18Z 8943   6.524   2.753   8.778 -0.5452  0.1870 -0.9961
   92SAPS     N 8944   1.227   5.436   6.123 -0.2411  0.4391 -0.3025
   92SAPS   HN1 8945   1.287   5.379   6.186 -0.2560 -0.1974 -0.8500
   92SAPS   HN2 8946   1.290   5.465   6.045 -1.0559  0.0898 -1.1084
   92SAPS   HN3 8947   1.192   5.512   6.185 -3.1940 -2.1949  1.6109
   92SAPS   C12 8948   1.111   5.353   6.079 -0.1388 -0.3954 -0.7350
   92SAPS  H12A 8949   1.044   5.426   6.036  1.1148 -0.8124 -3.6345
   92SAPS   C13 8950   1.150   5.246   5.976 -0.0365 -0.6442  0.7247
   92SAPS  O13A 8951   1.266   5.224   5.931 -0.6867  0.1508  0.4600
   92SAPS  O13B 8952   1.051   5.191   5.918 -0.2713 -0.2014 -0.2368
   92SAPS   C11 8953   1.048   5.273   6.192 -0.5371  0.3085  0.1343
   92SAPS  H11A 8954   1.129   5.206   6.228 -0.8602  1.0272  2.3244
   92SAPS  H11B 8955   0.958   5.215   6.161  0.5955 -1.0711 -0.7386
   92SAPS     P 8956   0.866   5.406   6.323 -0.0099  0.5445 -0.2713
   92SAPS   O13 8957   0.854   5.504   6.430  0.0539 -0.0718 -0.0472
   92SAPS   O14 8958   0.795   5.433   6.196  0.2539 -0.0429  0.3020
   92SAPS   O12 8959   1.014   5.372   6.290  0.2419  0.3421  0.3568
   92SAPS   O11 8960   0.807   5.268   6.371  0.6811  0.4615 -1.1152
   92SAPS    C1 8961   0.688   5.267   6.453  0.7149  0.1525  0.1612
   92SAPS    HA 8962   0.664   5.371   6.483 -0.5264  0.0202 -0.3272
   92SAPS    HB 8963   0.609   5.218   6.392  0.7098  0.4193 -0.0485
   92SAPS    C2 8964   0.687   5.187   6.584 -0.1414  0.4850 -1.2177
   92SAPS    HS 8965   0.624   5.234   6.662  0.4273 -0.9585  0.1793
   92SAPS   O21 8966   0.823   5.180   6.635 -0.0710 -0.4532 -0.0998
   92SAPS   C21 8967   0.830   5.176   6.767 -0.3975  0.0634 -0.1209
   92SAPS   O22 8968   0.738   5.197   6.847  0.4910  0.6126  0.3709
   92SAPS   C22 8969   0.978   5.159   6.808  0.2058 -0.4021  0.1098
   92SAPS   H2R 8970   1.034   5.105   6.729 -0.1606  0.1482 -0.5343
   92SAPS   H2S 8971   1.013   5.264   6.809 -2.5670  0.6042 -0.4065
   92SAPS    C3 8972   0.635   5.040   6.565  0.3855 -1.2850 -0.6250
   92SAPS    HX 8973   0.720   4.977   6.530  0.0174 -2.1210 -0.0446
   92SAPS    HY 8974   0.565   5.034   6.480 -1.9399  0.2415  1.0758
   92SAPS   O31 8975   0.594   4.988   6.688  0.1134  0.4820  0.4411
   92SAPS   C31 8976   0.467   5.034   6.729 -0.0970  0.1543  1.0066
   92SAPS   O32 8977   0.398   5.116   6.666  0.2780  0.1178  0.6487
   92SAPS   C32 8978   0.444   4.967   6.868 -0.3041 -0.2017  0.0022
   92SAPS   H2X 8979   0.508   4.879   6.889 -0.3162  0.2557  2.2203
   92SAPS   H2Y 8980   0.338   4.931   6.868  0.4731 -2.7831  1.8778
   92SAPS   C23 8981   1.015   5.099   6.944 -0.0189 -0.0274  0.1161
   92SAPS   H3R 8982   0.971   5.146   7.035 -0.5677 -0.6472  0.1741
   92SAPS   H3S 8983   1.123   5.118   6.961 -0.1831  0.7850  0.2932
   92SAPS   C24 8984   1.007   4.954   6.966  0.0256  0.2921 -0.5633
   92SAPS   H4R 8985   1.062   4.921   7.057  0.2624 -0.2373 -0.8977
   92SAPS   H4S 8986   1.065   4.912   6.881  1.9430 -0.6484  1.1351
   92SAPS   C25 8987   0.863   4.913   6.967 -0.7410 -0.3723  0.1241
   92SAPS   H5R 8988   0.832   4.884   6.865  0.3013 -0.8332 -0.0792
   92SAPS   C26 8989   0.778   4.902   7.072 -0.1485  0.3718 -0.2448
   92SAPS   H6R 8990   0.675   4.865   7.056 -0.0324 -0.6015  1.0737
   92SAPS   C27 8991   0.814   4.950   7.211 -0.1091  0.0969 -0.4800
   92SAPS   H7R 8992   0.816   5.061   7.216  0.4835  0.0371  1.0824
   92SAPS   H7S 8993   0.923   4.931   7.223 -0.0229  1.5252  1.3692
   92SAPS   C28 8994   0.748   4.874   7.327 -0.3208 -0.6704 -0.0459
   92SAPS   H8R 8995   0.690   4.785   7.300  0.8621 -0.4382 -3.9299
   92SAPS   C29 8996   0.733   4.923   7.457  0.2934 -0.5914 -1.0929
   92SAPS   H9R 8997   0.672   4.859   7.523  2.3177 -0.5015  0.9658
   92SAPS  C210 8998   0.769   5.057   7.504 -0.3450 -0.2535  0.8723
   92SAPS  H10R 8999   0.833   5.114   7.433  0.6087  0.6386  2.3924
   92SAPS  H10S 9000   0.830   5.047   7.596  2.5637 -0.3508 -0.9539
   92SAPS  C211 9001   0.646   5.142   7.530 -0.1319 -0.7663 -0.5879
   92SAPS  H11R 9002   0.579   5.145   7.444 -0.0378 -0.6773 -0.6584
   92SAPS  C212 9003   0.612   5.186   7.648  0.0346 -0.3869 -0.0622
   92SAPS  H12R 9004   0.518   5.244   7.646  0.3652  0.2413  1.4801
   92SAPS  C213 9005   0.681   5.178   7.780 -0.2130 -0.3237 -0.0704
   92SAPS  H13R 9006   0.750   5.091   7.778 -0.8755 -0.8444 -1.2484
   92SAPS  H13S 9007   0.602   5.171   7.859  0.7181  2.3484  1.2120
   92SAPS  C214 9008   0.775   5.286   7.815 -0.0813 -0.4050  0.1822
   92SAPS  H14R 9009   0.832   5.327   7.730 -0.7346  3.4417  1.4265
   92SAPS  C215 9010   0.792   5.346   7.936  0.0243  0.8570  0.1505
   92SAPS  H15R 9011   0.849   5.438   7.950  0.4461  0.8374 -1.2926
   92SAPS  C216 9012   0.719   5.301   8.063  0.2625 -0.1855 -0.6212
   92SAPS  H16R 9013   0.673   5.200   8.061 -0.3970  0.0663  0.5539
   92SAPS  H16S 9014   0.624   5.358   8.070  1.0261  1.1785 -0.9508
   92SAPS  C217 9015   0.795   5.323   8.190 -0.5466 -0.2265  0.0254
   92SAPS  H17R 9016   0.893   5.272   8.180 -0.3151 -0.5010  2.7410
   92SAPS  H17S 9017   0.752   5.274   8.280  1.2707  1.0178  1.6590
   92SAPS  C218 9018   0.828   5.471   8.224  0.1277 -0.1133 -0.2569
   92SAPS  H18R 9019   0.870   5.526   8.138  0.3624 -0.6071 -0.4604
   92SAPS  H18S 9020   0.907   5.467   8.302 -0.1755 -0.1432  0.0556
   92SAPS  C219 9021   0.722   5.546   8.307 -0.3866 -0.2479  0.2155
   92SAPS  H19R 9022   0.703   5.487   8.399  0.2988 -1.1131 -0.1764
   92SAPS  H19S 9023   0.626   5.535   8.253 -1.6739 -1.3691  2.5899
   92SAPS  C220 9024   0.760   5.688   8.350  0.0086 -0.1755  0.2963
   92SAPS  H20R 9025   0.786   5.746   8.259 -1.7326  0.5844  0.2489
   92SAPS  H20S 9026   0.847   5.689   8.420 -1.1078  3.2023  1.8632
   92SAPS  H20T 9027   0.676   5.735   8.406 -1.3577 -2.4937  0.3089
   92SAPS   C33 9028   0.441   5.074   6.979  0.2701  0.0790 -0.5033
   92SAPS   H3X 9029   0.373   5.157   6.951  2.1821  2.2443  0.9237
   92SAPS   H3Y 9030   0.544   5.111   6.997 -0.6888  1.3866  3.1799
   92SAPS   C34 9031   0.401   5.010   7.120 -0.0380  0.6515 -0.2366
   92SAPS   H4X 9032   0.468   4.925   7.144 -0.1242  0.4169 -0.7956
   92SAPS   H4Y 9033   0.304   4.956   7.116  0.9289 -1.2473  0.4872
   92SAPS   C35 9034   0.403   5.104   7.244  0.4497 -0.7204  0.4957
   92SAPS   H5X 9035   0.505   5.149   7.245 -0.0641  0.6140  3.3505
   92SAPS   H5Y 9036   0.383   5.052   7.340  0.9201  1.2350  1.7133
   92SAPS   C36 9037   0.302   5.226   7.220 -0.5117 -0.8569  0.3325
   92SAPS   H6X 9038   0.202   5.178   7.219  0.4469 -2.9833 -2.0933
   92SAPS   H6Y 9039   0.324   5.278   7.124  1.0082  1.8465  2.0084
   92SAPS   C37 9040   0.313   5.327   7.336  0.9601 -0.4661 -0.6849
   92SAPS   H7X 9041   0.254   5.416   7.307  1.5180  0.0611 -0.2403
   92SAPS   H7Y 9042   0.413   5.371   7.357  1.5492 -2.0872  0.1444
   92SAPS   C38 9043   0.260   5.263   7.470 -0.3672  0.3394  0.0903
   92SAPS   H8X 9044   0.331   5.200   7.527 -0.9229  1.1353  1.6948
   92SAPS   H8Y 9045   0.171   5.202   7.443  1.6930 -2.2557 -1.3412
   92SAPS   C39 9046   0.203   5.362   7.571  0.3834  0.4696  0.3210
   92SAPS   H9X 9047   0.105   5.405   7.542 -1.2012 -0.7400  3.4331
   92SAPS   H9Y 9048   0.286   5.433   7.590  2.0359 -1.0391 -0.8394
   92SAPS  C310 9049   0.172   5.301   7.709  0.2251 -0.1988  0.0406
   92SAPS  H10X 9050   0.097   5.220   7.699 -0.9064  0.6782  1.1429
   92SAPS  H10Y 9051   0.133   5.379   7.777  1.4888  1.2507 -0.8190
   92SAPS  C311 9052   0.289   5.252   7.796 -0.0115 -0.5295 -0.2369
   92SAPS  H11X 9053   0.359   5.336   7.808 -1.4013  0.4189  1.9572
   92SAPS  H11Y 9054   0.332   5.171   7.733  0.6401  0.6489 -1.3310
   92SAPS  C312 9055   0.228   5.205   7.930 -0.1309  0.2737 -0.2585
   92SAPS  H12X 9056   0.159   5.119   7.922  1.0739 -0.8202  0.8358
   92SAPS  H12Y 9057   0.159   5.286   7.963  2.1820  2.5272 -0.6127
   92SAPS  C313 9058   0.334   5.182   8.041  0.0454  0.7700 -0.2698
   92SAPS  H13X 9059   0.396   5.271   8.067 -0.3206  1.2507 -1.0039
   92SAPS  H13Y 9060   0.398   5.098   8.009 -1.6806 -1.0575  0.8562
   92SAPS  C314 9061   0.265   5.126   8.171  0.3325 -0.2193 -0.6581
   92SAPS  H14X 9062   0.196   5.040   8.154 -0.1454 -0.7534  3.1656
   92SAPS  H14Y 9063   0.198   5.201   8.217 -0.0326 -1.1098  0.2993
   92SAPS  C315 9064   0.357   5.077   8.277  0.1747 -0.4965 -0.2772
   92SAPS  H15X 9065   0.389   5.159   8.344 -3.8161  0.2537  1.0179
   92SAPS  H15Y 9066   0.448   5.030   8.234 -0.5207 -0.9916 -1.2418
   92SAPS  C316 9067   0.291   4.967   8.358  0.1890 -0.4176 -0.0068
   92SAPS  H16X 9068   0.262   4.887   8.286 -0.6973 -0.6708  0.6207
   92SAPS  H16Y 9069   0.204   5.018   8.404 -0.5943 -1.0066 -0.8146
   92SAPS  C317 9070   0.377   4.919   8.469 -0.3035  1.4515  0.1513
   92SAPS  H17X 9071   0.411   4.989   8.548  1.6897  2.2328 -1.3162
   92SAPS  H17Y 9072   0.469   4.879   8.421 -0.7762 -2.1988  1.8479
   92SAPS  C318 9073   0.315   4.800   8.543  0.0266  0.1889 -0.4329
   92SAPS  H18X 9074   0.284   4.724   8.468  1.1399 -0.0249 -0.6881
   92SAPS  H18Y 9075   0.228   4.840   8.600 -1.3652 -1.6659 -1.1466
   92SAPS  H18Z 9076   0.395   4.758   8.608 -0.2283  1.3717  0.6854
   93SAPS     N 9077   6.739   5.612   6.090 -0.2173  0.0230  1.2147
   93SAPS   HN1 9078   6.776   5.704   6.122 -0.7578  0.8154 -0.3242
   93SAPS   HN2 9079   6.788   5.535   6.140  1.7041 -0.0196 -0.5953
   93SAPS   HN3 9080   6.766   5.602   5.990  0.9726  2.6852  1.1930
   93SAPS   C12 9081   6.596   5.614   6.095  0.2407  0.1124  0.0428
   93SAPS  H12A 9082   6.581   5.626   6.202 -0.5728  1.7941 -0.2321
   93SAPS   C13 9083   6.536   5.736   6.022 -0.1840  0.8999 -0.5892
   93SAPS  O13A 9084   6.603   5.834   5.974  0.0400  0.4414  0.2988
   93SAPS  O13B 9085   6.414   5.730   6.002  0.4323  0.6398  0.0408
   93SAPS   C11 9086   6.539   5.476   6.042 -0.3909 -0.3753 -0.0041
   93SAPS  H11A 9087   6.567   5.462   5.936  0.1682 -0.1882  0.1149
   93SAPS  H11B 9088   6.428   5.487   6.045 -0.2411  1.5212  0.0174
   93SAPS     P 9089   6.510   5.305   6.247 -0.1899 -0.3962 -0.2340
   93SAPS   O13 9090   6.478   5.164   6.220 -0.3845 -0.0512 -0.1279
   93SAPS   O14 9091   6.592   5.336   6.365 -0.5735 -0.5615 -0.5637
   93SAPS   O12 9092   6.579   5.366   6.120  0.1540 -0.8415 -0.2466
   93SAPS   O11 9093   6.375   5.389   6.260  0.2797 -0.1802  0.3396
   93SAPS    C1 9094   6.356   5.461   6.379 -0.2071 -0.2749 -0.0629
   93SAPS    HA 9095   6.444   5.506   6.429  3.3543 -4.9367 -1.4004
   93SAPS    HB 9096   6.286   5.545   6.356 -1.2690 -1.5373 -1.6665
   93SAPS    C2 9097   6.267   5.381   6.477 -0.6964 -0.2697 -0.3855
   93SAPS    HS 9098   6.241   5.451   6.560  0.4079  0.1918 -0.4195
   93SAPS   O21 9099   6.340   5.265   6.528  0.0866 -0.3187  0.4035
   93SAPS   C21 9100   6.428   5.303   6.619 -0.2344 -0.5099 -0.3040
   93SAPS   O22 9101   6.447   5.419   6.660  0.2027 -0.3438 -0.0352
   93SAPS   C22 9102   6.490   5.172   6.684 -0.1183  0.5091 -0.1181
   93SAPS   H2R 9103   6.463   5.082   6.624  0.5795 -0.1865  0.5925
   93SAPS   H2S 9104   6.600   5.184   6.681  0.3361 -2.8132 -1.5681
   93SAPS    C3 9105   6.133   5.321   6.413 -0.5096 -0.0234 -0.1244
   93SAPS    HX 9106   6.159   5.243   6.338 -0.3121  0.2896 -0.3848
   93SAPS    HY 9107   6.096   5.408   6.355  0.3249  1.4531  1.4601
   93SAPS   O31 9108   6.044   5.275   6.514 -0.6348  0.4555 -0.4763
   93SAPS   C31 9109   6.004   5.147   6.528 -0.8936 -0.4027  0.3587
   93SAPS   O32 9110   6.018   5.063   6.440 -0.0154 -0.3288 -0.3228
   93SAPS   C32 9111   5.948   5.124   6.670  0.4938  0.4458  0.4482
   93SAPS   H2X 9112   5.895   5.026   6.674  0.7111  0.2655 -0.7653
   93SAPS   H2Y 9113   5.869   5.202   6.672  0.5961  0.6917 -1.8387
   93SAPS   C23 9114   6.433   5.176   6.831 -0.7116  0.0468 -0.2637
   93SAPS   H3R 9115   6.323   5.165   6.838 -0.9954  1.6627 -1.5548
   93SAPS   H3S 9116   6.463   5.272   6.879 -1.5619 -0.3224  1.0632
   93SAPS   C24 9117   6.496   5.056   6.919 -0.0502  0.6820 -0.2263
   93SAPS   H4R 9118   6.471   4.957   6.875  0.1609 -0.5739  2.3019
   93SAPS   H4S 9119   6.432   5.050   7.010 -1.5057 -0.6731 -1.2727
   93SAPS   C25 9120   6.646   5.053   6.946  0.7106  0.3138  0.3612
   93SAPS   H5R 9121   6.710   5.041   6.857  2.5188 -0.5737  1.7308
   93SAPS   C26 9122   6.709   5.075   7.064  0.2034 -0.6228  0.7733
   93SAPS   H6R 9123   6.818   5.067   7.064  0.2797 -0.5485 -1.9042
   93SAPS   C27 9124   6.655   5.112   7.196 -0.2376 -0.7636  0.8325
   93SAPS   H7R 9125   6.685   5.037   7.273  0.2042 -3.2214 -1.5925
   93SAPS   H7S 9126   6.545   5.100   7.202 -0.0488 -2.9450  0.6648
   93SAPS   C28 9127   6.684   5.250   7.242 -0.2795 -0.8114  0.1178
   93SAPS   H8R 9128   6.720   5.313   7.159  0.4781  0.2560  1.2251
   93SAPS   C29 9129   6.657   5.304   7.357 -0.1947 -0.6963 -0.3318
   93SAPS   H9R 9130   6.699   5.405   7.366 -1.9620  0.2333 -1.6770
   93SAPS  C210 9131   6.588   5.238   7.472  0.5971 -0.2950 -0.5696
   93SAPS  H10R 9132   6.488   5.193   7.452  0.6730 -0.6572 -0.1679
   93SAPS  H10S 9133   6.567   5.317   7.547 -0.0804 -0.3411 -0.7028
   93SAPS  C211 9134   6.667   5.133   7.542 -0.2809  0.3280  0.1792
   93SAPS  H11R 9135   6.749   5.089   7.482  1.2818 -0.4438  2.7126
   93SAPS  C212 9136   6.663   5.092   7.672  0.1362 -1.4280  0.4226
   93SAPS  H12R 9137   6.744   5.034   7.718  0.8450  1.7296  3.5678
   93SAPS  C213 9138   6.575   5.149   7.774 -0.3630 -0.2238 -0.0722
   93SAPS  H13R 9139   6.476   5.114   7.738  0.0218 -1.9708  0.4796
   93SAPS  H13S 9140   6.589   5.259   7.776  2.2821 -0.3824 -2.8393
   93SAPS  C214 9141   6.594   5.101   7.914  0.3404 -0.0740 -0.2226
   93SAPS  H14R 9142   6.635   4.999   7.915 -0.3812 -0.3958 -1.4780
   93SAPS  C215 9143   6.553   5.160   8.028  0.2142  0.6095 -0.0317
   93SAPS  H15R 9144   6.575   5.112   8.124  0.9943  0.2003 -0.4037
   93SAPS  C216 9145   6.474   5.289   8.046  0.3893 -0.5682  0.1686
   93SAPS  H16R 9146   6.376   5.266   8.091  0.7059  1.7027  2.2522
   93SAPS  H16S 9147   6.459   5.330   7.944  3.1578 -1.2844 -0.6342
   93SAPS  C217 9148   6.545   5.400   8.125  0.2409  0.7456 -0.3186
   93SAPS  H17R 9149   6.476   5.487   8.118 -0.9122 -0.2043 -1.0215
   93SAPS  H17S 9150   6.641   5.426   8.076  0.0757 -0.4484 -1.3230
   93SAPS  C218 9151   6.571   5.360   8.267  0.2036  0.3041 -0.5229
   93SAPS  H18R 9152   6.622   5.261   8.264 -0.6235 -0.1122 -1.6333
   93SAPS  H18S 9153   6.477   5.347   8.324  0.6244 -2.3092 -0.2963
   93SAPS  C219 9154   6.647   5.467   8.337  0.4173 -0.1505 -0.6806
   93SAPS  H19R 9155   6.623   5.464   8.446 -1.1928  1.1019 -0.9562
   93SAPS  H19S 9156   6.606   5.565   8.303 -1.4448 -0.9452 -0.8296
   93SAPS  C220 9157   6.796   5.456   8.310 -0.5034 -1.0050  0.5691
   93SAPS  H20R 9158   6.841   5.547   8.355 -0.3505 -0.8999  0.2052
   93SAPS  H20S 9159   6.814   5.442   8.202  0.4168  0.0212  0.5727
   93SAPS  H20T 9160   6.831   5.364   8.361 -1.3001 -1.5873  0.0862
   93SAPS   C33 9161   6.047   5.139   6.788 -0.0113 -0.6632  0.5110
   93SAPS   H3X 9162   6.098   5.235   6.764 -1.1970  0.3823  1.9461
   93SAPS   H3Y 9163   6.125   5.061   6.796  0.5913 -0.1752 -0.4604
   93SAPS   C34 9164   5.975   5.163   6.925 -0.7662  0.7820  0.7241
   93SAPS   H4X 9165   5.901   5.081   6.941 -1.3910  0.8053 -1.6934
   93SAPS   H4Y 9166   5.915   5.254   6.907  0.0267  0.8915 -1.7090
   93SAPS   C35 9167   6.087   5.174   7.029 -0.0368  0.4294 -1.1908
   93SAPS   H5X 9168   6.127   5.275   7.004 -1.6765  1.6196  0.6814
   93SAPS   H5Y 9169   6.167   5.100   7.006 -1.3533 -1.0432 -1.2026
   93SAPS   C36 9170   6.030   5.155   7.168  0.1542  0.3934  0.8116
   93SAPS   H6X 9171   5.995   5.050   7.175  0.9174  0.1680  1.3603
   93SAPS   H6Y 9172   5.943   5.222   7.188 -1.6707 -2.2619  2.3439
   93SAPS   C37 9173   6.135   5.178   7.274 -0.1262 -0.2096  0.3873
   93SAPS   H7X 9174   6.174   5.281   7.284  2.4540 -1.2104  1.5423
   93SAPS   H7Y 9175   6.221   5.113   7.244 -0.2063  0.9341 -2.6820
   93SAPS   C38 9176   6.088   5.137   7.418  0.1181  0.3158 -0.1549
   93SAPS   H8X 9177   6.181   5.121   7.476 -0.4080 -1.7594  0.1953
   93SAPS   H8Y 9178   6.041   5.037   7.413 -0.8437  0.7941 -1.0799
   93SAPS   C39 9179   5.993   5.231   7.486 -0.1445 -0.5288  0.1510
   93SAPS   H9X 9180   5.901   5.246   7.425 -0.1352  1.4803  0.5892
   93SAPS   H9Y 9181   6.049   5.325   7.502  1.1797 -1.4494  1.1707
   93SAPS  C310 9182   5.947   5.179   7.630 -0.5520  1.1327  0.0748
   93SAPS  H10X 9183   5.905   5.078   7.618  1.0455  0.6771 -2.8161
   93SAPS  H10Y 9184   5.870   5.254   7.659 -0.1890  1.9298 -0.9087
   93SAPS  C311 9185   6.066   5.164   7.729  0.0419  0.0589 -0.0883
   93SAPS  H11X 9186   6.117   5.261   7.742 -0.4090  0.3862 -0.7118
   93SAPS  H11Y 9187   6.135   5.093   7.677  1.3109  0.6917  0.7047
   93SAPS  C312 9188   6.034   5.115   7.871 -0.2601  0.1788 -0.8472
   93SAPS  H12X 9189   5.978   5.019   7.877 -1.4044  0.9108  1.4132
   93SAPS  H12Y 9190   5.969   5.194   7.915 -0.5568  0.4173 -1.6980
   93SAPS  C313 9191   6.159   5.103   7.965 -0.7197 -0.2367  0.2253
   93SAPS  H13X 9192   6.235   5.183   7.952  2.0242 -2.8234 -0.9184
   93SAPS  H13Y 9193   6.212   5.008   7.942  1.2011  0.3562  1.8722
   93SAPS  C314 9194   6.128   5.111   8.120 -0.5093  0.3314 -0.5291
   93SAPS  H14X 9195   6.028   5.064   8.136  0.1266 -1.0490 -0.5267
   93SAPS  H14Y 9196   6.118   5.218   8.149 -1.3208  0.6179 -1.7673
   93SAPS  C315 9197   6.232   5.037   8.208 -0.7600 -0.2138 -0.3458
   93SAPS  H15X 9198   6.330   5.088   8.215 -0.3120 -0.9887 -0.8984
   93SAPS  H15Y 9199   6.256   4.938   8.164  1.0160  0.1761 -0.3291
   93SAPS  C316 9200   6.180   5.028   8.355 -0.1645  0.2575 -0.1317
   93SAPS  H16X 9201   6.076   4.991   8.362 -0.1544  0.3114  0.3636
   93SAPS  H16Y 9202   6.191   5.130   8.396 -0.5750 -0.0526  0.7656
   93SAPS  C317 9203   6.271   4.943   8.444  0.5696 -0.0655  0.1249
   93SAPS  H17X 9204   6.240   4.951   8.550 -0.8734  0.1889 -0.3014
   93SAPS  H17Y 9205   6.377   4.976   8.433  0.9692 -0.6988  1.7643
   93SAPS  C318 9206   6.258   4.792   8.416  0.1554  0.2817 -0.4067
   93SAPS  H18X 9207   6.152   4.770   8.393  0.6694 -0.2391 -2.5198
   93SAPS  H18Y 9208   6.290   4.735   8.505  1.1915  0.1206 -0.8668
   93SAPS  H18Z 9209   6.324   4.768   8.330  1.8201  0.9350  0.6404
   94SAPS     N 9210   0.815   1.505   5.968  0.1136  0.2152 -0.6074
   94SAPS   HN1 9211   0.768   1.490   5.876 -2.0112  2.3652  0.0316
   94SAPS   HN2 9212   0.917   1.486   5.956  0.6335  0.7166  2.1788
   94SAPS   HN3 9213   0.784   1.434   6.037 -0.6006  1.8140  0.7939
   94SAPS   C12 9214   0.779   1.641   6.011 -0.2252  0.0135 -0.2153
   94SAPS  H12A 9215   0.842   1.701   5.947 -0.2367 -1.7731 -1.9999
   94SAPS   C13 9216   0.627   1.663   6.005  0.1565 -0.2395  0.3494
   94SAPS  O13A 9217   0.549   1.569   5.967  0.7666 -0.1831  0.0051
   94SAPS  O13B 9218   0.578   1.776   6.039  0.2851  0.1478 -0.6069
   94SAPS   C11 9219   0.823   1.651   6.159  0.4447 -0.3349  0.0195
   94SAPS  H11A 9220   0.769   1.578   6.223  0.6572 -0.3387  0.1982
   94SAPS  H11B 9221   0.799   1.754   6.194  0.3364 -0.2114 -0.4101
   94SAPS     P 9222   1.048   1.578   6.275  0.4877  0.0197  0.0666
   94SAPS   O13 9223   1.019   1.431   6.281  0.2333  0.5043 -0.4779
   94SAPS   O14 9224   1.186   1.616   6.253  0.1262 -0.5854 -0.0140
   94SAPS   O12 9225   0.960   1.637   6.164 -0.0042  0.9283  0.0615
   94SAPS   O11 9226   0.990   1.643   6.402 -0.0283  0.5628 -0.2487
   94SAPS    C1 9227   0.994   1.783   6.437  0.3304 -0.5122  0.2449
   94SAPS    HA 9228   0.998   1.846   6.345  0.4597  0.2076  0.7287
   94SAPS    HB 9229   0.908   1.813   6.499 -1.3044  1.0502 -2.5458
   94SAPS    C2 9230   1.125   1.815   6.510  0.1653  0.0052 -0.0477
   94SAPS    HS 9231   1.204   1.791   6.436 -1.3994  1.1205 -2.2068
   94SAPS   O21 9232   1.129   1.731   6.633  0.0955  0.3009 -0.4530
   94SAPS   C21 9233   1.246   1.681   6.668 -0.5367 -0.3704 -0.1770
   94SAPS   O22 9234   1.348   1.681   6.596  0.8723  0.5091 -0.1442
   94SAPS   C22 9235   1.236   1.614   6.809  0.2160 -0.6790  0.6244
   94SAPS   H2R 9236   1.319   1.667   6.862  0.2160 -0.3143  0.2668
   94SAPS   H2S 9237   1.138   1.639   6.856  1.0134 -2.2236  3.3198
   94SAPS    C3 9238   1.148   1.964   6.561 -0.3057  0.1567 -0.3908
   94SAPS    HX 9239   1.057   1.993   6.617 -1.0284 -2.7789  0.1133
   94SAPS    HY 9240   1.164   2.038   6.480  0.0554  1.3698  0.7586
   94SAPS   O31 9241   1.250   1.968   6.664  0.1630 -0.4862 -0.2535
   94SAPS   C31 9242   1.373   1.995   6.625  0.2442  0.4676 -0.3586
   94SAPS   O32 9243   1.407   2.038   6.518  0.6931 -0.1528 -0.5167
   94SAPS   C32 9244   1.468   1.965   6.739 -0.7830  0.0910  0.4773
   94SAPS   H2X 9245   1.494   1.857   6.731 -0.6271  0.2306 -1.4245
   94SAPS   H2Y 9246   1.430   1.979   6.842 -1.3326 -1.4881  0.5222
   94SAPS   C23 9247   1.255   1.463   6.807  0.7319  0.8681 -0.4694
   94SAPS   H3R 9248   1.342   1.425   6.751 -0.5172 -1.6952 -0.8127
   94SAPS   H3S 9249   1.167   1.414   6.761 -0.3739  0.9057  1.4774
   94SAPS   C24 9250   1.271   1.418   6.958 -0.2342 -0.2257  0.3182
   94SAPS   H4R 9251   1.371   1.454   6.991  0.3340 -1.6927  0.2808
   94SAPS   H4S 9252   1.278   1.308   6.945  0.2015 -0.3699  1.6034
   94SAPS   C25 9253   1.167   1.463   7.054 -0.3501  0.0785  0.2564
   94SAPS   H5R 9254   1.064   1.430   7.035 -1.3121  2.2513  1.3921
   94SAPS   C26 9255   1.189   1.529   7.167 -0.0519 -0.5208  0.5611
   94SAPS   H6R 9256   1.101   1.561   7.225 -0.1445 -0.2284  0.2618
   94SAPS   C27 9257   1.322   1.578   7.217 -0.6497  0.6846 -0.3923
   94SAPS   H7R 9258   1.307   1.666   7.284 -1.4975  0.1431  0.1469
   94SAPS   H7S 9259   1.386   1.634   7.145 -0.4828 -0.4317 -1.1356
   94SAPS   C28 9260   1.400   1.475   7.299 -0.3426 -0.3283  0.0512
   94SAPS   H8R 9261   1.459   1.408   7.235  3.1227  1.7901  0.7854
   94SAPS   C29 9262   1.409   1.466   7.435  0.0959 -1.0159  0.1399
   94SAPS   H9R 9263   1.482   1.394   7.474 -0.5804 -1.0372  1.4186
   94SAPS  C210 9264   1.343   1.549   7.541 -0.2272 -0.4620 -0.1934
   94SAPS  H10R 9265   1.232   1.541   7.540 -0.6385  3.1026  1.3589
   94SAPS  H10S 9266   1.373   1.654   7.520  1.9346 -1.4935 -2.8991
   94SAPS  C211 9267   1.394   1.510   7.684 -1.0289 -0.4833  0.2989
   94SAPS  H11R 9268   1.317   1.456   7.742 -0.9881 -1.4192 -0.4966
   94SAPS  C212 9269   1.519   1.538   7.745  0.0611  0.1122  0.1136
   94SAPS  H12R 9270   1.541   1.493   7.842 -0.7814 -0.8405 -0.1253
   94SAPS  C213 9271   1.642   1.609   7.690 -0.8524  0.7844  0.8147
   94SAPS  H13R 9272   1.626   1.629   7.582  0.7187 -2.1016 -0.0714
   94SAPS  H13S 9273   1.734   1.546   7.688 -0.8204  0.7825 -2.0509
   94SAPS  C214 9274   1.668   1.734   7.761 -0.1400  0.4120  0.1854
   94SAPS  H14R 9275   1.581   1.800   7.770 -0.6822  0.4128 -3.4060
   94SAPS  C215 9276   1.781   1.786   7.816 -0.5809  0.0842 -0.3189
   94SAPS  H15R 9277   1.785   1.883   7.867  1.8698  0.9183 -1.8950
   94SAPS  C216 9278   1.919   1.717   7.829  1.0398  0.5624  0.0839
   94SAPS  H16R 9279   1.993   1.757   7.757  2.0514 -1.9296 -0.3671
   94SAPS  H16S 9280   1.912   1.607   7.812 -0.9430  0.7294 -0.4333
   94SAPS  C217 9281   1.984   1.729   7.973 -0.5114  0.1007  0.2415
   94SAPS  H17R 9282   1.919   1.667   8.038 -0.8531 -2.1207 -2.0366
   94SAPS  H17S 9283   1.985   1.834   8.010 -0.6421 -0.5421  2.1685
   94SAPS  C218 9284   2.125   1.667   7.981  0.1918  0.0516 -0.0655
   94SAPS  H18R 9285   2.189   1.732   7.917  0.2194 -1.3787 -1.5437
   94SAPS  H18S 9286   2.126   1.563   7.943  0.5964 -0.3353  0.9606
   94SAPS  C219 9287   2.175   1.682   8.128  0.5752 -0.1052 -0.4637
   94SAPS  H19R 9288   2.156   1.782   8.171  0.6131 -0.4457  0.3583
   94SAPS  H19S 9289   2.286   1.687   8.123  0.5495  1.2534 -0.0458
   94SAPS  C220 9290   2.137   1.569   8.229  0.0499  0.7353  1.0601
   94SAPS  H20R 9291   2.032   1.582   8.260 -0.0761  0.7771  0.6261
   94SAPS  H20S 9292   2.210   1.583   8.312 -1.8931  2.0649  2.6257
   94SAPS  H20T 9293   2.156   1.468   8.186  0.6078  0.9363  0.8270
   94SAPS   C33 9294   1.593   2.052   6.726 -0.4665 -0.5041 -0.2495
   94SAPS   H3X 9295   1.572   2.161   6.734 -0.3712 -0.4857 -0.2434
   94SAPS   H3Y 9296   1.641   2.031   6.629 -1.5319  0.5325 -1.0337
   94SAPS   C34 9297   1.703   2.014   6.824 -0.5554 -0.0055 -0.6363
   94SAPS   H4X 9298   1.748   1.919   6.790  1.9183  1.7420 -2.6991
   94SAPS   H4Y 9299   1.668   2.011   6.929  2.3272  0.6162  0.4265
   94SAPS   C35 9300   1.807   2.123   6.817  0.3266 -0.6258  0.8652
   94SAPS   H5X 9301   1.754   2.220   6.826 -1.7514 -1.6370  0.1534
   94SAPS   H5Y 9302   1.846   2.130   6.713 -1.1658  1.9117  0.3931
   94SAPS   C36 9303   1.911   2.123   6.923  0.0539 -0.0888  0.1016
   94SAPS   H6X 9304   1.965   2.219   6.908 -3.0837  1.5361 -2.2974
   94SAPS   H6Y 9305   1.978   2.041   6.892 -1.0028  0.0215 -2.8020
   94SAPS   C37 9306   1.859   2.121   7.071  0.4880 -0.6903  0.0267
   94SAPS   H7X 9307   1.811   2.023   7.089  1.4129 -0.9983  0.8689
   94SAPS   H7Y 9308   1.787   2.205   7.085  0.5670 -0.6437  0.1502
   94SAPS   C38 9309   1.971   2.144   7.168 -0.4438  0.3802  0.3490
   94SAPS   H8X 9310   2.032   2.235   7.149  0.4262 -0.1369  0.5900
   94SAPS   H8Y 9311   2.044   2.064   7.145  0.0098  1.0594 -0.6810
   94SAPS   C39 9312   1.947   2.131   7.319 -0.4174 -0.0039  0.1854
   94SAPS   H9X 9313   1.953   2.027   7.359  3.7437 -0.5121 -1.3186
   94SAPS   H9Y 9314   1.850   2.177   7.350  0.5908  0.3945  2.9875
   94SAPS  C310 9315   2.050   2.209   7.408  0.1024 -0.2421 -0.1167
   94SAPS  H10X 9316   2.077   2.307   7.364  1.6702 -0.5473  0.1326
   94SAPS  H10Y 9317   2.142   2.147   7.401  0.4329  0.4021 -2.5566
   94SAPS  C311 9318   2.005   2.225   7.560 -0.1901 -0.3948  0.1922
   94SAPS  H11X 9319   1.947   2.137   7.595 -1.3905  0.4804  0.4869
   94SAPS  H11Y 9320   1.935   2.310   7.574 -2.5113 -2.2738  0.7452
   94SAPS  C312 9321   2.125   2.242   7.653  0.2720 -0.4321  0.1457
   94SAPS  H12X 9322   2.206   2.302   7.608 -0.0615  0.3810  0.6100
   94SAPS  H12Y 9323   2.157   2.137   7.671 -3.2097 -1.8562 -1.0715
   94SAPS  C313 9324   2.085   2.305   7.793  0.6601  0.0559 -0.0804
   94SAPS  H13X 9325   2.031   2.400   7.772  1.1344  0.1076 -1.1221
   94SAPS  H13Y 9326   2.174   2.334   7.853  0.3466 -1.2737  1.0776
   94SAPS  C314 9327   2.010   2.202   7.879  0.0805  0.6716 -0.7834
   94SAPS  H14X 9328   2.072   2.110   7.871  1.2364  1.4001 -0.4524
   94SAPS  H14Y 9329   1.909   2.177   7.839  0.3003 -1.0757 -0.3112
   94SAPS  C315 9330   1.979   2.258   8.019 -0.4531  0.7114  0.7224
   94SAPS  H15X 9331   1.913   2.347   8.022 -0.7667  0.5174 -0.2217
   94SAPS  H15Y 9332   2.076   2.296   8.059 -0.6604  1.6130  0.3735
   94SAPS  C316 9333   1.916   2.154   8.111 -0.3349  0.1177 -0.2233
   94SAPS  H16X 9334   1.908   2.208   8.208  1.4432  3.3250 -1.7005
   94SAPS  H16Y 9335   1.983   2.066   8.107 -0.8993 -0.3771  0.8199
   94SAPS  C317 9336   1.779   2.107   8.074  0.4549  0.1940  0.1429
   94SAPS  H17X 9337   1.787   2.036   7.989 -1.5268  0.5376 -0.3934
   94SAPS  H17Y 9338   1.723   2.192   8.030  0.0427 -0.1759 -0.0559
   94SAPS  C318 9339   1.701   2.047   8.187  0.5430  0.7570  0.1405
   94SAPS  H18X 9340   1.763   1.987   8.257 -0.6699 -0.2965  0.3554
   94SAPS  H18Y 9341   1.624   1.977   8.148  2.4584 -0.7032 -1.2340
   94SAPS  H18Z 9342   1.650   2.120   8.253 -1.3795 -0.9772  0.6932
   95SAPS     N 9343   2.015   6.567   6.006  0.5374 -0.0290 -0.2566
   95SAPS   HN1 9344   2.002   6.505   5.924  2.1682 -2.3912  1.1369
   95SAPS   HN2 9345   2.100   6.532   6.054  0.4503 -1.1740 -0.9071
   95SAPS   HN3 9346   1.932   6.554   6.067  1.0803  1.6244  0.8960
   95SAPS   C12 9347   2.026   6.705   5.955 -0.0030  0.6348 -0.0332
   95SAPS  H12A 9348   2.126   6.716   5.915 -0.0818  2.0894  0.1135
   95SAPS   C13 9349   1.925   6.749   5.841  0.5939 -0.0084 -0.5769
   95SAPS  O13A 9350   1.867   6.657   5.780  0.6935  0.0445  0.5026
   95SAPS  O13B 9351   1.914   6.873   5.816 -0.5640  0.9782  0.4320
   95SAPS   C11 9352   2.014   6.801   6.081  0.2253  0.7072 -0.3417
   95SAPS  H11A 9353   1.912   6.811   6.122 -1.1861 -2.6198 -2.5947
   95SAPS  H11B 9354   2.023   6.903   6.038 -0.7861  0.7055 -0.5680
   95SAPS     P 9355   2.085   6.750   6.325 -0.3428 -0.1455 -0.0202
   95SAPS   O13 9356   2.006   6.628   6.346  1.0133 -0.0729  0.5755
   95SAPS   O14 9357   2.200   6.774   6.414 -0.4934 -0.8917  0.1464
   95SAPS   O12 9358   2.112   6.767   6.172 -0.2490  0.1802  0.1727
   95SAPS   O11 9359   1.979   6.865   6.364  0.0126 -0.0077  0.4454
   95SAPS    C1 9360   2.021   6.994   6.420 -0.1553  0.6118  0.2763
   95SAPS    HA 9361   2.101   6.978   6.494 -0.2832 -1.5633  0.0208
   95SAPS    HB 9362   2.068   7.060   6.344  0.2180 -0.7858 -0.7718
   95SAPS    C2 9363   1.912   7.076   6.501  0.4421 -0.5261  0.5974
   95SAPS    HS 9364   1.977   7.153   6.550  1.0453 -0.4971 -0.2209
   95SAPS   O21 9365   1.855   6.996   6.594  0.0896 -0.1383 -0.4977
   95SAPS   C21 9366   1.925   6.964   6.708  0.0090 -0.7081 -0.2309
   95SAPS   O22 9367   2.041   6.990   6.729 -0.3769  0.2434 -0.2658
   95SAPS   C22 9368   1.826   6.908   6.812 -0.3118 -0.1672 -0.5084
   95SAPS   H2R 9369   1.785   6.992   6.872 -3.0827 -1.0122 -1.0701
   95SAPS   H2S 9370   1.754   6.843   6.758  2.2938 -3.7213 -0.0474
   95SAPS    C3 9371   1.799   7.144   6.410 -0.3664  0.2044 -0.1084
   95SAPS    HX 9372   1.745   7.069   6.349 -0.8397  0.5369 -0.1033
   95SAPS    HY 9373   1.863   7.198   6.338 -0.8153  0.1164 -0.5775
   95SAPS   O31 9374   1.717   7.243   6.478 -0.3446 -0.1454  0.0102
   95SAPS   C31 9375   1.605   7.192   6.527 -0.0604  0.2300  0.3226
   95SAPS   O32 9376   1.568   7.076   6.520 -0.7329  0.1414  0.2455
   95SAPS   C32 9377   1.517   7.315   6.571  0.7622 -0.0286 -1.0643
   95SAPS   H2X 9378   1.455   7.323   6.479  2.1754 -0.8801 -2.1336
   95SAPS   H2Y 9379   1.581   7.405   6.584  1.9111 -0.6427 -2.1837
   95SAPS   C23 9380   1.902   6.813   6.909 -0.0028 -0.0371  0.1629
   95SAPS   H3R 9381   1.986   6.761   6.858  0.9085  0.7158  0.8566
   95SAPS   H3S 9382   1.827   6.742   6.952 -0.2987 -0.0407 -0.3488
   95SAPS   C24 9383   1.960   6.891   7.029  0.2280  1.2233 -0.7379
   95SAPS   H4R 9384   1.909   6.987   7.050 -0.2568  0.7135  0.4802
   95SAPS   H4S 9385   2.062   6.914   6.991  0.4334  1.7104  0.1014
   95SAPS   C25 9386   1.964   6.814   7.161 -0.5354  0.1159 -0.5983
   95SAPS   H5R 9387   2.036   6.731   7.167 -0.9642 -0.1995  4.2055
   95SAPS   C26 9388   1.890   6.831   7.274  0.9845  0.2680  0.3970
   95SAPS   H6R 9389   1.915   6.750   7.344 -0.9392 -1.9131 -1.3076
   95SAPS   C27 9390   1.791   6.943   7.301 -0.4377  0.6181  0.6294
   95SAPS   H7R 9391   1.767   7.006   7.213 -2.6277 -0.0062  0.7356
   95SAPS   H7S 9392   1.851   7.007   7.370 -1.6734  2.0544  0.4280
   95SAPS   C28 9393   1.662   6.896   7.359  0.1818 -0.1443 -0.2723
   95SAPS   H8R 9394   1.594   6.855   7.283  0.4060 -0.6553 -0.1971
   95SAPS   C29 9395   1.624   6.894   7.489 -0.3830 -0.0443 -0.1708
   95SAPS   H9R 9396   1.522   6.860   7.513  0.5848 -2.5077  0.8297
   95SAPS  C210 9397   1.695   6.960   7.598 -0.5412 -0.7128  0.5346
   95SAPS  H10R 9398   1.622   6.968   7.681 -1.8515  0.7088 -0.7031
   95SAPS  H10S 9399   1.732   7.060   7.565 -1.4399 -0.4416  0.3278
   95SAPS  C211 9400   1.822   6.898   7.653 -0.1718  0.7865 -0.1861
   95SAPS  H11R 9401   1.860   6.813   7.595 -0.7938  1.2289 -1.2801
   95SAPS  C212 9402   1.882   6.930   7.762  0.0976 -0.2305  0.0231
   95SAPS  H12R 9403   1.968   6.870   7.797 -0.4810 -1.1232 -0.0635
   95SAPS  C213 9404   1.831   7.030   7.863  0.3838  0.0653 -0.6041
   95SAPS  H13R 9405   1.786   7.114   7.806  1.0688  0.4474 -0.5917
   95SAPS  H13S 9406   1.910   7.078   7.924  0.2398 -0.3472 -0.0893
   95SAPS  C214 9407   1.734   6.963   7.955 -0.2196 -0.2610  0.7150
   95SAPS  H14R 9408   1.733   6.853   7.943  1.6431 -0.0116 -3.3499
   95SAPS  C215 9409   1.650   7.019   8.042 -0.4312 -0.1635 -0.0143
   95SAPS  H15R 9410   1.584   6.958   8.105 -1.8811  1.0600 -0.2753
   95SAPS  C216 9411   1.648   7.172   8.068 -0.0724  0.2277  0.3635
   95SAPS  H16R 9412   1.559   7.217   8.018 -0.8064 -2.2345 -0.7440
   95SAPS  H16S 9413   1.738   7.224   8.030 -0.3868 -0.3850 -1.3173
   95SAPS  C217 9414   1.635   7.197   8.216 -0.5500  0.3457  0.2625
   95SAPS  H17R 9415   1.732   7.210   8.269 -0.2014  1.2272 -0.5628
   95SAPS  H17S 9416   1.580   7.118   8.271 -0.7590 -0.8993 -1.6679
   95SAPS  C218 9417   1.565   7.333   8.245 -1.3535 -0.2452  0.1378
   95SAPS  H18R 9418   1.459   7.335   8.210 -1.6639  0.0425  1.0736
   95SAPS  H18S 9419   1.618   7.416   8.193  0.4717 -0.7633  1.0802
   95SAPS  C219 9420   1.562   7.372   8.393  0.1951  0.2094 -0.0735
   95SAPS  H19R 9421   1.535   7.277   8.444  2.0731 -0.6278 -0.5707
   95SAPS  H19S 9422   1.480   7.445   8.411 -1.3487 -1.9635  2.8142
   95SAPS  C220 9423   1.699   7.404   8.451 -0.8915  0.3905  0.1668
   95SAPS  H20R 9424   1.754   7.483   8.396  1.6622 -0.3278  1.5435
   95SAPS  H20S 9425   1.776   7.324   8.440  1.0217  2.1386  0.3242
   95SAPS  H20T 9426   1.711   7.430   8.558  1.8350 -0.2036  0.0807
   95SAPS   C33 9427   1.425   7.276   6.693  0.0835 -0.1540 -0.4320
   95SAPS   H3X 9428   1.478   7.304   6.786  1.3214  0.6150 -1.3325
   95SAPS   H3Y 9429   1.401   7.168   6.702  0.6095 -0.1345  1.4977
   95SAPS   C34 9430   1.298   7.347   6.672 -0.2492  0.0470 -0.7887
   95SAPS   H4X 9431   1.253   7.310   6.577 -0.9829  1.4503 -1.0109
   95SAPS   H4Y 9432   1.323   7.456   6.676  0.9467 -0.2377  1.0376
   95SAPS   C35 9433   1.192   7.319   6.778  0.2421  0.2814 -0.4042
   95SAPS   H5X 9434   1.183   7.213   6.810 -1.0418  0.1168 -1.2255
   95SAPS   H5Y 9435   1.091   7.342   6.737 -1.3294 -0.7126  2.6595
   95SAPS   C36 9436   1.220   7.399   6.900 -0.3133 -0.0288 -1.0299
   95SAPS   H6X 9437   1.233   7.507   6.878 -1.4345  0.3063 -0.1400
   95SAPS   H6Y 9438   1.313   7.354   6.942 -0.2290  2.1608  1.3323
   95SAPS   C37 9439   1.110   7.391   7.010 -0.3362  0.0884 -0.3901
   95SAPS   H7X 9440   1.058   7.293   7.013  0.3375 -0.2699 -0.3407
   95SAPS   H7Y 9441   1.047   7.471   6.966  2.9915  3.5520  0.5791
   95SAPS   C38 9442   1.143   7.446   7.152 -0.0468  0.0141 -0.3818
   95SAPS   H8X 9443   1.183   7.369   7.221 -1.3218 -0.6694 -0.3834
   95SAPS   H8Y 9444   1.047   7.475   7.200  0.4548  0.3998  0.3931
   95SAPS   C39 9445   1.223   7.583   7.158  0.1864 -0.2201 -0.3185
   95SAPS   H9X 9446   1.201   7.650   7.072 -1.8466  1.0983  1.1525
   95SAPS   H9Y 9447   1.331   7.559   7.147  1.0049  1.3535  2.8697
   95SAPS  C310 9448   1.210   7.660   7.289 -0.1684 -0.1007 -0.5213
   95SAPS  H10X 9449   1.247   7.603   7.377 -2.9274 -1.1704  0.0737
   95SAPS  H10Y 9450   1.100   7.674   7.297 -0.0551  0.5441 -0.0650
   95SAPS  C311 9451   1.293   7.784   7.287 -0.5837 -0.4133  0.2926
   95SAPS  H11X 9452   1.264   7.845   7.199  0.4098  0.5271  0.5999
   95SAPS  H11Y 9453   1.398   7.763   7.259 -0.6156 -3.0231  1.7345
   95SAPS  C312 9454   1.283   7.864   7.420  0.7764  0.0437 -0.0861
   95SAPS  H12X 9455   1.184   7.910   7.440  0.8368 -0.3673  1.2173
   95SAPS  H12Y 9456   1.345   7.955   7.408 -0.8810  0.9910 -2.1349
   95SAPS  C313 9457   1.330   7.786   7.540 -0.1894 -0.4865  0.1255
   95SAPS  H13X 9458   1.436   7.758   7.522  0.7801  2.4746  0.6260
   95SAPS  H13Y 9459   1.264   7.699   7.560 -0.8613 -0.3591 -1.3910
   95SAPS  C314 9460   1.325   7.872   7.673 -0.1108  0.0444 -0.5135
   95SAPS  H14X 9461   1.218   7.901   7.683  0.2034  1.6394 -1.3016
   95SAPS  H14Y 9462   1.374   7.970   7.656  0.5180  0.0567  1.1606
   95SAPS  C315 9463   1.366   7.803   7.805  0.2777  0.1599 -1.1682
   95SAPS  H15X 9464   1.460   7.746   7.785 -1.9324 -4.8879  1.0281
   95SAPS  H15Y 9465   1.285   7.730   7.827  1.4834 -1.1925 -0.9681
   95SAPS  C316 9466   1.388   7.907   7.907  0.2127 -0.2363  0.0135
   95SAPS  H16X 9467   1.291   7.932   7.954 -0.9849 -0.9066 -1.9611
   95SAPS  H16Y 9468   1.431   8.003   7.869 -0.3758 -0.0647 -0.2223
   95SAPS  C317 9469   1.473   7.873   8.029 -0.0570  0.4097 -0.0247
   95SAPS  H17X 9470   1.462   7.956   8.103  1.2332  0.0742  0.5770
   95SAPS  H17Y 9471   1.580   7.875   8.002  0.0598  2.1041  0.4174
   95SAPS  C318 9472   1.446   7.740   8.096  0.5821 -0.6913  1.0134
   95SAPS  H18X 9473   1.337   7.720   8.086  0.8236 -0.7987 -2.2885
   95SAPS  H18Y 9474   1.487   7.731   8.199  0.5257  1.4802  1.2750
   95SAPS  H18Z 9475   1.489   7.659   8.033 -1.4384 -1.4789  0.5492
   96SAPS     N 9476   3.719   1.633   6.018 -0.4072 -0.4454  0.0952
   96SAPS   HN1 9477   3.630   1.601   6.060 -0.1862 -1.4576 -0.1619
   96SAPS   HN2 9478   3.749   1.707   6.084  1.0609  1.2731 -2.3323
   96SAPS   HN3 9479   3.695   1.693   5.937 -1.9185 -0.6306  0.3746
   96SAPS   C12 9480   3.833   1.539   6.000 -0.6214 -0.0423 -0.3097
   96SAPS  H12A 9481   3.809   1.475   5.916 -1.1518  0.2854 -0.4171
   96SAPS   C13 9482   3.963   1.598   5.956 -0.4016 -0.3846 -0.7226
   96SAPS  O13A 9483   3.970   1.717   5.933  0.0424 -0.3233 -0.3834
   96SAPS  O13B 9484   4.049   1.521   5.901  0.4738 -0.4964 -0.3736
   96SAPS   C11 9485   3.865   1.457   6.131 -0.1044  0.4965  0.6841
   96SAPS  H11A 9486   3.888   1.526   6.215  1.6202 -0.1511  0.7738
   96SAPS  H11B 9487   3.951   1.388   6.122 -1.8870 -1.7985  0.2206
   96SAPS     P 9488   3.749   1.246   6.241 -0.2605 -0.1391 -0.0374
   96SAPS   O13 9489   3.613   1.206   6.285  0.6520 -0.2056 -0.0828
   96SAPS   O14 9490   3.823   1.145   6.163 -0.1165 -0.2810 -0.2946
   96SAPS   O12 9491   3.750   1.382   6.164 -0.2408 -0.3891  0.5165
   96SAPS   O11 9492   3.837   1.278   6.366 -0.4965 -0.6303 -0.2205
   96SAPS    C1 9493   3.813   1.379   6.466 -0.4592  0.0341 -0.3891
   96SAPS    HA 9494   3.911   1.425   6.492  0.3627 -1.6230 -0.4370
   96SAPS    HB 9495   3.744   1.456   6.425 -1.8480 -1.8735 -1.8164
   96SAPS    C2 9496   3.752   1.325   6.597 -0.8166  0.0167  0.0807
   96SAPS    HS 9497   3.646   1.294   6.584 -0.7003  0.5211 -2.7100
   96SAPS   O21 9498   3.767   1.421   6.699 -0.3227 -0.8897  0.2494
   96SAPS   C21 9499   3.660   1.503   6.699  0.1118 -0.0892 -0.2550
   96SAPS   O22 9500   3.572   1.502   6.614 -0.6426 -0.2854 -0.1541
   96SAPS   C22 9501   3.651   1.575   6.838  0.5420 -0.0842 -0.1030
   96SAPS   H2R 9502   3.752   1.616   6.855  0.4909  0.2994 -0.6789
   96SAPS   H2S 9503   3.580   1.656   6.809 -0.6973 -1.3988 -0.9153
   96SAPS    C3 9504   3.817   1.190   6.650  0.4174  0.3373 -0.0280
   96SAPS    HX 9505   3.894   1.217   6.725 -0.7560 -0.4392  1.5090
   96SAPS    HY 9506   3.856   1.132   6.565  1.3195  0.6452  0.1646
   96SAPS   O31 9507   3.719   1.101   6.713 -0.1440 -0.4678  0.2992
   96SAPS   C31 9508   3.759   1.019   6.801 -0.1290 -0.2879 -0.4593
   96SAPS   O32 9509   3.873   1.011   6.841 -0.9610  0.5920 -0.0987
   96SAPS   C32 9510   3.639   0.966   6.874 -0.1140  0.1537 -0.8151
   96SAPS   H2X 9511   3.647   0.857   6.895 -1.0086 -0.0701 -1.5635
   96SAPS   H2Y 9512   3.546   0.992   6.820  0.6892  0.5582 -2.0321
   96SAPS   C23 9513   3.603   1.479   6.940 -0.4776  0.0386  0.0058
   96SAPS   H3R 9514   3.593   1.372   6.914 -3.9863  0.1209  0.5449
   96SAPS   H3S 9515   3.499   1.505   6.967  0.1449 -0.1065  2.9116
   96SAPS   C24 9516   3.685   1.475   7.064  0.0458 -0.5806 -0.1197
   96SAPS   H4R 9517   3.788   1.438   7.044  0.5154 -0.3724  1.7096
   96SAPS   H4S 9518   3.635   1.407   7.137 -0.9688 -1.2396 -1.3808
   96SAPS   C25 9519   3.686   1.613   7.128  1.0016 -0.3713 -0.1755
   96SAPS   H5R 9520   3.681   1.700   7.061  0.5387 -0.0860  0.2245
   96SAPS   C26 9521   3.687   1.644   7.260 -0.5667 -0.2291  1.2806
   96SAPS   H6R 9522   3.674   1.750   7.287 -0.7099 -0.3978  1.8974
   96SAPS   C27 9523   3.702   1.551   7.379  0.0353 -0.1334 -0.1876
   96SAPS   H7R 9524   3.657   1.453   7.351  0.3670 -0.5216  0.5994
   96SAPS   H7S 9525   3.622   1.582   7.449 -3.4804 -3.4488 -2.3156
   96SAPS   C28 9526   3.844   1.524   7.435  0.0087 -0.3834 -0.1055
   96SAPS   H8R 9527   3.932   1.538   7.370 -0.4496 -1.0558 -0.8819
   96SAPS   C29 9528   3.869   1.504   7.564 -0.1279  0.1564 -0.3704
   96SAPS   H9R 9529   3.969   1.465   7.589  0.5419  1.5587 -0.7784
   96SAPS  C210 9530   3.764   1.480   7.668  0.6757 -0.8762  0.5123
   96SAPS  H10R 9531   3.665   1.456   7.624  1.6215 -0.0743 -2.2725
   96SAPS  H10S 9532   3.747   1.580   7.714 -0.9097 -1.2800  0.8322
   96SAPS  C211 9533   3.800   1.384   7.774  0.0400  0.5997  0.1124
   96SAPS  H11R 9534   3.848   1.294   7.732  0.5086  1.9342 -2.4329
   96SAPS  C212 9535   3.764   1.388   7.902 -0.1071  0.8108 -0.0199
   96SAPS  H12R 9536   3.806   1.303   7.958  0.9819  1.8161  0.7387
   96SAPS  C213 9537   3.683   1.492   7.979 -0.2172  0.2179  0.3012
   96SAPS  H13R 9538   3.649   1.450   8.076  0.8096  1.3242  1.1722
   96SAPS  H13S 9539   3.593   1.527   7.925  0.5230  0.5326 -0.7713
   96SAPS  C214 9540   3.756   1.625   8.004 -0.2234  1.1740  0.4378
   96SAPS  H14R 9541   3.764   1.684   7.911 -0.4082 -0.1970 -0.4866
   96SAPS  C215 9542   3.793   1.681   8.120  0.0891 -0.2432 -0.3023
   96SAPS  H15R 9543   3.849   1.776   8.110  3.0063 -1.8779 -0.5238
   96SAPS  C216 9544   3.779   1.643   8.269 -0.2321  0.0854 -0.5851
   96SAPS  H16R 9545   3.674   1.629   8.300 -0.2293  1.4021  0.0882
   96SAPS  H16S 9546   3.798   1.729   8.336  0.5113 -0.1652 -0.4634
   96SAPS  C217 9547   3.872   1.533   8.320 -0.0348  0.3417 -0.2697
   96SAPS  H17R 9548   3.976   1.573   8.316  0.2837 -0.2883  1.1437
   96SAPS  H17S 9549   3.852   1.450   8.249  0.2411  0.6517 -0.7182
   96SAPS  C218 9550   3.839   1.490   8.459  0.0837  0.3009 -0.8653
   96SAPS  H18R 9551   3.898   1.404   8.496 -0.7717  0.3685  0.7468
   96SAPS  H18S 9552   3.735   1.450   8.455 -0.4352  1.0236  2.4891
   96SAPS  C219 9553   3.842   1.606   8.564 -0.6167  0.2360 -0.5386
   96SAPS  H19R 9554   3.743   1.656   8.558 -0.4955  0.8393  1.6528
   96SAPS  H19S 9555   3.925   1.678   8.552  0.3964 -0.7956  0.0326
   96SAPS  C220 9556   3.862   1.554   8.707  0.5313 -0.5607 -0.0730
   96SAPS  H20R 9557   3.856   1.643   8.774  0.9201  1.7786 -2.9472
   96SAPS  H20S 9558   3.959   1.501   8.714  0.3597 -1.0412 -1.1736
   96SAPS  H20T 9559   3.782   1.480   8.727 -0.8855  1.2076  1.1337
   96SAPS   C33 9560   3.609   1.038   7.006 -0.5893 -0.5478  0.2852
   96SAPS   H3X 9561   3.613   1.148   6.991  2.1813 -0.7292 -0.7801
   96SAPS   H3Y 9562   3.681   1.009   7.085  0.0987 -2.5071 -0.9911
   96SAPS   C34 9563   3.467   1.004   7.065 -0.3176 -0.7971 -0.1395
   96SAPS   H4X 9564   3.456   0.900   7.103 -0.8042 -0.8308 -0.3630
   96SAPS   H4Y 9565   3.397   1.023   6.981  0.8647  2.5095 -0.5227
   96SAPS   C35 9566   3.426   1.110   7.181 -0.0648 -0.2215  0.2833
   96SAPS   H5X 9567   3.316   1.113   7.197 -0.2267  0.2611 -0.8933
   96SAPS   H5Y 9568   3.455   1.211   7.146 -0.1800 -0.0261  0.7362
   96SAPS   C36 9569   3.486   1.075   7.317 -0.4136 -0.5836  0.2340
   96SAPS   H6X 9570   3.597   1.077   7.313 -0.3949  3.3178 -1.9036
   96SAPS   H6Y 9571   3.451   0.975   7.351 -1.1710 -0.1674  0.6974
   96SAPS   C37 9572   3.452   1.176   7.432 -1.0055 -0.0222 -0.2323
   96SAPS   H7X 9573   3.341   1.172   7.444 -1.1206 -2.5771 -1.5631
   96SAPS   H7Y 9574   3.490   1.275   7.401  0.6784 -1.0484 -1.6163
   96SAPS   C38 9575   3.504   1.107   7.562  0.5962 -0.0368  0.4339
   96SAPS   H8X 9576   3.615   1.100   7.570  0.6060  1.4610  2.2949
   96SAPS   H8Y 9577   3.456   1.008   7.571 -0.4538  0.5154  1.0874
   96SAPS   C39 9578   3.451   1.189   7.683 -0.0389 -0.3866  0.4233
   96SAPS   H9X 9579   3.340   1.197   7.671  0.0459 -0.5554 -0.6056
   96SAPS   H9Y 9580   3.496   1.290   7.682 -0.7348 -0.0633 -0.5243
   96SAPS  C310 9581   3.491   1.132   7.822  0.3579 -0.4997 -0.6259
   96SAPS  H10X 9582   3.600   1.143   7.840  0.3450 -0.1967 -0.7257
   96SAPS  H10Y 9583   3.455   1.029   7.842 -1.6097  0.4616  1.2366
   96SAPS  C311 9584   3.422   1.219   7.936  0.1822  0.3026 -0.4793
   96SAPS  H11X 9585   3.312   1.209   7.933  0.3301 -1.8268  0.0101
   96SAPS  H11Y 9586   3.452   1.324   7.911  1.8180 -0.6114 -2.7589
   96SAPS  C312 9587   3.472   1.205   8.076 -0.4705 -0.1737 -0.0004
   96SAPS  H12X 9588   3.422   1.282   8.138  1.1214  0.5339  0.4528
   96SAPS  H12Y 9589   3.581   1.225   8.082 -0.5989  0.0250  2.5409
   96SAPS  C313 9590   3.430   1.076   8.139  0.3080  0.1663 -0.1886
   96SAPS  H13X 9591   3.490   0.991   8.099  0.8498  0.9025 -0.9686
   96SAPS  H13Y 9592   3.323   1.049   8.128  0.5887 -1.6177  0.9538
   96SAPS  C314 9593   3.442   1.073   8.291  0.1884 -0.2464  0.0417
   96SAPS  H14X 9594   3.375   1.154   8.329  0.5490 -0.4281  1.1002
   96SAPS  H14Y 9595   3.548   1.093   8.319 -0.3845  1.3435  1.2488
   96SAPS  C315 9596   3.390   0.940   8.354 -0.0852 -0.0830  0.3923
   96SAPS  H15X 9597   3.311   0.901   8.287  1.1060  0.3710 -1.3538
   96SAPS  H15Y 9598   3.338   0.951   8.451 -0.9166  0.8655 -0.1446
   96SAPS  C316 9599   3.504   0.837   8.363 -0.3060 -0.6342 -0.3431
   96SAPS  H16X 9600   3.588   0.870   8.427 -0.7623 -0.6710  0.2919
   96SAPS  H16Y 9601   3.552   0.826   8.263  1.2228  0.2381  0.2580
   96SAPS  C317 9602   3.445   0.703   8.411 -0.0376  0.3988  0.2599
   96SAPS  H17X 9603   3.376   0.669   8.330 -1.7672 -0.7303  2.0926
   96SAPS  H17Y 9604   3.390   0.697   8.508  2.1687 -0.6967  1.5161
   96SAPS  C318 9605   3.555   0.592   8.431  0.4921 -0.0122 -0.1272
   96SAPS  H18X 9606   3.639   0.595   8.359 -1.3111 -3.0752 -2.5705
   96SAPS  H18Y 9607   3.512   0.490   8.431  1.2678 -0.3800 -2.4175
   96SAPS  H18Z 9608   3.606   0.610   8.528 -0.1908 -0.4277  0.3178
   97SAPS     N 9609   6.439   0.681   6.566 -0.0863 -0.4692 -1.2445
   97SAPS   HN1 9610   6.370   0.754   6.539  1.3269  0.7262 -1.7843
   97SAPS   HN2 9611   6.467   0.702   6.664  0.4443  0.8465 -1.6516
   97SAPS   HN3 9612   6.521   0.694   6.504  1.1821 -0.7662  0.3127
   97SAPS   C12 9613   6.397   0.541   6.547 -0.6623  0.2398 -0.3021
   97SAPS  H12A 9614   6.326   0.509   6.623 -0.8444  1.6134  0.1303
   97SAPS   C13 9615   6.338   0.506   6.414 -0.5487  0.5001  0.5787
   97SAPS  O13A 9616   6.344   0.594   6.331 -0.5484 -0.1231  0.0110
   97SAPS  O13B 9617   6.270   0.402   6.403  0.3525  0.2062 -0.0799
   97SAPS   C11 9618   6.521   0.454   6.582 -0.1624  0.5407 -0.3756
   97SAPS  H11A 9619   6.562   0.495   6.677  0.0828 -0.6562  0.0496
   97SAPS  H11B 9620   6.598   0.457   6.502 -1.9356 -1.4813 -2.2790
   97SAPS     P 9621   6.584   0.206   6.616 -0.0170 -0.1652 -0.6792
   97SAPS   O13 9622   6.573   0.137   6.486 -0.0372 -0.3653 -0.0685
   97SAPS   O14 9623   6.719   0.255   6.638 -0.2998 -0.0648  0.1876
   97SAPS   O12 9624   6.475   0.320   6.619  0.2103  0.0795  0.2970
   97SAPS   O11 9625   6.552   0.106   6.732 -0.4101  0.2939 -0.6303
   97SAPS    C1 9626   6.430   0.040   6.760  0.1049 -0.7585 -0.0855
   97SAPS    HA 9627   6.338   0.089   6.722  1.4185  2.1400  0.2022
   97SAPS    HB 9628   6.415  -0.058   6.710 -1.5319 -0.7790  0.3813
   97SAPS    C2 9629   6.400   0.011   6.912 -0.3194  0.0969 -0.0870
   97SAPS    HS 9630   6.295  -0.023   6.927  0.2191 -1.3936  0.4605
   97SAPS   O21 9631   6.420   0.133   6.985  0.3752  0.4519 -0.3296
   97SAPS   C21 9632   6.330   0.225   6.959  0.2875  0.1941 -0.2299
   97SAPS   O22 9633   6.224   0.195   6.910  0.4569 -0.1297  1.0313
   97SAPS   C22 9634   6.381   0.369   6.982 -0.3013 -0.8361  0.1626
   97SAPS   H2R 9635   6.459   0.362   7.061  1.3773 -1.1143 -1.4400
   97SAPS   H2S 9636   6.420   0.407   6.885 -0.5862 -2.9062 -0.8200
   97SAPS    C3 9637   6.498  -0.097   6.956 -0.0147  0.4580  0.4643
   97SAPS    HX 9638   6.600  -0.077   6.917  0.2469  1.7429  1.7300
   97SAPS    HY 9639   6.482  -0.186   6.892  0.6105  0.3826  0.4064
   97SAPS   O31 9640   6.489  -0.124   7.100  0.2804  0.8992  0.0849
   97SAPS   C31 9641   6.603  -0.103   7.173 -0.1295 -0.5234  0.2674
   97SAPS   O32 9642   6.708  -0.061   7.120  0.2983  0.5948 -0.0460
   97SAPS   C32 9643   6.581  -0.135   7.317 -0.2895 -0.1743 -0.3049
   97SAPS   H2X 9644   6.555  -0.243   7.320 -0.0179 -0.2839 -1.5425
   97SAPS   H2Y 9645   6.500  -0.071   7.359  1.8420  0.9625  2.3748
   97SAPS   C23 9646   6.280   0.476   7.025 -0.9825 -0.1472 -0.1385
   97SAPS   H3R 9647   6.184   0.474   6.970 -1.2029  1.1146  0.1672
   97SAPS   H3S 9648   6.323   0.572   6.988  1.7901  0.0876  3.1210
   97SAPS   C24 9649   6.258   0.486   7.179  0.0700 -0.1335  0.3755
   97SAPS   H4R 9650   6.204   0.579   7.208 -2.4155 -1.3892  0.0132
   97SAPS   H4S 9651   6.361   0.488   7.220  1.1164  1.5803 -2.0490
   97SAPS   C25 9652   6.178   0.380   7.240 -0.5229  0.4357 -0.6148
   97SAPS   H5R 9653   6.091   0.349   7.181 -0.9170 -0.0270  0.1900
   97SAPS   C26 9654   6.204   0.335   7.363 -0.1343  0.3450 -0.1043
   97SAPS   H6R 9655   6.143   0.259   7.414  1.1565  0.4383  1.6771
   97SAPS   C27 9656   6.311   0.387   7.459  0.1887  0.3181 -0.3313
   97SAPS   H7R 9657   6.269   0.393   7.562  2.4918 -3.1821  0.9928
   97SAPS   H7S 9658   6.341   0.494   7.449  0.9669  0.1760  0.3721
   97SAPS   C28 9659   6.437   0.297   7.455  1.0569 -0.7734 -0.1294
   97SAPS   H8R 9660   6.465   0.243   7.364  3.0038  1.0614 -0.7109
   97SAPS   C29 9661   6.525   0.312   7.552 -0.0954  0.3720 -0.7780
   97SAPS   H9R 9662   6.614   0.248   7.554  1.9119  3.0276  0.9715
   97SAPS  C210 9663   6.504   0.391   7.678  0.6806  0.9622  0.4233
   97SAPS  H10R 9664   6.451   0.486   7.657 -0.8378  0.7218  2.7424
   97SAPS  H10S 9665   6.607   0.423   7.708  1.0845 -0.1398  0.2696
   97SAPS  C211 9666   6.427   0.310   7.784 -0.1297 -0.5260  0.2246
   97SAPS  H11R 9667   6.321   0.289   7.760 -0.1733  1.6340 -1.8108
   97SAPS  C212 9668   6.495   0.254   7.889  0.5781 -0.3451 -0.2470
   97SAPS  H12R 9669   6.450   0.191   7.968  0.1666  0.9371  0.5772
   97SAPS  C213 9670   6.646   0.264   7.914 -0.5048 -0.2503 -0.3678
   97SAPS  H13R 9671   6.702   0.259   7.818 -1.9308  1.3830 -1.3377
   97SAPS  H13S 9672   6.679   0.174   7.971  1.1939  0.6516  0.1244
   97SAPS  C214 9673   6.684   0.390   7.990 -0.3976 -0.8749 -0.5495
   97SAPS  H14R 9674   6.705   0.476   7.925 -1.5128  0.8332  1.2751
   97SAPS  C215 9675   6.714   0.411   8.115 -0.1425 -0.3148 -0.3963
   97SAPS  H15R 9676   6.721   0.514   8.153 -0.5630 -0.6217  0.5477
   97SAPS  C216 9677   6.723   0.295   8.214 -0.4769 -0.0969  0.4181
   97SAPS  H16R 9678   6.650   0.214   8.193 -0.7857 -0.1209  1.5078
   97SAPS  H16S 9679   6.693   0.315   8.319  0.7348  0.5536  0.6609
   97SAPS  C217 9680   6.867   0.230   8.219  0.0340 -0.6015  0.5265
   97SAPS  H17R 9681   6.942   0.306   8.251  0.3180 -0.8029  0.3455
   97SAPS  H17S 9682   6.902   0.216   8.114  0.6572  1.0190  0.4788
   97SAPS  C218 9683   6.872   0.095   8.289  0.4841 -0.4219  1.1541
   97SAPS  H18R 9684   6.970   0.054   8.257 -0.4562 -2.2282  0.4507
   97SAPS  H18S 9685   6.802   0.022   8.244 -0.7106  0.6903  1.1471
   97SAPS  C219 9686   6.858   0.099   8.442  0.2060 -0.6039  0.7328
   97SAPS  H19R 9687   6.768   0.160   8.464  0.0304 -1.0066  1.1506
   97SAPS  H19S 9688   6.931   0.167   8.490  0.1285 -1.0149  1.4509
   97SAPS  C220 9689   6.839  -0.036   8.508 -0.0005 -1.0291 -0.0428
   97SAPS  H20R 9690   6.749  -0.087   8.466 -0.4759  0.0563 -0.3920
   97SAPS  H20S 9691   6.817  -0.026   8.616 -3.5596  0.1732 -0.7406
   97SAPS  H20T 9692   6.926  -0.101   8.488 -0.5520 -1.4041 -1.3684
   97SAPS   C33 9693   6.700  -0.091   7.404  0.7288  0.0038  0.5113
   97SAPS   H3X 9694   6.707   0.020   7.399 -1.7848  0.1715 -3.6951
   97SAPS   H3Y 9695   6.787  -0.149   7.367 -0.5718 -1.3489 -0.5288
   97SAPS   C34 9696   6.671  -0.139   7.545 -0.4047 -0.1200  0.1832
   97SAPS   H4X 9697   6.686  -0.248   7.556  1.1921  0.2721  2.4102
   97SAPS   H4Y 9698   6.566  -0.106   7.563 -0.8221 -2.0696  1.6101
   97SAPS   C35 9699   6.769  -0.082   7.651  0.4100  1.0267 -0.5886
   97SAPS   H5X 9700   6.771   0.025   7.624 -1.1416  1.0900 -0.4952
   97SAPS   H5Y 9701   6.871  -0.127   7.659  0.2555  0.8573  0.7521
   97SAPS   C36 9702   6.708  -0.108   7.792 -0.0126 -0.5649  0.1666
   97SAPS   H6X 9703   6.607  -0.062   7.795  1.1832  2.3235 -0.4980
   97SAPS   H6Y 9704   6.777  -0.066   7.869  0.8686 -2.2512  0.3477
   97SAPS   C37 9705   6.693  -0.258   7.834 -1.2022  0.0646 -0.5509
   97SAPS   H7X 9706   6.784  -0.315   7.808 -1.3714  0.4503 -2.1012
   97SAPS   H7Y 9707   6.607  -0.309   7.785 -1.4310 -0.1198  0.0315
   97SAPS   C38 9708   6.662  -0.275   7.988  0.6081  0.5748  0.8188
   97SAPS   H8X 9709   6.564  -0.231   8.015  0.8585  0.9012  1.2114
   97SAPS   H8Y 9710   6.748  -0.227   8.039  4.0903 -0.0396 -3.8394
   97SAPS   C39 9711   6.669  -0.424   8.024  0.0468  0.2962  0.2779
   97SAPS   H9X 9712   6.777  -0.451   8.026 -0.3068 -1.2742  2.4342
   97SAPS   H9Y 9713   6.626  -0.493   7.948  0.7965 -0.2753  0.3558
   97SAPS  C310 9714   6.612  -0.471   8.166  0.0172 -0.3194  1.4676
   97SAPS  H10X 9715   6.631  -0.579   8.180 -0.1292 -0.4357  0.8192
   97SAPS  H10Y 9716   6.501  -0.462   8.154  0.4760  3.2688 -2.8588
   97SAPS  C311 9717   6.668  -0.388   8.278 -0.3360 -0.9117 -0.4887
   97SAPS  H11X 9718   6.627  -0.285   8.274 -0.3173 -0.9329 -1.3795
   97SAPS  H11Y 9719   6.778  -0.377   8.264 -0.1381  1.7480  2.1719
   97SAPS  C312 9720   6.635  -0.437   8.420 -0.1328  0.6368 -0.4051
   97SAPS  H12X 9721   6.702  -0.383   8.491  0.3677 -0.3764 -0.0882
   97SAPS  H12Y 9722   6.672  -0.542   8.413  1.0582  0.9448  0.6626
   97SAPS  C313 9723   6.489  -0.433   8.462 -0.4695  0.9174  0.7462
   97SAPS  H13X 9724   6.428  -0.469   8.376 -0.0093 -0.7490  1.0782
   97SAPS  H13Y 9725   6.445  -0.334   8.485 -1.1162  0.7384  0.3242
   97SAPS  C314 9726   6.461  -0.514   8.584  0.2889 -0.1124 -0.0906
   97SAPS  H14X 9727   6.534  -0.475   8.658  0.7678  1.2616 -1.2498
   97SAPS  H14Y 9728   6.476  -0.621   8.558 -1.1391 -0.2402 -0.4711
   97SAPS  C315 9729   6.320  -0.488   8.643 -0.3745 -0.6967 -0.1288
   97SAPS  H15X 9730   6.247  -0.504   8.561 -1.5609 -0.6544  0.8897
   97SAPS  H15Y 9731   6.322  -0.378   8.657 -0.3750 -0.3980 -2.2717
   97SAPS  C316 9732   6.288  -0.560   8.772 -0.1196 -0.5765  0.0630
   97SAPS  H16X 9733   6.200  -0.518   8.825  0.7708  1.6935 -0.1077
   97SAPS  H16Y 9734   6.376  -0.552   8.840 -0.8686 -2.1884  1.2736
   97SAPS  C317 9735   6.264  -0.707   8.761 -0.1387  0.5731  0.6534
   97SAPS  H17X 9736   6.356  -0.764   8.736 -1.7669 -1.1918 -1.7809
   97SAPS  H17Y 9737   6.199  -0.735   8.675  1.1813  0.1151 -0.2266
   97SAPS  C318 9738   6.193  -0.759   8.886  0.2495 -0.3295  0.2894
   97SAPS  H18X 9739   6.084  -0.760   8.867 -0.5603 -4.1584  3.7973
   97SAPS  H18Y 9740   6.209  -0.702   8.980 -0.9133  0.4345  0.0395
   97SAPS  H18Z 9741   6.220  -0.866   8.901  1.7665 -0.1649 -0.9305
   98SAPS     N 9742   1.611   5.279   6.163 -0.2865 -0.1528 -0.8426
   98SAPS   HN1 9743   1.651   5.193   6.206 -0.4787 -0.8930 -2.0901
   98SAPS   HN2 9744   1.517   5.296   6.204 -0.8425 -2.8619 -0.7783
   98SAPS   HN3 9745   1.579   5.250   6.069 -1.4758  0.5116 -0.6652
   98SAPS   C12 9746   1.704   5.390   6.168 -0.0289  0.6914  0.1691
   98SAPS  H12A 9747   1.744   5.404   6.267  1.2646 -0.8672 -0.0815
   98SAPS   C13 9748   1.830   5.358   6.080  0.0450  0.4646 -0.0339
   98SAPS  O13A 9749   1.845   5.241   6.036 -0.4058 -0.5413  0.1420
   98SAPS  O13B 9750   1.903   5.454   6.042  0.1399 -0.1148  0.7971
   98SAPS   C11 9751   1.634   5.508   6.113  0.3086  0.8336 -0.1121
   98SAPS  H11A 9752   1.591   5.486   6.013  1.7248  2.5738 -1.1622
   98SAPS  H11B 9753   1.710   5.587   6.090  1.4601 -0.0817  0.4238
   98SAPS     P 9754   1.546   5.655   6.311  0.0240 -0.4739  0.2594
   98SAPS   O13 9755   1.606   5.771   6.247  0.2703 -0.2011  0.4845
   98SAPS   O14 9756   1.419   5.674   6.379  0.2305  0.4722 -0.0397
   98SAPS   O12 9757   1.529   5.543   6.203  0.1936 -0.7744 -0.1706
   98SAPS   O11 9758   1.651   5.590   6.406 -0.6620  0.4152 -0.2275
   98SAPS    C1 9759   1.791   5.620   6.410 -0.2654  0.4285 -0.2425
   98SAPS    HA 9760   1.854   5.529   6.398  0.3183  1.0423 -2.3133
   98SAPS    HB 9761   1.830   5.693   6.336  0.9409  1.0200  0.9481
   98SAPS    C2 9762   1.829   5.697   6.548  0.7287 -0.3763  0.3843
   98SAPS    HS 9763   1.795   5.635   6.633 -0.1255  1.1099  1.1714
   98SAPS   O21 9764   1.771   5.830   6.550 -0.0745  0.5079 -0.1307
   98SAPS   C21 9765   1.666   5.843   6.628  0.2990  0.3554 -0.0055
   98SAPS   O22 9766   1.608   5.762   6.695 -0.2804 -0.3046 -0.1776
   98SAPS   C22 9767   1.626   5.987   6.610  0.4153  0.0700  0.0215
   98SAPS   H2R 9768   1.715   6.053   6.606 -0.2011  0.9775  0.8343
   98SAPS   H2S 9769   1.579   6.002   6.510  3.6921 -1.7758 -1.9370
   98SAPS    C3 9770   1.985   5.714   6.559  0.1533 -0.1184  0.1904
   98SAPS    HX 9771   2.013   5.797   6.492 -1.3405 -1.3508 -2.1006
   98SAPS    HY 9772   2.027   5.620   6.517  0.4362 -1.1418  2.5939
   98SAPS   O31 9773   2.031   5.720   6.696  0.1569 -0.0121 -0.3998
   98SAPS   C31 9774   2.009   5.829   6.763  0.0065  0.2453  0.0365
   98SAPS   O32 9775   1.968   5.936   6.730 -0.0897  0.3025 -0.8645
   98SAPS   C32 9776   2.049   5.805   6.910 -0.0166 -0.2191  0.7981
   98SAPS   H2X 9777   2.159   5.791   6.911  0.0555  0.3487  1.2242
   98SAPS   H2Y 9778   2.005   5.708   6.942  0.8148 -0.1566  2.1740
   98SAPS   C23 9779   1.531   6.040   6.724 -0.7978  0.1147 -0.3400
   98SAPS   H3R 9780   1.575   6.019   6.824 -0.6759 -1.3313 -0.6737
   98SAPS   H3S 9781   1.435   5.984   6.718 -0.2487 -0.8116 -0.8168
   98SAPS   C24 9782   1.517   6.188   6.705 -0.0832 -0.6978  0.3670
   98SAPS   H4R 9783   1.462   6.224   6.615  0.4444  1.2334  0.7770
   98SAPS   H4S 9784   1.617   6.234   6.693 -0.8107  1.3146  1.5554
   98SAPS   C25 9785   1.436   6.250   6.813  0.2893 -0.1815 -0.2956
   98SAPS   H5R 9786   1.330   6.246   6.784  0.5161  3.1703 -2.1697
   98SAPS   C26 9787   1.474   6.310   6.923 -0.2062  0.0342  0.1128
   98SAPS   H6R 9788   1.395   6.344   6.991 -0.9914  1.6358 -1.5176
   98SAPS   C27 9789   1.616   6.333   6.961  0.1527 -0.7789  0.2647
   98SAPS   H7R 9790   1.695   6.275   6.909  0.0569  0.1833 -0.9905
   98SAPS   H7S 9791   1.624   6.312   7.070 -0.2947 -1.0198  0.2527
   98SAPS   C28 9792   1.647   6.480   6.962 -0.7256 -0.1069  0.9450
   98SAPS   H8R 9793   1.712   6.520   6.883 -1.7050  1.1969  0.7605
   98SAPS   C29 9794   1.596   6.569   7.057  0.5361  0.2976  1.1096
   98SAPS   H9R 9795   1.634   6.672   7.061  3.1085 -0.6218  2.3222
   98SAPS  C210 9796   1.512   6.545   7.176  0.4467  0.4688 -0.6672
   98SAPS  H10R 9797   1.570   6.582   7.262 -0.5906 -0.2777  0.3793
   98SAPS  H10S 9798   1.482   6.438   7.178 -0.8850  0.8012  2.1394
   98SAPS  C211 9799   1.381   6.614   7.191 -0.0939  0.4163  0.1528
   98SAPS  H11R 9800   1.353   6.672   7.101 -1.2062  0.6082  0.6074
   98SAPS  C212 9801   1.304   6.622   7.297 -0.1405 -0.2417 -0.3050
   98SAPS  H12R 9802   1.208   6.676   7.286  0.2745  0.4737 -0.4888
   98SAPS  C213 9803   1.340   6.556   7.433  0.0464  0.0414  0.0903
   98SAPS  H13R 9804   1.446   6.580   7.460  0.2653 -0.3935 -0.3589
   98SAPS  H13S 9805   1.347   6.445   7.422  0.6618  0.1521 -0.7265
   98SAPS  C214 9806   1.234   6.571   7.541 -0.3923  0.1036 -0.2869
   98SAPS  H14R 9807   1.134   6.537   7.509  0.7427 -0.7956 -3.1326
   98SAPS  C215 9808   1.251   6.610   7.674  0.0761  0.0275  0.3840
   98SAPS  H15R 9809   1.167   6.625   7.744  0.0194 -0.1654  0.3569
   98SAPS  C216 9810   1.387   6.654   7.738 -0.6759 -0.6459  0.3635
   98SAPS  H16R 9811   1.470   6.663   7.665  0.0511 -2.8099  0.8369
   98SAPS  H16S 9812   1.435   6.572   7.797  0.6799 -0.3757 -0.3186
   98SAPS  C217 9813   1.389   6.777   7.832 -0.3534 -0.1524  0.2589
   98SAPS  H17R 9814   1.371   6.865   7.767 -0.6065  0.6302  1.3625
   98SAPS  H17S 9815   1.490   6.798   7.874  0.8494 -0.8412 -2.0846
   98SAPS  C218 9816   1.292   6.773   7.951 -0.6622 -0.0065 -0.6185
   98SAPS  H18R 9817   1.192   6.734   7.923  0.0767 -2.6213  0.1290
   98SAPS  H18S 9818   1.290   6.876   7.992 -0.3022 -0.6175  1.0018
   98SAPS  C219 9819   1.334   6.679   8.064  0.4598  0.0118 -0.6419
   98SAPS  H19R 9820   1.414   6.723   8.128  0.6029 -3.0642  1.5514
   98SAPS  H19S 9821   1.371   6.588   8.012 -0.6429 -0.1659 -1.1314
   98SAPS  C220 9822   1.227   6.642   8.170 -0.5429  0.4154 -0.2452
   98SAPS  H20R 9823   1.192   6.719   8.241 -1.7441 -0.7865  0.5257
   98SAPS  H20S 9824   1.279   6.559   8.221 -0.5225  0.2727 -0.4922
   98SAPS  H20T 9825   1.139   6.601   8.115 -0.5062 -2.1974  1.4599
   98SAPS   C33 9826   2.001   5.912   7.005 -0.0513  0.7626 -0.1833
   98SAPS   H3X 9827   1.890   5.907   7.014  0.0841  1.3855  3.0194
   98SAPS   H3Y 9828   2.044   6.009   6.972 -0.3498  1.9555  2.6139
   98SAPS   C34 9829   2.054   5.890   7.155  0.1297  0.7730  0.0746
   98SAPS   H4X 9830   2.164   5.901   7.150  0.3234  0.0943  2.0219
   98SAPS   H4Y 9831   2.034   5.783   7.178  1.0129  0.2905 -1.2655
   98SAPS   C35 9832   1.990   5.979   7.258 -0.0273  0.6149  1.2879
   98SAPS   H5X 9833   1.882   5.953   7.265  0.0400  0.4284  1.6586
   98SAPS   H5Y 9834   2.021   6.081   7.226  2.0673 -0.5370 -0.6310
   98SAPS   C36 9835   2.048   5.959   7.400  0.3251  0.6503  0.4401
   98SAPS   H6X 9836   2.158   5.968   7.390  0.4269 -0.0517  0.8437
   98SAPS   H6Y 9837   2.028   5.854   7.428 -0.2709  0.0043 -2.1049
   98SAPS   C37 9838   1.980   6.031   7.524  0.8038 -0.6943 -0.6542
   98SAPS   H7X 9839   1.870   6.023   7.520  0.6186  0.3921  1.0709
   98SAPS   H7Y 9840   2.010   6.135   7.499  0.6118 -0.3418  0.5168
   98SAPS   C38 9841   2.038   5.985   7.665 -0.0266  0.8510 -0.1524
   98SAPS   H8X 9842   2.145   6.012   7.666 -0.3472  2.4667 -2.4338
   98SAPS   H8Y 9843   2.027   5.875   7.678  2.0115  0.8685  2.5061
   98SAPS   C39 9844   1.978   6.065   7.780 -0.8807  0.3537  0.2316
   98SAPS   H9X 9845   1.868   6.056   7.765 -0.4409 -1.0416 -2.5956
   98SAPS   H9Y 9846   2.009   6.171   7.767 -1.8331  0.3748 -2.3846
   98SAPS  C310 9847   2.004   6.004   7.924 -0.2955 -0.5250  0.4593
   98SAPS  H10X 9848   2.108   5.994   7.963 -0.1105 -0.1460  0.0604
   98SAPS  H10Y 9849   1.978   5.897   7.907 -1.3931 -0.1000 -0.5848
   98SAPS  C311 9850   1.932   6.072   8.038  0.0454  0.4293  0.4151
   98SAPS  H11X 9851   1.825   6.044   8.030  0.2033 -0.0454 -0.1776
   98SAPS  H11Y 9852   1.944   6.182   8.029 -0.7994  0.5137  0.2443
   98SAPS  C312 9853   1.974   6.025   8.180 -0.4857 -0.2025 -0.3391
   98SAPS  H12X 9854   2.081   6.037   8.208 -0.7318 -1.3630  1.1913
   98SAPS  H12Y 9855   1.957   5.916   8.195  2.0410 -0.5661  0.3053
   98SAPS  C313 9856   1.892   6.114   8.280 -0.9527  0.1001  0.5229
   98SAPS  H13X 9857   1.787   6.090   8.251 -0.9410 -0.6927  1.1010
   98SAPS  H13Y 9858   1.917   6.221   8.263 -0.7286 -0.0913 -0.3950
   98SAPS  C314 9859   1.910   6.068   8.418 -0.1363  0.1207  0.3558
   98SAPS  H14X 9860   2.019   6.063   8.438 -0.1464  1.9394  1.0379
   98SAPS  H14Y 9861   1.871   5.964   8.414 -0.2579  0.1904 -0.8468
   98SAPS  C315 9862   1.860   6.151   8.530 -0.1234 -0.1368 -0.4590
   98SAPS  H15X 9863   1.848   6.093   8.624 -1.4755  1.5566  0.4748
   98SAPS  H15Y 9864   1.760   6.188   8.497 -0.1353 -1.0248 -1.4606
   98SAPS  C316 9865   1.943   6.275   8.555 -0.5084 -0.0468  0.1200
   98SAPS  H16X 9866   1.957   6.328   8.458  3.0336  0.6348  0.8443
   98SAPS  H16Y 9867   2.029   6.223   8.602 -1.9514 -1.5045  1.2222
   98SAPS  C317 9868   1.873   6.373   8.655  0.1186  0.5018  0.3490
   98SAPS  H17X 9869   1.836   6.303   8.734 -0.3273  1.1577  0.7301
   98SAPS  H17Y 9870   1.788   6.412   8.596 -1.6661 -4.8135 -1.1219
   98SAPS  C318 9871   1.956   6.483   8.711 -0.2720 -0.1532  0.0720
   98SAPS  H18X 9872   2.015   6.503   8.619 -2.0454 -1.0222 -1.3128
   98SAPS  H18Y 9873   2.012   6.445   8.799 -2.7583 -0.4361  1.6367
   98SAPS  H18Z 9874   1.887   6.567   8.733 -1.7583 -1.5285  0.8651
   99SAPS     N 9875   2.964   3.203   5.718  0.0115 -0.2417 -0.3777
   99SAPS   HN1 9876   2.970   3.307   5.724  2.0410 -0.3985  1.2399
   99SAPS   HN2 9877   2.959   3.191   5.614 -2.1162 -0.4414 -0.2938
   99SAPS   HN3 9878   2.878   3.174   5.768 -1.0664  2.6990 -0.3255
   99SAPS   C12 9879   3.084   3.134   5.777  0.3416  0.4141  0.9019
   99SAPS  H12A 9880   3.078   3.034   5.739  0.9261  1.2959 -1.6835
   99SAPS   C13 9881   3.211   3.204   5.730 -0.6689 -0.1538 -0.0410
   99SAPS  O13A 9882   3.206   3.304   5.651  0.1805 -0.3383 -0.1940
   99SAPS  O13B 9883   3.312   3.121   5.717  0.1351  0.0620 -0.2227
   99SAPS   C11 9884   3.073   3.124   5.935 -0.0104  0.2464  0.1483
   99SAPS  H11A 9885   3.170   3.096   5.981  0.1515  1.0321  0.3005
   99SAPS  H11B 9886   3.000   3.043   5.956  1.5574 -0.5358  2.9535
   99SAPS     P 9887   2.977   3.288   6.120  0.0390  0.1507  0.3298
   99SAPS   O13 9888   3.017   3.428   6.145 -0.8048 -0.0928 -0.3365
   99SAPS   O14 9889   2.831   3.247   6.111  0.2963 -0.3586  0.3523
   99SAPS   O12 9890   3.040   3.252   5.989 -0.2409  0.2662  0.2389
   99SAPS   O11 9891   3.063   3.189   6.207  0.2528  0.4120 -0.3368
   99SAPS    C1 9892   3.208   3.193   6.223  0.5660  0.0666 -0.2350
   99SAPS    HA 9893   3.245   3.088   6.218 -0.2787 -0.2666  0.1409
   99SAPS    HB 9894   3.256   3.245   6.138  0.3445  1.3395  0.3942
   99SAPS    C2 9895   3.251   3.252   6.360 -0.1756 -0.2445 -0.0954
   99SAPS    HS 9896   3.192   3.198   6.437  0.6372 -0.2549  0.5457
   99SAPS   O21 9897   3.225   3.395   6.362  0.7031  0.2463 -0.0020
   99SAPS   C21 9898   3.118   3.424   6.436  0.2933  0.8109 -0.3005
   99SAPS   O22 9899   3.043   3.346   6.491  0.2012  0.0733 -0.1454
   99SAPS   C22 9900   3.118   3.573   6.443  0.1132  0.1310  0.1744
   99SAPS   H2R 9901   3.215   3.627   6.445 -0.1531  0.6086  0.3849
   99SAPS   H2S 9902   3.060   3.602   6.353  0.3853 -2.0103 -0.7605
   99SAPS    C3 9903   3.401   3.223   6.386  0.1808  0.1529 -0.4607
   99SAPS    HX 9904   3.467   3.277   6.314 -0.7251  0.9345 -0.7305
   99SAPS    HY 9905   3.422   3.114   6.375 -1.9341 -0.4557  0.8221
   99SAPS   O31 9906   3.440   3.270   6.516  0.7946  0.3427  0.0570
   99SAPS   C31 9907   3.389   3.194   6.622  0.0049  0.1237  0.1381
   99SAPS   O32 9908   3.327   3.088   6.613  0.3623 -0.5703  0.5240
   99SAPS   C32 9909   3.428   3.271   6.747  0.3409  0.2593  0.6385
   99SAPS   H2X 9910   3.394   3.377   6.745  1.7696  0.7363  0.4535
   99SAPS   H2Y 9911   3.538   3.281   6.751  0.4594 -0.9153  0.5687
   99SAPS   C23 9912   3.032   3.622   6.565 -0.4888 -1.0335 -0.8351
   99SAPS   H3R 9913   2.928   3.587   6.547 -1.6973  1.8968 -0.0987
   99SAPS   H3S 9914   3.031   3.733   6.557  0.5455 -0.9060  0.5143
   99SAPS   C24 9915   3.075   3.580   6.708  0.5096  0.4511  0.3471
   99SAPS   H4R 9916   3.116   3.476   6.703 -0.7138 -0.0118 -0.4627
   99SAPS   H4S 9917   2.986   3.576   6.774 -0.6990  1.6260 -1.1330
   99SAPS   C25 9918   3.175   3.676   6.773 -0.4031  0.5325  0.2491
   99SAPS   H5R 9919   3.264   3.693   6.710  1.0941 -1.6248  1.6731
   99SAPS   C26 9920   3.169   3.748   6.883 -0.8524  0.0341 -0.6387
   99SAPS   H6R 9921   3.256   3.808   6.914 -1.9487  2.2186 -1.5448
   99SAPS   C27 9922   3.060   3.746   6.995 -0.0867  0.1523 -0.4569
   99SAPS   H7R 9923   2.990   3.663   6.969 -0.1263 -0.0172  0.1540
   99SAPS   H7S 9924   3.011   3.845   6.995 -0.3850  0.0527 -2.6112
   99SAPS   C28 9925   3.120   3.715   7.130  0.0766 -0.4924 -0.8225
   99SAPS   H8R 9926   3.183   3.625   7.137  1.5793  0.5845  0.1478
   99SAPS   C29 9927   3.091   3.780   7.243  0.2070 -0.1586  0.1922
   99SAPS   H9R 9928   3.141   3.749   7.336 -0.7806  0.6437  1.0170
   99SAPS  C210 9929   2.997   3.902   7.255 -0.2950  0.6624  0.6500
   99SAPS  H10R 9930   3.022   3.974   7.174 -2.2413  1.6226  0.8229
   99SAPS  H10S 9931   3.015   3.944   7.356 -3.5030 -0.0334  1.6373
   99SAPS  C211 9932   2.847   3.873   7.254  0.2813 -0.2714  0.2623
   99SAPS  H11R 9933   2.811   3.866   7.150 -0.4214  1.2497  0.3693
   99SAPS  C212 9934   2.759   3.865   7.354 -0.3603  0.1601  0.9184
   99SAPS  H12R 9935   2.670   3.804   7.333 -1.0775  0.9394  1.6018
   99SAPS  C213 9936   2.783   3.893   7.498 -0.0703 -0.7396 -0.2586
   99SAPS  H13R 9937   2.688   3.933   7.539 -0.7332 -1.4002 -1.1095
   99SAPS  H13S 9938   2.861   3.970   7.517  0.2536 -1.5901  2.3842
   99SAPS  C214 9939   2.838   3.771   7.572  0.5881 -0.2577  0.6186
   99SAPS  H14R 9940   2.939   3.737   7.546  1.0963  1.6947 -0.1697
   99SAPS  C215 9941   2.763   3.706   7.661 -0.2142  0.2429  0.0004
   99SAPS  H15R 9942   2.809   3.623   7.716 -1.8535 -1.5745 -1.2072
   99SAPS  C216 9943   2.620   3.715   7.712  1.4309 -0.0916 -0.1889
   99SAPS  H16R 9944   2.562   3.624   7.685  1.3971 -0.6564  1.6844
   99SAPS  H16S 9945   2.579   3.807   7.665  1.2799 -0.0452  0.0320
   99SAPS  C217 9946   2.603   3.722   7.863 -0.2104  1.0938 -0.1791
   99SAPS  H17R 9947   2.505   3.762   7.896  0.0202  0.9524  0.6809
   99SAPS  H17S 9948   2.671   3.802   7.899  0.9303 -0.4856  1.3091
   99SAPS  C218 9949   2.637   3.578   7.923  0.0904  0.3160 -0.6852
   99SAPS  H18R 9950   2.734   3.546   7.880 -0.6288  0.6444 -2.6257
   99SAPS  H18S 9951   2.564   3.502   7.887  1.5677 -1.5252  0.0534
   99SAPS  C219 9952   2.631   3.575   8.077 -0.6166 -0.3221  0.3254
   99SAPS  H19R 9953   2.558   3.647   8.118 -1.5336 -0.7963 -0.4287
   99SAPS  H19S 9954   2.731   3.608   8.113 -0.2785 -0.9536 -0.0099
   99SAPS  C220 9955   2.617   3.435   8.138 -0.4033  0.2619 -1.2203
   99SAPS  H20R 9956   2.608   3.436   8.248 -1.4945 -1.3145 -1.2584
   99SAPS  H20S 9957   2.708   3.374   8.115 -0.3779  0.3333 -1.3077
   99SAPS  H20T 9958   2.533   3.384   8.085 -0.0173  0.0294 -1.6197
   99SAPS   C33 9959   3.383   3.202   6.878 -0.5113 -0.3267 -0.2961
   99SAPS   H3X 9960   3.399   3.092   6.869 -0.1516 -0.3368  0.3962
   99SAPS   H3Y 9961   3.276   3.219   6.899 -0.7332  0.9842 -2.3225
   99SAPS   C34 9962   3.467   3.264   6.988  0.6525  0.5404  0.7999
   99SAPS   H4X 9963   3.461   3.375   6.992 -0.7715  0.4553  1.7300
   99SAPS   H4Y 9964   3.573   3.236   6.977  0.2983  0.1086 -2.2310
   99SAPS   C35 9965   3.425   3.220   7.126 -0.1368  0.3808 -0.1566
   99SAPS   H5X 9966   3.382   3.118   7.122  2.6798 -0.9273  0.6186
   99SAPS   H5Y 9967   3.342   3.287   7.156  1.1576  1.0393  2.2515
   99SAPS   C36 9968   3.545   3.232   7.220 -0.3719 -0.0071  0.2267
   99SAPS   H6X 9969   3.606   3.324   7.201 -0.5092  0.5192  2.1090
   99SAPS   H6Y 9970   3.616   3.147   7.209 -2.6972 -2.2917  1.8671
   99SAPS   C37 9971   3.498   3.228   7.364 -0.2588  0.1290  0.7488
   99SAPS   H7X 9972   3.436   3.136   7.363 -0.0274 -0.0254  0.4159
   99SAPS   H7Y 9973   3.421   3.306   7.383  0.0286  0.2793  1.3226
   99SAPS   C38 9974   3.601   3.230   7.477 -0.6721 -0.2584  0.2291
   99SAPS   H8X 9975   3.637   3.335   7.473 -2.1556  0.2968  0.8950
   99SAPS   H8Y 9976   3.694   3.171   7.461 -0.3550 -0.3957  2.3319
   99SAPS   C39 9977   3.548   3.196   7.612  0.5633  0.5267 -0.2950
   99SAPS   H9X 9978   3.555   3.087   7.636  1.6139  1.1406  2.7449
   99SAPS   H9Y 9979   3.442   3.226   7.621  0.3366  1.0362 -3.5893
   99SAPS  C310 9980   3.627   3.268   7.731 -0.7726 -0.3659 -0.3261
   99SAPS  H10X 9981   3.734   3.241   7.737 -0.8440 -0.3808  1.1948
   99SAPS  H10Y 9982   3.579   3.239   7.828  0.0879  0.7072  0.4364
   99SAPS  C311 9983   3.625   3.420   7.735 -0.0111  0.0916 -0.9023
   99SAPS  H11X 9984   3.519   3.453   7.727 -0.0342  0.3634  0.3664
   99SAPS  H11Y 9985   3.695   3.450   7.653 -0.9467 -1.4259 -2.3205
   99SAPS  C312 9986   3.689   3.480   7.861 -0.0756  0.5644 -0.3299
   99SAPS  H12X 9987   3.704   3.589   7.842  2.7241  0.2301 -0.4561
   99SAPS  H12Y 9988   3.795   3.450   7.874 -0.0206  1.0120  0.3156
   99SAPS  C313 9989   3.608   3.454   7.993 -0.0394  0.6034 -0.1955
   99SAPS  H13X 9990   3.622   3.348   8.022 -0.0423  0.7576  0.3764
   99SAPS  H13Y 9991   3.498   3.466   7.981 -0.0529  0.8165  0.1391
   99SAPS  C314 9992   3.640   3.529   8.125  0.5768 -0.2006  0.5891
   99SAPS  H14X 9993   3.558   3.514   8.199 -0.0119  1.6827  0.3871
   99SAPS  H14Y 9994   3.644   3.638   8.100  0.9733 -0.0281  1.3673
   99SAPS  C315 9995   3.777   3.507   8.197 -0.1410 -0.7764 -0.5341
   99SAPS  H15X 9996   3.857   3.554   8.136 -2.1140  0.0181 -2.6703
   99SAPS  H15Y 9997   3.790   3.396   8.198  2.4891 -0.5405 -1.1233
   99SAPS  C316 9998   3.778   3.563   8.338 -0.2015  0.1236 -0.4287
   99SAPS  H16X 9999   3.696   3.529   8.406 -0.3868 -1.4246 -1.4056
   99SAPS  H16Y10000   3.765   3.673   8.322  0.4436  0.4301  0.9917
   99SAPS  C31710001   3.919   3.553   8.398  0.1443 -0.0644 -0.2363
   99SAPS  H17X10002   3.923   3.613   8.491 -0.7605 -1.3320  0.6610
   99SAPS  H17Y10003   3.976   3.607   8.319  1.7130 -0.0871  0.8320
   99SAPS  C31810004   3.969   3.419   8.433  0.0063  0.3252  0.5769
   99SAPS  H18X10005   3.894   3.374   8.501  1.0399  1.7882  2.7922
   99SAPS  H18Y10006   4.055   3.426   8.503 -1.5555  1.7047  2.4682
   99SAPS  H18Z10007   3.985   3.356   8.343 -1.1970  0.3413  0.3433
  100SAPS     N10008   6.197   4.107   6.068 -0.4533  0.0465  0.9556
  100SAPS   HN110009   6.137   4.074   6.146  2.7340  0.2939  3.7506
  100SAPS   HN210010   6.271   4.162   6.117  0.1476 -0.6958  0.8995
  100SAPS   HN310011   6.150   4.158   5.991 -0.3439 -0.8401  0.2863
  100SAPS   C1210012   6.265   3.985   6.012 -0.0936 -0.6831  0.2217
  100SAPS  H12A10013   6.190   3.924   5.964 -1.1557 -1.7708  3.0446
  100SAPS   C1310014   6.388   4.016   5.921  0.6905 -0.1898 -0.2823
  100SAPS  O13A10015   6.426   4.134   5.906 -0.5262  0.7891 -0.1824
  100SAPS  O13B10016   6.440   3.916   5.864 -0.3353 -0.2253  0.6718
  100SAPS   C1110017   6.322   3.913   6.132 -0.3343  0.6346  0.5251
  100SAPS  H11A10018   6.386   3.984   6.188  1.0364  0.0816 -0.2907
  100SAPS  H11B10019   6.396   3.842   6.088  0.3351  1.2532  0.6341
  100SAPS     P10020   6.188   3.699   6.208  0.4555  0.3518  0.0872
  100SAPS   O1310021   6.052   3.673   6.150  0.3270 -0.3830 -0.1680
  100SAPS   O1410022   6.303   3.631   6.140 -0.7214  0.1887  0.2663
  100SAPS   O1210023   6.220   3.853   6.214 -0.2010  0.0843  0.2744
  100SAPS   O1110024   6.187   3.662   6.356 -0.1344 -0.3231 -0.3609
  100SAPS    C110025   6.321   3.690   6.421  0.2519  0.3368  0.1132
  100SAPS    HA10026   6.366   3.592   6.449  0.3099 -0.3041 -2.0866
  100SAPS    HB10027   6.398   3.728   6.351 -0.2171  1.4347  0.1674
  100SAPS    C210028   6.308   3.767   6.552  0.2726 -0.0409 -0.3562
  100SAPS    HS10029   6.416   3.771   6.579  0.9530 -3.2478 -2.0561
  100SAPS   O2110030   6.219   3.704   6.643  0.4165 -0.2065 -0.2840
  100SAPS   C2110031   6.274   3.606   6.714 -0.6539  0.3556 -0.4116
  100SAPS   O2210032   6.389   3.575   6.709  0.3717 -0.1658 -0.1189
  100SAPS   C2210033   6.173   3.553   6.814 -0.1916  0.0210  0.2066
  100SAPS   H2R10034   6.076   3.607   6.820 -0.8602 -1.2662  2.1457
  100SAPS   H2S10035   6.155   3.451   6.773  1.2697 -0.0514 -0.3058
  100SAPS    C310036   6.274   3.923   6.548 -0.2635 -0.4100  0.1368
  100SAPS    HX10037   6.175   3.915   6.497  0.6082 -2.3939 -1.3791
  100SAPS    HY10038   6.343   3.970   6.475 -2.3109  1.2486 -0.8666
  100SAPS   O3110039   6.267   3.978   6.681 -0.2145  0.4143 -0.1481
  100SAPS   C3110040   6.386   4.035   6.725 -0.0835 -0.3575 -0.1660
  100SAPS   O3210041   6.476   4.069   6.656  0.0967 -0.6812 -0.1579
  100SAPS   C3210042   6.384   4.052   6.874  0.1323 -0.0852 -0.3191
  100SAPS   H2X10043   6.324   3.979   6.932  0.6245 -2.1414 -2.2512
  100SAPS   H2Y10044   6.322   4.142   6.893 -0.2864 -0.4892  0.2554
  100SAPS   C2310045   6.234   3.549   6.953 -0.9261 -0.0204  0.1129
  100SAPS   H3R10046   6.310   3.468   6.946  0.5401  1.3233 -0.1734
  100SAPS   H3S10047   6.157   3.523   7.028 -1.5951  0.3169 -0.4471
  100SAPS   C2410048   6.303   3.679   7.002 -0.4674 -0.6595  0.3348
  100SAPS   H4R10049   6.238   3.713   7.085 -0.3612  0.6498 -0.1057
  100SAPS   H4S10050   6.293   3.760   6.927 -0.2958  0.4692  1.4864
  100SAPS   C2510051   6.451   3.656   7.050  0.4345  0.2761 -0.1676
  100SAPS   H5R10052   6.529   3.671   6.974  1.7839  1.9836  1.4484
  100SAPS   C2610053   6.489   3.640   7.180  1.2374 -0.5483  0.8518
  100SAPS   H6R10054   6.594   3.610   7.196  1.6971  0.7053  0.3470
  100SAPS   C2710055   6.414   3.642   7.309 -0.2462  0.4436  0.9723
  100SAPS   H7R10056   6.426   3.547   7.366 -0.2084 -0.2341 -0.1289
  100SAPS   H7S10057   6.306   3.655   7.287 -0.4258  1.3042  2.2747
  100SAPS   C2810058   6.454   3.761   7.387  0.0776  0.3072  0.8411
  100SAPS   H8R10059   6.448   3.861   7.341  0.9643  0.8931  1.9414
  100SAPS   C2910060   6.491   3.763   7.516  0.1600  0.5119  0.2130
  100SAPS   H9R10061   6.521   3.862   7.555 -0.8706  1.0232 -0.2713
  100SAPS  C21010062   6.506   3.640   7.613 -0.7358 -0.3225  0.2794
  100SAPS  H10R10063   6.440   3.557   7.579 -0.0162 -0.5564 -0.5874
  100SAPS  H10S10064   6.473   3.685   7.709 -1.2825  2.3419 -1.0414
  100SAPS  C21110065   6.648   3.586   7.605  0.0729 -0.6077 -0.4769
  100SAPS  H11R10066   6.687   3.584   7.502 -1.2265  1.4100 -1.0764
  100SAPS  C21210067   6.728   3.566   7.714  0.8247  0.2953  0.4046
  100SAPS  H12R10068   6.832   3.536   7.696  0.6038 -1.5693  1.8516
  100SAPS  C21310069   6.692   3.593   7.858  0.1187  0.2096 -0.2436
  100SAPS  H13R10070   6.594   3.642   7.875  1.0599  2.1797 -0.2073
  100SAPS  H13S10071   6.760   3.669   7.903  2.2280 -2.0192  0.5863
  100SAPS  C21410072   6.698   3.470   7.946  0.9762  0.8534 -0.1281
  100SAPS  H14R10073   6.720   3.371   7.904 -0.3506 -1.7263  4.5658
  100SAPS  C21510074   6.673   3.471   8.077 -0.7320  0.5114 -0.1129
  100SAPS  H15R10075   6.670   3.377   8.133 -0.7462 -0.3608 -1.5169
  100SAPS  C21610076   6.631   3.593   8.160  0.1971  0.1246 -0.2002
  100SAPS  H16R10077   6.549   3.654   8.117  0.6787  2.2360  1.6725
  100SAPS  H16S10078   6.708   3.672   8.171 -1.5312  1.6313  1.7864
  100SAPS  C21710079   6.587   3.559   8.304  0.2466  0.5514 -0.1212
  100SAPS  H17R10080   6.581   3.651   8.367 -0.9053 -0.5808  1.4888
  100SAPS  H17S10081   6.663   3.498   8.357  0.8866  1.4107 -0.0312
  100SAPS  C21810082   6.447   3.512   8.298  0.2982 -0.1216 -0.2382
  100SAPS  H18R10083   6.439   3.404   8.275 -2.8440  0.0130 -0.1982
  100SAPS  H18S10084   6.376   3.573   8.237 -0.8134 -0.8656  0.2767
  100SAPS  C21910085   6.378   3.527   8.437  0.7299  0.5164  0.1100
  100SAPS  H19R10086   6.269   3.526   8.416  0.8783  0.0170 -0.6848
  100SAPS  H19S10087   6.408   3.626   8.476 -1.3060  0.6114  1.6299
  100SAPS  C22010088   6.435   3.442   8.553 -0.0283  0.2974 -0.4520
  100SAPS  H20R10089   6.390   3.341   8.541  1.6964 -0.4916 -0.6194
  100SAPS  H20S10090   6.422   3.486   8.654  1.4936 -0.0075 -0.0895
  100SAPS  H20T10091   6.545   3.430   8.544 -0.1792 -0.3605 -1.5951
  100SAPS   C3310092   6.521   4.061   6.937  0.4945  0.3118 -0.2998
  100SAPS   H3X10093   6.594   4.122   6.880  2.6990 -1.3485  0.5971
  100SAPS   H3Y10094   6.556   3.956   6.933  0.5609  0.2387  1.6075
  100SAPS   C3410095   6.503   4.103   7.081  0.0846 -0.0262 -0.3479
  100SAPS   H4X10096   6.455   4.018   7.134  3.3387 -0.8157  1.6205
  100SAPS   H4Y10097   6.449   4.200   7.076 -1.0952 -0.6120  0.5294
  100SAPS   C3510098   6.637   4.129   7.147  0.5067 -0.4400  0.1492
  100SAPS   H5X10099   6.712   4.166   7.074 -0.2816 -2.3038 -1.6957
  100SAPS   H5Y10100   6.681   4.031   7.178  1.4623 -0.9664 -2.5672
  100SAPS   C3610101   6.626   4.215   7.273 -0.3193  0.0063 -0.7485
  100SAPS   H6X10102   6.551   4.295   7.256 -0.1969  0.5962  1.2883
  100SAPS   H6Y10103   6.721   4.265   7.298 -0.8707  0.4899  0.4262
  100SAPS   C3710104   6.587   4.149   7.406 -0.1635 -0.9604 -0.0959
  100SAPS   H7X10105   6.655   4.067   7.439 -2.3561 -2.0322  2.1710
  100SAPS   H7Y10106   6.486   4.102   7.399 -1.1513  1.2667 -1.7189
  100SAPS   C3810107   6.582   4.235   7.536 -0.0408 -0.4056 -0.1805
  100SAPS   H8X10108   6.498   4.307   7.530  0.3030  0.1802  1.5427
  100SAPS   H8Y10109   6.675   4.296   7.541 -0.1847 -0.2630  1.1669
  100SAPS   C3910110   6.557   4.154   7.666 -0.3510  0.5934 -0.1881
  100SAPS   H9X10111   6.465   4.092   7.652  2.3705 -3.4397 -2.2560
  100SAPS   H9Y10112   6.542   4.223   7.752 -1.2400 -3.6297  3.4506
  100SAPS  C31010113   6.677   4.066   7.713  0.0475  0.3359 -0.3069
  100SAPS  H10X10114   6.767   4.131   7.727  1.1053 -1.0686 -0.4020
  100SAPS  H10Y10115   6.706   4.001   7.629 -1.3016  2.4121 -2.5132
  100SAPS  C31110116   6.647   3.978   7.835  0.5477 -0.3950  0.5899
  100SAPS  H11X10117   6.676   3.873   7.813 -1.2436 -0.8576  0.2351
  100SAPS  H11Y10118   6.537   3.981   7.846  0.2406  0.8525 -2.0458
  100SAPS  C31210119   6.708   4.019   7.967  0.1262 -0.0015  0.6817
  100SAPS  H12X10120   6.814   4.038   7.938 -0.6287  1.2308 -1.5242
  100SAPS  H12Y10121   6.715   3.939   8.044  1.8259  0.0969  0.6811
  100SAPS  C31310122   6.649   4.148   8.024  0.4331  0.2597 -0.1261
  100SAPS  H13X10123   6.548   4.115   8.055  0.2572 -0.7854 -1.7288
  100SAPS  H13Y10124   6.635   4.227   7.946  2.6566 -0.0519 -0.9085
  100SAPS  C31410125   6.721   4.214   8.144 -0.4812  0.0538 -0.0900
  100SAPS  H14X10126   6.670   4.311   8.163  0.0975  1.0398 -3.0446
  100SAPS  H14Y10127   6.818   4.254   8.107  0.2535 -1.0019  0.6487
  100SAPS  C31510128   6.749   4.124   8.266 -0.5404  0.7632  0.1543
  100SAPS  H15X10129   6.802   4.032   8.232  3.1964  2.0317  1.9201
  100SAPS  H15Y10130   6.654   4.090   8.314 -0.3487 -0.8906 -0.5656
  100SAPS  C31610131   6.845   4.190   8.371  1.0225 -0.1609  0.3145
  100SAPS  H16X10132   6.821   4.130   8.461 -1.0705  0.1517  0.0139
  100SAPS  H16Y10133   6.790   4.286   8.385 -1.7589 -1.4465 -0.9222
  100SAPS  C31710134   6.990   4.195   8.333  0.2279  0.3404  0.4315
  100SAPS  H17X10135   7.015   4.276   8.262  1.0856  0.4114  0.8075
  100SAPS  H17Y10136   7.015   4.101   8.280  0.2963  0.4137  0.3370
  100SAPS  C31810137   7.081   4.216   8.453  0.1492 -0.2839 -0.4242
  100SAPS  H18X10138   7.063   4.320   8.489  1.7607  0.6173 -2.0816
  100SAPS  H18Y10139   7.186   4.201   8.419  0.2634 -2.6436  0.7653
  100SAPS  H18Z10140   7.052   4.145   8.533  0.2490 -1.0714 -1.0858
  101OSM      N10141   4.424   4.509  10.935 -0.2690 -0.5409  0.3541
  101OSM    C1510142   4.474   4.555  10.803  0.0323 -0.3382  0.0694
  101OSM   H15A10143   4.442   4.483  10.729  2.0328 -1.3349  0.0884
  101OSM   H15B10144   4.582   4.566  10.799 -0.0639  0.1552 -1.5410
  101OSM   H15C10145   4.432   4.650  10.775  1.6534  0.5899  0.6205
  101OSM    C1410146   4.484   4.374  10.960  0.4004  0.1656 -0.0311
  101OSM   H14A10147   4.591   4.392  10.958  0.9488 -2.7333 -1.3781
  101OSM   H14B10148   4.465   4.320  10.869 -0.8886 -1.3977  1.1289
  101OSM   H14C10149   4.445   4.325  11.048 -2.2897  2.0006 -0.0719
  101OSM    C1310150   4.475   4.610  11.041  0.9593 -0.2067  0.0308
  101OSM   H13A10151   4.440   4.705  11.005 -3.1838 -1.1330  1.0795
  101OSM   H13B10152   4.582   4.609  11.051  1.2876 -0.0543 -2.6639
  101OSM   H13C10153   4.428   4.573  11.131  1.3897 -3.8167 -1.0740
  101OSM    C1210154   4.274   4.510  10.928  0.0117 -0.5040 -0.6177
  101OSM   H12A10155   4.245   4.475  11.025  6.1224 -0.5733  1.6428
  101OSM   H12B10156   4.243   4.448  10.845  0.0683 -0.4551 -0.6767
  101OSM    C1110157   4.205   4.649  10.895  0.9072 -0.0456 -0.0337
  101OSM   H11A10158   4.247   4.731  10.958 -0.2018 -1.6455  2.9883
  101OSM   H11B10159   4.102   4.646  10.936  1.3722  3.2905  1.6496
  101OSM      P10160   4.114   4.593  10.648 -0.0133 -0.1984 -0.1403
  101OSM    O1310161   4.093   4.455  10.696  0.3316  0.1160  0.9233
  101OSM    O1410162   3.993   4.676  10.617 -0.0228  0.3401  0.1023
  101OSM    O1110163   4.214   4.595  10.527  0.4075  0.2932 -0.4090
  101OSM    O1210164   4.197   4.670  10.754 -0.0540  0.6200  0.3852
  101OSM    C1S10165   4.231   4.711  10.453  0.8367  0.4544 -0.1471
  101OSM    H1S10166   4.335   4.745  10.477  0.2878  1.1556  1.3524
  101OSM    H1T10167   4.177   4.797  10.498  1.4551  0.5077  0.5114
  101OSM     NF10168   4.241   4.828  10.239  0.7493  0.2806 -0.2965
  101OSM    HNF10169   4.158   4.877  10.213 -0.2708  0.3291  2.6600
  101OSM    C2S10170   4.223   4.697  10.303 -0.4662 -0.4131 -0.1278
  101OSM    H2S10171   4.314   4.641  10.274 -0.2209  0.2545 -0.6565
  101OSM    C3S10172   4.100   4.606  10.257  0.0819 -0.8491 -0.1510
  101OSM    H3S10173   3.997   4.633  10.288 -0.9783 -2.2539 -2.2046
  101OSM     O310174   4.114   4.471  10.297 -0.0016 -1.0660  0.1964
  101OSM    HO310175   4.177   4.468  10.369 -0.5916 -0.0305  0.7786
  101OSM    C4S10176   4.096   4.612  10.106 -0.2605  0.1192 -0.4239
  101OSM    H4S10177   4.168   4.542  10.059 -0.2259 -0.2214  0.1225
  101OSM    C5S10178   4.031   4.701  10.025 -0.5890 -0.0393 -0.1014
  101OSM    H5S10179   3.963   4.776  10.066 -0.5030  0.4959 -0.9263
  101OSM    C6S10180   4.051   4.698   9.874  1.1094  0.0783 -0.0079
  101OSM    H6S10181   4.114   4.788   9.855  1.9423 -0.7646 -1.3772
  101OSM    H6T10182   3.955   4.728   9.826  1.9093  1.5503 -0.7564
  101OSM    C7S10183   4.136   4.586   9.815 -0.1748 -0.4165  0.3503
  101OSM    H7S10184   4.073   4.496   9.799  0.9273 -0.9082 -1.6228
  101OSM    H7T10185   4.226   4.574   9.880 -0.5347  0.8630  1.1119
  101OSM    C8S10186   4.193   4.635   9.678  0.3126 -0.4666  0.8261
  101OSM    H8S10187   4.273   4.567   9.641 -0.0799 -1.3354  1.5226
  101OSM    H8T10188   4.238   4.735   9.691  0.2175 -0.4920  1.3669
  101OSM    C9S10189   4.086   4.629   9.568  0.1720 -0.4697 -0.3976
  101OSM    H9S10190   4.009   4.706   9.590  1.4559  0.3334  1.6451
  101OSM    H9T10191   4.049   4.525   9.572  2.9427 -1.5391 -0.1017
  101OSM   C10S10192   4.140   4.662   9.431  0.0925 -0.7772 -0.2468
  101OSM   H10S10193   4.203   4.574   9.403  1.3920  0.0135  0.0770
  101OSM   H10T10194   4.194   4.759   9.428 -1.9515  0.3889 -2.1075
  101OSM   C11S10195   4.022   4.664   9.326 -0.3251 -0.0117  0.6103
  101OSM   H11S10196   3.948   4.740   9.360 -0.6526 -0.3023  0.5568
  101OSM   H11T10197   3.977   4.563   9.315  1.6977 -0.8385 -0.5945
  101OSM   C12S10198   4.074   4.691   9.183  0.4179 -0.4033 -1.0125
  101OSM   H12S10199   4.151   4.617   9.152  2.8010  0.3110  2.6315
  101OSM   H12T10200   4.123   4.791   9.188  0.8591 -0.6943  0.9464
  101OSM   C13S10201   3.964   4.711   9.077  0.6192  0.2930 -0.4893
  101OSM   H13S10202   3.890   4.787   9.112  2.2499  3.0809 -2.6301
  101OSM   H13T10203   3.919   4.610   9.077 -0.2202  0.6541 -0.3951
  101OSM   C14S10204   4.015   4.740   8.935  0.2542 -0.5758 -0.3526
  101OSM   H14S10205   4.096   4.665   8.926  1.8491  1.1107 -0.6548
  101OSM   H14T10206   4.056   4.843   8.933 -0.0706 -0.3916  1.2193
  101OSM   C15S10207   3.902   4.713   8.831 -0.6792 -0.4391  0.1454
  101OSM   H15S10208   3.810   4.774   8.847 -1.3230 -1.1569 -0.6646
  101OSM   H15T10209   3.857   4.613   8.851 -1.8836  0.2428  0.9309
  101OSM   C16S10210   3.938   4.719   8.684 -0.2043 -0.5803  0.2059
  101OSM   H16S10211   3.965   4.619   8.645  1.1761  0.6250 -2.2187
  101OSM   H16T10212   4.033   4.777   8.684 -1.3473  1.3843  0.2400
  101OSM   C17S10213   3.827   4.786   8.599 -0.1671  0.7579  0.1872
  101OSM   H17S10214   3.857   4.787   8.492 -0.4789 -2.2437  0.0148
  101OSM   H17T10215   3.813   4.893   8.627  0.2313  0.1613  2.9533
  101OSM   C18S10216   3.702   4.707   8.608  0.8595  0.9183 -0.2843
  101OSM   H18S10217   3.706   4.607   8.559 -1.3114 -0.7144  2.4895
  101OSM   H18T10218   3.621   4.764   8.558 -0.7062  0.6689  1.8210
  101OSM   H18U10219   3.666   4.680   8.710 -1.2645  0.4573 -1.1142
  101OSM    C1F10220   4.354   4.897  10.230  0.3753  0.3302 -0.2600
  101OSM     OF10221   4.457   4.860  10.285 -0.3379 -0.7742  0.3413
  101OSM    C2F10222   4.350   5.029  10.154  0.2371  0.1008 -0.1418
  101OSM    H2F10223   4.352   5.102  10.238  1.2525 -0.4644  0.3470
  101OSM    H2G10224   4.251   5.046  10.106 -0.4553 -2.8860  0.0619
  101OSM    C3F10225   4.467   5.044  10.055  0.3918 -0.2641  0.0769
  101OSM    H3F10226   4.571   5.052  10.092 -0.3884  0.7843  2.1945
  101OSM    H3G10227   4.442   5.136   9.999 -0.1058 -2.0177 -2.8247
  101OSM    C4F10228   4.467   4.931   9.949  0.0252  0.1963 -1.1757
  101OSM    H4F10229   4.360   4.919   9.920 -0.7607  1.9329  0.7252
  101OSM    H4G10230   4.517   4.849  10.005 -0.7242  1.4571  1.5670
  101OSM    C5F10231   4.556   4.982   9.837 -0.0922  0.8256  0.3412
  101OSM    H5F10232   4.653   5.002   9.887 -0.6244 -1.7483  2.6398
  101OSM    H5G10233   4.509   5.066   9.781 -0.2080 -0.2952 -1.3140
  101OSM    C6F10234   4.565   4.869   9.729 -0.7135 -0.2195 -0.5804
  101OSM    H6F10235   4.467   4.820   9.713 -0.9714  0.4799 -1.2182
  101OSM    H6G10236   4.622   4.786   9.776  0.7430  0.2378 -1.4683
  101OSM    C7F10237   4.632   4.917   9.594  0.3537 -0.5731 -0.0409
  101OSM    H7F10238   4.698   4.841   9.549  1.0649 -2.2025  3.3766
  101OSM    H7G10239   4.690   5.010   9.608 -0.2123 -0.2866  0.4485
  101OSM    C8F10240   4.535   4.956   9.485  0.5211  0.3815 -0.3405
  101OSM    H8F10241   4.584   5.000   9.395  0.6888 -0.5525 -0.7240
  101OSM    H8G10242   4.468   5.035   9.523 -0.8956 -1.6874  1.7209
  101OSM    C9F10243   4.472   4.822   9.441 -0.2961  0.8299  0.0146
  101OSM    H9F10244   4.390   4.788   9.507 -0.6335 -2.0160 -1.6923
  101OSM   C10F10245   4.489   4.753   9.328  0.0510 -0.3973 -0.8416
  101OSM   H10F10246   4.431   4.663   9.305 -0.5921  0.5190 -3.1298
  101OSM   C11F10247   4.581   4.794   9.218 -0.1087 -0.0884 -0.0354
  101OSM   H11F10248   4.664   4.720   9.208 -1.9327 -2.0618 -1.3062
  101OSM   H11G10249   4.616   4.899   9.229  1.8395 -0.9005  2.5006
  101OSM   C12F10250   4.508   4.772   9.081 -0.6606 -0.4759 -0.9861
  101OSM   H12F10251   4.577   4.791   8.996  1.4434  2.0629  1.1406
  101OSM   H12G10252   4.412   4.827   9.073 -1.7682 -2.3392 -1.1134
  101OSM   C13F10253   4.477   4.624   9.048 -0.2735  0.8261  0.6125
  101OSM   H13F10254   4.394   4.590   9.114  1.0905  0.5962  2.2641
  101OSM   H13G10255   4.568   4.567   9.075 -1.1750 -0.6057  0.7249
  101OSM   C14F10256   4.452   4.592   8.897  0.2396 -0.7267 -0.2649
  101OSM   H14F10257   4.547   4.611   8.843 -0.1689 -1.2257 -1.1936
  101OSM   H14G10258   4.375   4.664   8.862 -0.1537 -0.1916  1.6076
  101OSM   C15F10259   4.391   4.450   8.892 -0.2240 -0.0457 -0.1857
  101OSM   H15F10260   4.300   4.436   8.955 -0.1157 -0.3922 -0.1044
  101OSM   H15G10261   4.464   4.379   8.936  1.9224  0.0716 -3.2900
  101OSM   C16F10262   4.382   4.408   8.742  0.2308 -0.0435 -0.5503
  101OSM   H16F10263   4.401   4.299   8.733 -1.2931 -0.7976  3.2706
  101OSM   H16G10264   4.462   4.466   8.691 -0.5025  1.5763  0.0632
  101OSM   C17F10265   4.240   4.439   8.694 -0.6213  0.0600  0.1288
  101OSM   H17F10266   4.243   4.549   8.678  0.7881  0.1560  0.8428
  101OSM   H17G10267   4.167   4.425   8.776 -1.8298  0.6636 -0.8228
  101OSM   C18F10268   4.190   4.359   8.579  0.2311 -0.2421 -0.1538
  101OSM   H18F10269   4.103   4.408   8.531 -1.1994 -0.6555  1.9001
  101OSM   H18G10270   4.150   4.261   8.614 -1.3295  0.2120 -0.5598
  101OSM   H18H10271   4.275   4.348   8.509  1.4029 -3.0043  1.5323
  102OSM      N10272   4.922   3.684  10.872  0.6153 -0.4223 -0.1290
  102OSM    C1510273   4.817   3.594  10.921 -0.5499  0.1258  0.6790
  102OSM   H15A10274   4.856   3.500  10.959 -0.9134  0.3494  1.6200
  102OSM   H15B10275   4.751   3.572  10.838 -1.1032 -0.8606  1.3566
  102OSM   H15C10276   4.765   3.649  10.998  2.7985  1.2129  2.3792
  102OSM    C1410277   5.016   3.704  10.986 -0.2732 -0.5891  0.1678
  102OSM   H14A10278   4.973   3.754  11.071  1.6300 -0.6738  1.2329
  102OSM   H14B10279   5.096   3.770  10.957  0.2610 -1.1619  0.3154
  102OSM   H14C10280   5.070   3.616  11.017  1.1573 -0.9752 -3.0194
  102OSM    C1310281   4.986   3.613  10.762  0.1673 -0.3451  0.4606
  102OSM   H13A10282   5.048   3.539  10.811  1.5599  0.2567 -0.3121
  102OSM   H13B10283   5.058   3.670  10.705 -0.5695 -1.0059 -1.1986
  102OSM   H13C10284   4.921   3.567  10.689  2.1556 -2.4040 -0.1292
  102OSM    C1210285   4.867   3.812  10.818  0.1223 -0.5758 -0.4062
  102OSM   H12A10286   4.831   3.790  10.719 -2.0978 -0.8985  0.4271
  102OSM   H12B10287   4.953   3.875  10.797 -0.4784  0.6828  0.7445
  102OSM    C1110288   4.757   3.892  10.895 -0.1356 -0.1524 -0.2655
  102OSM   H11A10289   4.743   3.981  10.830  1.8402  1.1519  0.9894
  102OSM   H11B10290   4.796   3.923  10.995 -0.3798  1.5225 -0.6589
  102OSM      P10291   4.515   3.835  10.816 -0.2857 -0.1478  0.1742
  102OSM    O1310292   4.439   3.704  10.810 -0.2273  0.0308 -0.6990
  102OSM    O1410293   4.434   3.958  10.851 -0.1510  0.1240  0.4801
  102OSM    O1110294   4.583   3.860  10.681  0.0758  0.5275 -0.6318
  102OSM    O1210295   4.638   3.821  10.921 -0.0578 -1.1928  0.5991
  102OSM    C1S10296   4.500   3.862  10.562  0.4506  0.5663 -0.2494
  102OSM    H1S10297   4.401   3.909  10.578  0.4055  0.5886 -0.5881
  102OSM    H1T10298   4.483   3.756  10.532  0.3899  0.5274 -0.0816
  102OSM     NF10299   4.481   3.960  10.328 -0.1280  0.4968 -0.1266
  102OSM    HNF10300   4.511   3.905  10.251  0.9148 -1.9139  1.8618
  102OSM    C2S10301   4.567   3.946  10.444  0.3527 -0.0946 -0.4633
  102OSM    H2S10302   4.590   4.043  10.492  1.9170 -0.5998 -0.1193
  102OSM    C3S10303   4.705   3.882  10.424 -0.1974 -0.0559 -0.0365
  102OSM    H3S10304   4.691   3.785  10.371  1.1120 -1.4453  1.9706
  102OSM     O310305   4.778   3.843  10.541  0.3340  0.1203  0.3199
  102OSM    HO310306   4.717   3.865  10.612 -1.1657  0.1800 -0.9204
  102OSM    C4S10307   4.784   3.972  10.330  0.2074 -0.4531 -1.1029
  102OSM    H4S10308   4.747   3.954  10.228 -2.2429  0.7623 -0.5056
  102OSM    C5S10309   4.880   4.060  10.369  0.1344 -0.4080 -0.1413
  102OSM    H5S10310   4.919   4.060  10.471 -0.8668 -0.8257  0.2580
  102OSM    C6S10311   4.979   4.137  10.273 -0.7114 -1.0598 -0.4686
  102OSM    H6S10312   5.083   4.111  10.302 -0.6816  0.2660  0.7360
  102OSM    H6T10313   4.950   4.243  10.291 -1.7326 -1.1314 -1.5716
  102OSM    C7S10314   4.968   4.136  10.120  0.4372 -0.0975 -0.1891
  102OSM    H7S10315   4.875   4.183  10.081 -0.5987 -1.1074  0.9504
  102OSM    H7T10316   4.943   4.030  10.100  0.4416  0.2222 -2.0200
  102OSM    C8S10317   5.086   4.182  10.031 -0.2199  0.1928  0.2314
  102OSM    H8S10318   5.179   4.121  10.036 -0.0313  0.2455 -1.9048
  102OSM    H8T10319   5.118   4.285  10.055  0.1475  1.1568 -3.8075
  102OSM    C9S10320   5.049   4.173   9.881 -0.0203  0.6456  0.0476
  102OSM    H9S10321   4.958   4.234   9.867 -0.2673  1.1755  3.2057
  102OSM    H9T10322   5.015   4.070   9.856 -1.6570  1.6779 -2.3788
  102OSM   C10S10323   5.161   4.193   9.775 -0.1976 -0.1055 -0.7270
  102OSM   H10S10324   5.240   4.118   9.795 -0.0544  0.4002  0.6856
  102OSM   H10T10325   5.208   4.291   9.799  0.6275 -0.7181  0.2270
  102OSM   C11S10326   5.114   4.183   9.628 -0.8016  0.2696 -0.7201
  102OSM   H11S10327   5.038   4.261   9.606 -1.5599 -0.5907 -1.2265
  102OSM   H11T10328   5.059   4.086   9.625 -0.7155  0.0897  1.6725
  102OSM   C12S10329   5.222   4.196   9.522  0.2875 -0.2455  0.1105
  102OSM   H12S10330   5.297   4.114   9.525  1.9253  1.2275  0.7294
  102OSM   H12T10331   5.283   4.287   9.537  0.0793 -0.1509  0.3866
  102OSM   C13S10332   5.146   4.183   9.388 -0.3473  1.0476 -0.1268
  102OSM   H13S10333   5.068   4.261   9.380  0.2784  1.6342 -0.7355
  102OSM   H13T10334   5.095   4.085   9.392 -1.3177  1.5108 -0.7117
  102OSM   C14S10335   5.238   4.188   9.269  0.1406 -0.5204 -0.1631
  102OSM   H14S10336   5.327   4.123   9.279 -0.5030 -1.1874  1.5161
  102OSM   H14T10337   5.286   4.289   9.265 -0.2500 -0.2694  1.1216
  102OSM   C15S10338   5.159   4.154   9.137 -0.2187 -0.0316 -0.3585
  102OSM   H15S10339   5.074   4.224   9.122  0.0473 -0.1915 -2.9939
  102OSM   H15T10340   5.110   4.056   9.155 -0.3864  0.1798  0.3706
  102OSM   C16S10341   5.253   4.179   9.016  0.1786 -0.0834  0.2078
  102OSM   H16S10342   5.332   4.102   9.034 -1.3800 -1.8040  0.0092
  102OSM   H16T10343   5.292   4.283   9.019 -1.8045  0.8498 -2.3557
  102OSM   C17S10344   5.183   4.159   8.878 -0.3611 -0.8613  0.4156
  102OSM   H17S10345   5.107   4.238   8.859 -0.3475 -0.9912 -0.1924
  102OSM   H17T10346   5.155   4.052   8.886  2.3266 -1.6501  0.3021
  102OSM   C18S10347   5.274   4.174   8.757 -0.4432 -0.2043  0.0847
  102OSM   H18S10348   5.216   4.152   8.665 -0.2563 -3.7284  0.6792
  102OSM   H18T10349   5.365   4.112   8.769 -1.1666 -1.3125  0.0151
  102OSM   H18U10350   5.316   4.276   8.744  0.4503 -0.5434  0.2654
  102OSM    C1F10351   4.378   4.040  10.323 -0.5512 -0.1219  0.3710
  102OSM     OF10352   4.367   4.132  10.403 -0.1978 -0.0944  0.5239
  102OSM    C2F10353   4.281   4.011  10.221  0.2870  0.4441  0.3407
  102OSM    H2F10354   4.213   3.931  10.258 -0.0185  0.5765  0.0703
  102OSM    H2G10355   4.332   3.976  10.128 -1.8187 -2.6419  0.1953
  102OSM    C3F10356   4.210   4.145  10.195  0.4974 -0.4560  0.2856
  102OSM    H3F10357   4.293   4.219  10.192 -0.9800  1.4634  2.7548
  102OSM    H3G10358   4.139   4.181  10.273  1.8962 -0.8470  1.7902
  102OSM    C4F10359   4.135   4.156  10.060  0.0286 -0.3679 -0.6134
  102OSM    H4F10360   4.106   4.263  10.056 -0.5006 -0.5033 -0.4593
  102OSM    H4G10361   4.037   4.104  10.056 -0.4549  0.2484  1.7586
  102OSM    C5F10362   4.224   4.128   9.941  0.7995  1.2606  0.0227
  102OSM    H5F10363   4.229   4.017   9.941 -0.3347  1.1898  0.5370
  102OSM    H5G10364   4.320   4.184   9.938 -0.3501  3.3087 -1.9653
  102OSM    C6F10365   4.137   4.169   9.820  0.1327 -0.1823 -0.1083
  102OSM    H6F10366   4.070   4.245   9.866 -1.4103 -1.3943 -0.2720
  102OSM    H6G10367   4.087   4.078   9.781 -0.9732  0.1783  0.4351
  102OSM    C7F10368   4.223   4.226   9.697  0.3670 -0.4838 -0.2869
  102OSM    H7F10369   4.289   4.146   9.659  0.7543 -0.3554  0.1035
  102OSM    H7G10370   4.284   4.313   9.731  0.2145 -0.5838  0.2559
  102OSM    C8F10371   4.133   4.265   9.572 -0.2759  0.2481 -0.6941
  102OSM    H8F10372   4.190   4.328   9.501 -0.5847  0.4659 -0.7502
  102OSM    H8G10373   4.042   4.322   9.601 -0.4705 -0.3721 -0.0586
  102OSM    C9F10374   4.084   4.140   9.501  0.0974  0.0368  0.0176
  102OSM    H9F10375   3.990   4.099   9.541 -0.2055 -0.8173 -1.4975
  102OSM   C10F10376   4.134   4.085   9.390 -0.5408 -0.4076  0.2427
  102OSM   H10F10377   4.098   3.986   9.358  0.6028  0.1852 -3.3615
  102OSM   C11F10378   4.251   4.133   9.310 -0.3353 -0.4570 -0.0045
  102OSM   H11F10379   4.336   4.063   9.321 -0.6596 -1.0163 -0.8943
  102OSM   H11G10380   4.295   4.232   9.333  2.8755 -1.6500 -0.5206
  102OSM   C12F10381   4.218   4.145   9.157  0.6073 -0.1932 -0.1929
  102OSM   H12F10382   4.198   4.040   9.126 -0.9524  0.1461 -0.3815
  102OSM   H12G10383   4.308   4.171   9.097 -0.0566  0.3365 -0.9833
  102OSM   C13F10384   4.097   4.231   9.126  0.1864  0.2356  0.3087
  102OSM   H13F10385   4.124   4.338   9.117 -1.5043  0.6528 -0.2216
  102OSM   H13G10386   4.012   4.232   9.198  0.0791  1.3350  0.1836
  102OSM   C14F10387   4.042   4.202   8.984  0.5702 -0.4898 -0.1628
  102OSM   H14F10388   4.033   4.092   8.978 -0.8356 -0.4757  1.0624
  102OSM   H14G10389   4.119   4.220   8.907  0.7471 -2.6011 -0.5320
  102OSM   C15F10390   3.917   4.277   8.943  0.3514  0.3483  0.2845
  102OSM   H15F10391   3.920   4.385   8.969  0.4965  0.5934 -0.6985
  102OSM   H15G10392   3.834   4.231   9.001  1.6910 -2.3441  0.2005
  102OSM   C16F10393   3.882   4.252   8.796 -0.5004  0.9264 -0.4629
  102OSM   H16F10394   3.866   4.144   8.774 -2.2763  1.3032 -1.1428
  102OSM   H16G10395   3.972   4.289   8.742  0.4130  1.8692  1.5722
  102OSM   C17F10396   3.753   4.314   8.758 -0.4056 -0.1581  0.7767
  102OSM   H17F10397   3.762   4.424   8.772  0.3370 -0.0564 -0.3630
  102OSM   H17G10398   3.670   4.274   8.821 -2.3571 -1.7117 -2.5357
  102OSM   C18F10399   3.724   4.287   8.610  0.1784 -0.0603  0.5005
  102OSM   H18F10400   3.614   4.291   8.592 -0.1304 -0.9522  2.0266
  102OSM   H18G10401   3.752   4.181   8.589 -0.3146  0.3820 -3.0359
  102OSM   H18H10402   3.766   4.355   8.533 -1.3123  0.2856 -0.0355
  103OSM      N10403   6.446   6.619  11.155  0.3441  0.6466  0.3053
  103OSM    C1510404   6.425   6.761  11.211  0.3646 -0.2482 -0.1707
  103OSM   H15A10405   6.322   6.791  11.214  0.6432  0.6811  0.6806
  103OSM   H15B10406   6.465   6.839  11.148 -1.2574 -0.8373 -2.0130
  103OSM   H15C10407   6.461   6.769  11.313 -0.7481 -0.2537  0.2310
  103OSM    C1410408   6.375   6.527  11.252 -0.6864 -0.8113  0.2929
  103OSM   H14A10409   6.382   6.424  11.221  0.4077 -0.6398 -0.1007
  103OSM   H14B10410   6.270   6.550  11.254 -0.7761 -0.7265 -2.0221
  103OSM   H14C10411   6.402   6.548  11.354 -1.1319  1.2863  0.0355
  103OSM    C1310412   6.384   6.614  11.021  0.5205 -1.0045  0.1359
  103OSM   H13A10413   6.355   6.515  10.988  0.3308 -1.0959  0.5851
  103OSM   H13B10414   6.459   6.662  10.959 -1.6250 -1.4845 -3.0521
  103OSM   H13C10415   6.291   6.668  11.012  1.2176  0.7413  2.3895
  103OSM    C1210416   6.592   6.580  11.151 -0.5757  0.4197  0.5481
  103OSM   H12A10417   6.594   6.483  11.103 -1.7763  0.5881  0.1077
  103OSM   H12B10418   6.623   6.571  11.254 -0.8305  1.0757  0.6845
  103OSM    C1110419   6.684   6.676  11.076  0.2107  0.3065  0.3531
  103OSM   H11A10420   6.792   6.666  11.103  0.5690  0.6077 -0.9052
  103OSM   H11B10421   6.665   6.779  11.113  0.0207  0.6561 -0.7082
  103OSM      P10422   6.740   6.555  10.845 -0.2535  0.0425  0.0811
  103OSM    O1310423   6.886   6.572  10.877  0.2764  0.2285  0.1383
  103OSM    O1410424   6.681   6.426  10.881 -0.1307 -0.1182  0.0172
  103OSM    O1110425   6.716   6.604  10.693  0.0041  0.6323  0.3419
  103OSM    O1210426   6.670   6.659  10.935 -0.4327  0.0344 -0.4522
  103OSM    C1S10427   6.576   6.635  10.654  0.2671  1.2112 -0.0547
  103OSM    H1S10428   6.523   6.706  10.721 -1.5864  0.8517 -1.0825
  103OSM    H1T10429   6.526   6.537  10.670  1.0643  0.9895  1.2652
  103OSM     NF10430   6.443   6.735  10.475 -0.2732  0.7751 -0.6948
  103OSM    HNF10431   6.371   6.670  10.452  0.2853  0.2876 -1.0756
  103OSM    C2S10432   6.573   6.676  10.507 -0.4398  0.0289 -0.8731
  103OSM    H2S10433   6.646   6.760  10.496 -0.2306  0.0112  0.2656
  103OSM    C3S10434   6.632   6.561  10.412 -0.6206  0.4187  0.4731
  103OSM    H3S10435   6.571   6.468  10.413 -0.1958  0.0800 -1.3861
  103OSM     O310436   6.767   6.513  10.446  0.2152  0.1366 -0.3222
  103OSM    HO310437   6.769   6.523  10.541 -0.5247  2.6277 -0.4867
  103OSM    C4S10438   6.633   6.604  10.268 -0.1551  0.4968 -0.0761
  103OSM    H4S10439   6.552   6.559  10.208 -0.5506 -1.3332  1.7212
  103OSM    C5S10440   6.721   6.684  10.208  0.9284  0.1912  0.8500
  103OSM    H5S10441   6.805   6.730  10.263  2.4498  1.0514 -1.9911
  103OSM    C6S10442   6.709   6.724  10.063 -0.5368 -0.3622 -0.0837
  103OSM    H6S10443   6.806   6.698  10.015 -1.7377 -2.8682 -1.3596
  103OSM    H6T10444   6.682   6.831  10.052 -0.1899 -0.0572  1.7372
  103OSM    C7S10445   6.592   6.669   9.982  0.1127 -0.2184  1.2358
  103OSM    H7S10446   6.500   6.714  10.023  0.8844  1.4289  1.2361
  103OSM    H7T10447   6.578   6.559   9.993  1.9002 -0.8137 -1.4063
  103OSM    C8S10448   6.601   6.707   9.836 -0.1864 -0.2086 -0.8905
  103OSM    H8S10449   6.587   6.817   9.834 -1.3498 -0.3610 -1.9841
  103OSM    H8T10450   6.509   6.665   9.791 -0.2745 -1.8138  0.6501
  103OSM    C9S10451   6.720   6.663   9.753 -0.1203  0.1556  0.1360
  103OSM    H9S10452   6.711   6.558   9.718 -2.2451  0.4972 -0.4922
  103OSM    H9T10453   6.817   6.677   9.806 -0.1870 -1.0526  0.5958
  103OSM   C10S10454   6.731   6.738   9.624 -0.4951 -0.0399  0.5260
  103OSM   H10S10455   6.825   6.704   9.575 -0.0026  0.9982  0.7174
  103OSM   H10T10456   6.740   6.849   9.630  2.8420 -0.1294 -0.6054
  103OSM   C11S10457   6.625   6.708   9.518  0.5525  0.1873 -0.3791
  103OSM   H11S10458   6.529   6.736   9.567 -0.2470  0.0313 -1.8057
  103OSM   H11T10459   6.634   6.599   9.500  0.4946  0.1412 -0.1384
  103OSM   C12S10460   6.648   6.786   9.390  0.0895  0.7295 -0.0635
  103OSM   H12S10461   6.668   6.893   9.413  0.2791  0.5083  0.8030
  103OSM   H12T10462   6.550   6.775   9.338 -0.4771 -1.4143  1.3513
  103OSM   C13S10463   6.769   6.740   9.309 -0.7580 -0.3242  0.3729
  103OSM   H13S10464   6.766   6.629   9.300  3.6535 -0.6498  0.6131
  103OSM   H13T10465   6.858   6.755   9.374  0.3078  0.2204 -1.1520
  103OSM   C14S10466   6.774   6.807   9.167 -0.4813 -0.3453  0.4205
  103OSM   H14S10467   6.667   6.830   9.147 -0.4825  2.1201  2.5824
  103OSM   H14T10468   6.819   6.740   9.091 -0.5288 -0.4992  0.5288
  103OSM   C15S10469   6.850   6.944   9.169  0.3610 -0.2080 -0.2337
  103OSM   H15S10470   6.954   6.908   9.178  0.0422 -0.7942  1.5659
  103OSM   H15T10471   6.828   7.016   9.251  0.6148 -0.4678  0.0653
  103OSM   C16S10472   6.813   7.023   9.033 -0.2493 -0.4366  0.2377
  103OSM   H16S10473   6.703   7.038   9.020 -0.3109  0.5422  1.7065
  103OSM   H16T10474   6.833   6.954   8.947  0.9188 -0.6190  0.6514
  103OSM   C17S10475   6.888   7.152   9.010  0.5287  0.5447 -1.1274
  103OSM   H17S10476   6.858   7.177   8.905 -2.5514  0.9991 -0.2413
  103OSM   H17T10477   6.999   7.147   9.014  0.5369  1.1978 -0.4021
  103OSM   C18S10478   6.857   7.266   9.106  0.1011 -0.3353  0.3089
  103OSM   H18S10479   6.930   7.350   9.105 -1.3495  1.0171 -1.8132
  103OSM   H18T10480   6.862   7.230   9.211 -1.8874 -1.9675 -0.0857
  103OSM   H18U10481   6.759   7.315   9.087 -0.6858 -1.6419  0.8519
  103OSM    C1F10482   6.413   6.856  10.519  0.7743 -0.3862 -0.4829
  103OSM     OF10483   6.485   6.921  10.593  0.2640 -0.1703 -0.2205
  103OSM    C2F10484   6.277   6.916  10.472 -0.3741  0.2509  0.0846
  103OSM    H2F10485   6.216   6.952  10.558 -1.3744 -0.5912 -0.2462
  103OSM    H2G10486   6.228   6.836  10.413  0.4332 -1.5528  1.7197
  103OSM    C3F10487   6.296   7.039  10.382  0.7535 -0.4510 -0.5660
  103OSM    H3F10488   6.339   7.118  10.447 -2.1020  0.6051  0.1910
  103OSM    H3G10489   6.199   7.083  10.349  0.7142 -0.7422 -0.8452
  103OSM    C4F10490   6.394   7.024  10.255  0.4412  0.6909 -0.1458
  103OSM    H4F10491   6.483   6.968  10.289 -0.0600  0.5016  0.9096
  103OSM    H4G10492   6.432   7.121  10.218  0.3921 -0.2531 -2.9529
  103OSM    C5F10493   6.323   6.942  10.140 -0.0665 -0.4416 -0.5292
  103OSM    H5F10494   6.318   6.835  10.167 -0.7178 -0.5504 -1.0541
  103OSM    H5G10495   6.387   6.935  10.049  2.4927  0.6086  1.0810
  103OSM    C6F10496   6.192   6.998  10.098  0.0695 -0.2669 -0.1834
  103OSM    H6F10497   6.208   7.104  10.069  1.5787 -0.4141  0.0179
  103OSM    H6G10498   6.113   6.996  10.175  1.0203 -1.4848  0.8131
  103OSM    C7F10499   6.141   6.925   9.979  0.3259 -0.8097  0.3837
  103OSM    H7F10500   6.124   6.817  10.000 -1.0256 -0.2117  2.6937
  103OSM    H7G10501   6.214   6.926   9.895  0.1042  0.8337  0.1864
  103OSM    C8F10502   6.007   6.980   9.930  0.3735 -0.1478 -0.4926
  103OSM    H8F10503   5.987   6.934   9.831 -1.6321  0.1177 -0.2583
  103OSM    H8G10504   6.005   7.091   9.922 -1.1278 -0.2097 -1.3480
  103OSM    C9F10505   5.890   6.934  10.015 -0.3314 -0.2977  0.7452
  103OSM    H9F10506   5.908   6.919  10.123 -1.8811 -1.9295  0.8217
  103OSM   C10F10507   5.766   6.920   9.960 -0.2770  0.3925 -0.2504
  103OSM   H10F10508   5.678   6.915  10.025 -2.3571  0.0535 -2.9159
  103OSM   C11F10509   5.721   6.945   9.816 -0.2030  0.5601 -0.7519
  103OSM   H11F10510   5.782   7.021   9.763  0.2759  0.1538 -0.7920
  103OSM   H11G10511   5.616   6.980   9.829  0.1856  1.1550  1.1079
  103OSM   C12F10512   5.739   6.810   9.740 -0.2740 -0.8629  0.1695
  103OSM   H12F10513   5.662   6.741   9.782  0.1568 -1.6481 -0.3303
  103OSM   H12G10514   5.839   6.767   9.761 -0.1279 -1.6428 -1.9312
  103OSM   C13F10515   5.721   6.840   9.590  0.1805 -0.5516 -0.3824
  103OSM   H13F10516   5.792   6.915   9.548  0.2961  0.1290  0.9727
  103OSM   H13G10517   5.740   6.749   9.530  0.5116  0.1889 -1.4219
  103OSM   C14F10518   5.577   6.867   9.549 -0.3265 -0.0168 -0.5175
  103OSM   H14F10519   5.539   6.960   9.597 -0.1224  0.0142 -0.4171
  103OSM   H14G10520   5.516   6.783   9.588  0.3489  0.2704  1.2888
  103OSM   C15F10521   5.555   6.889   9.402  0.4785 -0.1454 -1.2463
  103OSM   H15F10522   5.601   6.810   9.337  1.2056 -1.4638  0.7748
  103OSM   H15G10523   5.608   6.984   9.377 -0.8712  0.6406 -1.1819
  103OSM   C16F10524   5.403   6.909   9.381  0.5741 -0.1889  0.0304
  103OSM   H16F10525   5.360   6.948   9.476  1.0429 -0.5293  0.3871
  103OSM   H16G10526   5.361   6.808   9.365  0.6315  0.0330 -1.7073
  103OSM   C17F10527   5.379   6.991   9.256  0.4399  0.0445 -0.4775
  103OSM   H17F10528   5.273   6.970   9.232 -0.0382  1.1516  0.5679
  103OSM   H17G10529   5.445   6.955   9.174 -0.9232 -2.0860 -0.6976
  103OSM   C18F10530   5.402   7.140   9.281  1.0649  0.1459 -0.2187
  103OSM   H18F10531   5.497   7.160   9.334  1.2234  0.6194 -0.6751
  103OSM   H18G10532   5.324   7.173   9.354  1.1718  0.0214 -0.0470
  103OSM   H18H10533   5.386   7.194   9.186 -0.7798  0.6720  0.3501
  104OSM      N10534   3.482   3.922  10.796 -0.5861 -0.7683  0.1070
  104OSM    C1510535   3.433   4.062  10.822 -0.4617  0.6374  0.1576
  104OSM   H15A10536   3.357   4.084  10.749 -0.1153 -0.6667 -0.6347
  104OSM   H15B10537   3.514   4.130  10.802  0.4723 -0.8714 -1.4809
  104OSM   H15C10538   3.407   4.074  10.926  0.5574  2.8171  0.2087
  104OSM    C1410539   3.588   3.924  10.685 -0.2702 -0.0580  0.3404
  104OSM   H14A10540   3.681   3.967  10.719 -0.8050  0.2677  1.4403
  104OSM   H14B10541   3.554   3.977  10.597  0.2655 -1.4558 -0.7406
  104OSM   H14C10542   3.602   3.820  10.658  0.5243 -0.0701  0.7580
  104OSM    C1310543   3.553   3.879  10.919  0.2874  0.6762  0.2842
  104OSM   H13A10544   3.484   3.823  10.980 -0.5534  1.1578 -0.2117
  104OSM   H13B10545   3.595   3.963  10.974 -0.6259  2.0492 -1.0462
  104OSM   H13C10546   3.633   3.809  10.901  1.2653  1.7914  0.1650
  104OSM    C1210547   3.364   3.832  10.772 -0.4823  0.3039  0.4111
  104OSM   H12A10548   3.289   3.840  10.850 -3.0484  0.2955 -1.8892
  104OSM   H12B10549   3.402   3.731  10.776  0.3472  0.4376 -2.2625
  104OSM    C1110550   3.297   3.843  10.630  0.8766  0.3448 -0.3606
  104OSM   H11A10551   3.232   3.754  10.612  0.7298  0.5678 -0.9656
  104OSM   H11B10552   3.376   3.832  10.553  1.1016  2.2800 -0.4561
  104OSM      P10553   3.105   3.986  10.698  0.2172  0.1701  0.0483
  104OSM    O1310554   3.086   3.868  10.787 -0.3375  0.4473 -0.2405
  104OSM    O1410555   3.121   4.115  10.775  0.4073  0.5012  0.3824
  104OSM    O1110556   2.982   4.001  10.595  0.0959  0.2042  0.2680
  104OSM    O1210557   3.236   3.967  10.605  0.4298  0.1918 -0.1691
  104OSM    C1S10558   2.984   4.049  10.460  1.0886 -0.9030 -0.3098
  104OSM    H1S10559   3.055   4.134  10.449 -0.0249  0.1850  0.6652
  104OSM    H1T10560   2.878   4.084  10.459  0.8417 -1.3977  2.1847
  104OSM     NF10561   3.015   3.997  10.221 -0.1587  0.1135  0.1426
  104OSM    HNF10562   2.949   3.989  10.146  0.8245  0.1008 -0.7367
  104OSM    C2S10563   2.998   3.942  10.353  1.0810  0.5369 -0.1362
  104OSM    H2S10564   3.079   3.871  10.383  0.6401  0.6076  1.3098
  104OSM    C3S10565   2.876   3.847  10.351 -0.2906  0.7023 -0.3601
  104OSM    H3S10566   2.791   3.911  10.320  0.2365  1.9214  0.6119
  104OSM     O310567   2.844   3.795  10.482  0.0412  0.0127 -0.0841
  104OSM    HO310568   2.903   3.849  10.535  0.9034  1.0548 -1.9753
  104OSM    C4S10569   2.878   3.739  10.248  0.0871 -0.3281  0.0200
  104OSM    H4S10570   2.824   3.755  10.153  0.9863 -1.3784 -0.7047
  104OSM    C5S10571   2.944   3.622  10.259 -0.0445  0.4728 -0.2143
  104OSM    H5S10572   2.993   3.598  10.354 -2.3152 -3.8616  0.1148
  104OSM    C6S10573   2.952   3.511  10.161  0.1298 -0.3218  0.7044
  104OSM    H6S10574   2.869   3.439  10.176 -1.3121  1.0773 -0.3192
  104OSM    H6T10575   3.049   3.458  10.172  1.2410  1.6416  0.7657
  104OSM    C7S10576   2.935   3.549  10.016  0.4987  0.0268 -0.3385
  104OSM    H7S10577   3.017   3.620   9.994  1.4808 -0.4611  1.5268
  104OSM    H7T10578   2.849   3.615   9.996 -1.1469 -2.3595 -1.6720
  104OSM    C8S10579   2.945   3.431   9.925 -0.1369  0.0314  0.1152
  104OSM    H8S10580   2.847   3.379   9.930  0.8857 -1.9401  1.1276
  104OSM    H8T10581   3.023   3.358   9.955 -1.1723  0.0151  3.1427
  104OSM    C9S10582   2.962   3.475   9.779  0.1480 -0.4992 -0.0119
  104OSM    H9S10583   3.055   3.536   9.780 -0.1944  0.0844 -1.2088
  104OSM    H9T10584   2.884   3.551   9.754  0.8506  0.3912  0.4427
  104OSM   C10S10585   2.970   3.369   9.667 -0.4536  0.0342 -0.6307
  104OSM   H10S10586   2.887   3.296   9.663  1.0773 -1.7970 -0.1560
  104OSM   H10T10587   3.060   3.309   9.693 -0.6696 -0.9074 -1.9701
  104OSM   C11S10588   2.972   3.427   9.523 -0.1252  1.1560 -0.3400
  104OSM   H11S10589   3.064   3.490   9.518 -0.6268  1.7991 -2.2810
  104OSM   H11T10590   2.880   3.487   9.505 -1.7417 -0.8342  0.9155
  104OSM   C12S10591   2.981   3.314   9.414  0.2072 -0.4114  0.4584
  104OSM   H12S10592   2.891   3.250   9.417 -0.8428  1.0056  0.0286
  104OSM   H12T10593   3.068   3.250   9.443  1.1810  1.8547  3.0131
  104OSM   C13S10594   3.011   3.360   9.271 -0.4089 -0.0804  0.5178
  104OSM   H13S10595   3.087   3.440   9.275 -0.3467 -0.1327  0.4164
  104OSM   H13T10596   2.916   3.405   9.233 -0.1912 -1.9582 -2.6676
  104OSM   C14S10597   3.057   3.254   9.180 -0.5178  0.1465 -0.2114
  104OSM   H14S10598   2.995   3.162   9.188  0.1937 -0.3126  0.2137
  104OSM   H14T10599   3.164   3.225   9.193 -0.5861  0.1393  0.3830
  104OSM   C15S10600   3.054   3.308   9.043  0.9591  0.1834 -0.2788
  104OSM   H15S10601   3.133   3.258   8.983 -0.5301 -2.3553 -0.3015
  104OSM   H15T10602   3.070   3.417   9.038 -2.9682  1.0532  2.1754
  104OSM   C16S10603   2.919   3.279   8.968  0.0740 -0.1219  0.6920
  104OSM   H16S10604   2.846   3.333   9.032  1.2332  2.3273  0.0663
  104OSM   H16T10605   2.889   3.172   8.974 -1.9633  0.2303 -1.5050
  104OSM   C17S10606   2.914   3.318   8.818 -0.2426 -0.5071  0.1555
  104OSM   H17S10607   2.930   3.425   8.796 -0.1828 -0.8853 -1.8405
  104OSM   H17T10608   2.815   3.297   8.773 -0.1059 -0.1787 -0.2989
  104OSM   C18S10609   3.017   3.227   8.743 -0.0653  0.6258  0.2490
  104OSM   H18S10610   3.037   3.271   8.643 -0.6217  0.4250  0.0463
  104OSM   H18T10611   2.969   3.128   8.730  0.1774  0.4963  0.3532
  104OSM   H18U10612   3.114   3.223   8.796  0.7440  2.0811 -1.0299
  104OSM    C1F10613   3.119   4.069  10.178  0.3629  0.4015  0.3620
  104OSM     OF10614   3.219   4.086  10.249  0.0899 -0.5847  0.3219
  104OSM    C2F10615   3.130   4.126  10.035  0.1121  0.5256 -0.0775
  104OSM    H2F10616   3.049   4.201  10.022  2.0670  3.0203  1.2439
  104OSM    H2G10617   3.103   4.044   9.964  0.0124 -0.2574  0.8410
  104OSM    C3F10618   3.261   4.198  10.000 -0.6327 -0.2181 -0.7023
  104OSM    H3F10619   3.341   4.123  10.019  0.0931  0.2750 -1.7340
  104OSM    H3G10620   3.288   4.284  10.066  1.5388  0.0693 -1.8668
  104OSM    C4F10621   3.263   4.256   9.860 -0.8791 -0.1844  0.1826
  104OSM    H4F10622   3.358   4.307   9.835 -0.4268 -0.0039  2.1183
  104OSM    H4G10623   3.193   4.342   9.847  1.0352  1.3763 -0.1820
  104OSM    C5F10624   3.236   4.163   9.751 -0.5399 -0.9006  0.4851
  104OSM    H5F10625   3.127   4.142   9.746 -1.0972  1.7059  0.3158
  104OSM    H5G10626   3.288   4.066   9.767  0.1689 -0.4032  1.2788
  104OSM    C6F10627   3.268   4.221   9.609  0.2718  0.1210  1.1194
  104OSM    H6F10628   3.377   4.243   9.601  0.5779 -0.3009  3.4467
  104OSM    H6G10629   3.222   4.319   9.587  1.2544 -0.1117 -2.7184
  104OSM    C7F10630   3.225   4.116   9.502  0.3392 -0.0250  0.3113
  104OSM    H7F10631   3.114   4.109   9.495  0.3374 -2.8032  1.6909
  104OSM    H7G10632   3.272   4.019   9.530 -0.5795 -0.2953  0.9802
  104OSM    C8F10633   3.266   4.152   9.361  0.2002 -0.7277 -0.3553
  104OSM    H8F10634   3.374   4.174   9.362 -0.0713  0.6949  1.4255
  104OSM    H8G10635   3.217   4.246   9.330 -2.8630 -1.8272  0.7460
  104OSM    C9F10636   3.238   4.046   9.262 -0.4808 -0.9897  0.1428
  104OSM    H9F10637   3.161   3.980   9.304  0.5164 -1.5191  1.1860
  104OSM   C10F10638   3.295   4.036   9.144  0.2889 -0.0907  0.4846
  104OSM   H10F10639   3.261   3.950   9.086  1.8167 -0.3264 -0.1247
  104OSM   C11F10640   3.401   4.128   9.089  0.0728 -0.0406  0.0796
  104OSM   H11F10641   3.469   4.162   9.170 -1.4476 -0.2840  1.5066
  104OSM   H11G10642   3.362   4.213   9.028 -0.5549 -1.1002 -1.0414
  104OSM   C12F10643   3.493   4.058   8.992 -0.9437  0.1773  0.2098
  104OSM   H12F10644   3.522   3.956   9.026 -0.0905  0.4331  0.2690
  104OSM   H12G10645   3.590   4.112   8.987 -0.9834  0.2991  0.7350
  104OSM   C13F10646   3.447   4.036   8.843 -0.1234 -0.5960 -0.0648
  104OSM   H13F10647   3.385   3.944   8.852  2.2639 -2.2351  0.8694
  104OSM   H13G10648   3.532   4.017   8.774 -0.1657  1.1408 -0.6427
  104OSM   C14F10649   3.370   4.148   8.764  0.5686  0.1057 -0.0861
  104OSM   H14F10650   3.443   4.230   8.748  2.2184 -1.4963 -1.1822
  104OSM   H14G10651   3.288   4.189   8.828 -1.2688 -1.4353 -1.3266
  104OSM   C15F10652   3.315   4.107   8.625 -0.6970  0.0991  0.5302
  104OSM   H15F10653   3.254   4.017   8.649  0.9472 -1.1267  0.2902
  104OSM   H15G10654   3.404   4.071   8.569 -1.3516  1.3871 -1.4076
  104OSM   C16F10655   3.237   4.201   8.543 -0.1471 -0.0851  0.3267
  104OSM   H16F10656   3.308   4.278   8.505  0.9525  1.1822  4.4013
  104OSM   H16G10657   3.165   4.261   8.602 -1.5346 -0.8416 -0.5411
  104OSM   C17F10658   3.171   4.135   8.426  0.3856 -0.6251 -0.0504
  104OSM   H17F10659   3.101   4.055   8.461 -1.4644 -0.9244 -3.8964
  104OSM   H17G10660   3.245   4.078   8.366  0.2805 -1.9924  1.0582
  104OSM   C18F10661   3.104   4.235   8.342  0.1359  0.4240  0.4708
  104OSM   H18F10662   3.175   4.290   8.277  0.1701 -0.5995 -0.3966
  104OSM   H18G10663   3.052   4.308   8.408  1.3735  1.8880 -0.1260
  104OSM   H18H10664   3.030   4.187   8.274 -2.5346 -1.0442  4.0835
  105OSM      N10665   3.228   2.784  10.853 -0.3161  0.2150 -0.3693
  105OSM    C1510666   3.201   2.847  10.724  0.0839 -0.9307  0.5705
  105OSM   H15A10667   3.289   2.830  10.663 -0.9808 -0.7537 -1.0938
  105OSM   H15B10668   3.194   2.954  10.735  2.3713 -0.7901  1.2903
  105OSM   H15C10669   3.118   2.802  10.670  0.0372 -1.7555  1.3146
  105OSM    C1410670   3.107   2.797  10.933  0.8769  0.3040 -0.3277
  105OSM   H14A10671   3.028   2.743  10.882 -1.1497  2.7552 -0.0217
  105OSM   H14B10672   3.076   2.900  10.939  0.8666  0.3375 -0.8522
  105OSM   H14C10673   3.115   2.759  11.033  1.5715 -0.6206 -0.7194
  105OSM    C1310674   3.254   2.637  10.834  0.0715  0.3178  0.3244
  105OSM   H13A10675   3.232   2.590  10.929  1.2776 -2.2358 -0.5603
  105OSM   H13B10676   3.352   2.608  10.798  0.3637 -1.1518  2.1250
  105OSM   H13C10677   3.186   2.601  10.759  0.2940  2.7046 -1.1114
  105OSM    C1210678   3.341   2.853  10.936 -0.0605 -0.4041 -0.9541
  105OSM   H12A10679   3.355   2.793  11.024  1.1599  2.4659  0.9363
  105OSM   H12B10680   3.313   2.952  10.968  0.4014 -0.2109 -1.1518
  105OSM    C1110681   3.479   2.858  10.862 -0.1505 -0.8656  0.9406
  105OSM   H11A10682   3.498   2.761  10.812 -1.4312  0.6455 -2.8578
  105OSM   H11B10683   3.557   2.873  10.940 -0.4799 -1.1927  1.3356
  105OSM      P10684   3.477   3.107  10.776 -0.3243  0.4857 -0.2320
  105OSM    O1310685   3.392   3.140  10.897  0.0539  0.0745  0.7391
  105OSM    O1410686   3.615   3.158  10.774  0.2049  0.1430 -0.4051
  105OSM    O1110687   3.409   3.155  10.647  0.5516  0.3316  0.0492
  105OSM    O1210688   3.485   2.946  10.752  0.3400 -0.4266  0.1390
  105OSM    C1S10689   3.440   3.118  10.513 -0.0196  0.3146 -0.5668
  105OSM    H1S10690   3.380   3.033  10.473 -1.8482  1.7192 -0.9904
  105OSM    H1T10691   3.547   3.095  10.499 -0.0922 -2.0908  2.0630
  105OSM     NF10692   3.408   3.189  10.274 -0.5223  0.0900 -0.3947
  105OSM    HNF10693   3.495   3.204  10.227  0.9778 -3.2274  0.9513
  105OSM    C2S10694   3.408   3.239  10.413 -0.1097 -0.2535  0.0906
  105OSM    H2S10695   3.305   3.275  10.432 -1.3780 -3.8071  0.8360
  105OSM    C3S10696   3.506   3.359  10.444 -0.6608 -0.2778  0.1512
  105OSM    H3S10697   3.604   3.306  10.440 -2.2908 -3.8488  2.0063
  105OSM     O310698   3.497   3.397  10.582  0.3572  0.1713 -0.2137
  105OSM    HO310699   3.455   3.322  10.624 -1.7396  2.7369  2.7720
  105OSM    C4S10700   3.496   3.472  10.350 -0.2923  0.1988  0.6305
  105OSM    H4S10701   3.552   3.466  10.255 -1.0794  1.4321  0.0709
  105OSM    C5S10702   3.427   3.587  10.364  0.3262 -0.1449 -0.1055
  105OSM    H5S10703   3.379   3.606  10.461 -1.5195 -1.1415 -0.7819
  105OSM    C6S10704   3.421   3.705  10.263  0.2234  0.0879  0.3688
  105OSM    H6S10705   3.498   3.773  10.304 -0.0931  0.3058  0.6119
  105OSM    H6T10706   3.319   3.749  10.266  0.4093  1.0110 -2.8132
  105OSM    C7S10707   3.457   3.670  10.118  0.2288  0.3165  0.8238
  105OSM    H7S10708   3.564   3.641  10.108 -0.2523 -0.8647 -1.8882
  105OSM    H7T10709   3.438   3.765  10.064 -1.0600 -0.3718 -0.0015
  105OSM    C8S10710   3.375   3.559  10.053 -0.7434 -0.3691  0.2857
  105OSM    H8S10711   3.266   3.580  10.053 -0.3212  2.1750  0.7889
  105OSM    H8T10712   3.394   3.466  10.111  0.5714 -0.4163 -0.1945
  105OSM    C9S10713   3.415   3.535   9.903 -0.3470  0.4235 -0.0644
  105OSM    H9S10714   3.365   3.444   9.862  1.5903 -0.8438  0.2790
  105OSM    H9T10715   3.521   3.520   9.876 -0.5934 -0.8044 -0.4353
  105OSM   C10S10716   3.361   3.643   9.809  0.0924 -0.4991 -1.0834
  105OSM   H10S10717   3.420   3.733   9.838 -0.6599 -0.9060  2.1097
  105OSM   H10T10718   3.256   3.669   9.837  0.8955  1.9337 -0.0499
  105OSM   C11S10719   3.367   3.617   9.657 -0.0239  0.1549  0.6871
  105OSM   H11S10720   3.318   3.519   9.643  0.3012  0.2538 -1.4950
  105OSM   H11T10721   3.472   3.595   9.627 -0.5511  0.6338 -1.6561
  105OSM   C12S10722   3.289   3.720   9.567  0.2865  0.2624  0.3885
  105OSM   H12S10723   3.338   3.818   9.586 -2.0473  2.0597 -2.0454
  105OSM   H12T10724   3.187   3.720   9.611  0.5342  1.2820  0.9853
  105OSM   C13S10725   3.291   3.681   9.421  0.7703  0.5142  0.0405
  105OSM   H13S10726   3.205   3.731   9.371  0.3358 -0.6675 -0.4190
  105OSM   H13T10727   3.289   3.571   9.410 -0.2661  0.2465  2.2342
  105OSM   C14S10728   3.417   3.737   9.354 -0.2395 -0.7138 -0.0333
  105OSM   H14S10729   3.507   3.737   9.419 -0.9576 -0.9582  0.9781
  105OSM   H14T10730   3.388   3.844   9.344 -0.7428 -0.8358  0.0974
  105OSM   C15S10731   3.454   3.695   9.212 -0.1388  0.4502  0.7043
  105OSM   H15S10732   3.524   3.609   9.217  1.2294  1.4438 -0.4947
  105OSM   H15T10733   3.512   3.775   9.161  1.3329 -0.7665  0.3940
  105OSM   C16S10734   3.320   3.671   9.132  0.3205 -0.2372  0.1342
  105OSM   H16S10735   3.257   3.763   9.133 -0.1291 -0.4378 -2.2304
  105OSM   H16T10736   3.262   3.592   9.184 -1.0310  0.4507 -0.2521
  105OSM   C17S10737   3.337   3.630   8.986 -0.0518 -0.0204  0.4009
  105OSM   H17S10738   3.360   3.521   8.979  0.5111  0.2089 -2.1345
  105OSM   H17T10739   3.429   3.677   8.946 -0.9447  0.4358 -1.1928
  105OSM   C18S10740   3.219   3.641   8.890 -0.4042  0.0585  0.5391
  105OSM   H18S10741   3.252   3.616   8.787 -1.3594 -0.5077  0.3658
  105OSM   H18T10742   3.187   3.745   8.869  0.1643 -0.0813 -1.1305
  105OSM   H18U10743   3.128   3.583   8.913 -1.9282  1.7736 -0.8492
  105OSM    C1F10744   3.302   3.132  10.219 -0.2609 -0.0325  0.8156
  105OSM     OF10745   3.211   3.088  10.291 -0.2943 -0.2762 -0.4671
  105OSM    C2F10746   3.300   3.117  10.076  0.0021 -0.2485  0.6712
  105OSM    H2F10747   3.383   3.051  10.042  1.6341  2.1875 -0.3212
  105OSM    H2G10748   3.335   3.211  10.029  0.2185  1.0189  3.2005
  105OSM    C3F10749   3.159   3.069  10.032 -0.6801  0.1568 -0.0504
  105OSM    H3F10750   3.085   3.140  10.074  1.8797  2.6540  0.6058
  105OSM    H3G10751   3.131   2.979  10.090  2.8315 -0.3346  1.1360
  105OSM    C4F10752   3.146   3.052   9.874  0.1999 -0.2438  0.0831
  105OSM    H4F10753   3.216   2.972   9.841  1.5830  0.8165  0.3513
  105OSM    H4G10754   3.194   3.147   9.839  1.8122 -0.4438  1.6095
  105OSM    C5F10755   3.003   3.011   9.828  0.2913 -0.2907  0.3353
  105OSM    H5F10756   2.933   3.097   9.832  0.4156 -0.1911  0.4383
  105OSM    H5G10757   2.958   2.927   9.884 -0.0921 -2.0980 -2.5025
  105OSM    C6F10758   3.018   2.969   9.681  0.2071 -0.6962  0.0425
  105OSM    H6F10759   3.066   2.870   9.665 -0.2425 -0.9449  0.2193
  105OSM    H6G10760   3.093   3.038   9.637 -0.4980  0.8535  1.2045
  105OSM    C7F10761   2.887   2.967   9.603 -0.4689 -0.4806  1.2139
  105OSM    H7F10762   2.830   3.062   9.605 -1.8398 -1.2499  0.5654
  105OSM    H7G10763   2.826   2.889   9.654 -2.2332  0.9101  1.3148
  105OSM    C8F10764   2.897   2.928   9.455  0.7892 -0.2257  0.1008
  105OSM    H8F10765   2.948   2.830   9.457 -0.9050 -1.1557 -0.2112
  105OSM    H8G10766   2.945   3.013   9.401 -1.4841  0.9218 -0.2465
  105OSM    C9F10767   2.772   2.919   9.379 -0.1896  0.6338  0.3509
  105OSM    H9F10768   2.691   2.989   9.408  0.8771  2.0677  0.0071
  105OSM   C10F10769   2.757   2.835   9.274 -0.5970  0.5069  1.2637
  105OSM   H10F10770   2.672   2.823   9.205  1.7591 -1.2747 -1.5960
  105OSM   C11F10771   2.857   2.731   9.230  0.7605  0.3505 -0.6718
  105OSM   H11F10772   2.808   2.638   9.193 -1.7025  1.9525 -1.7547
  105OSM   H11G10773   2.940   2.711   9.300  0.9607 -2.0488 -1.4818
  105OSM   C12F10774   2.934   2.797   9.113  0.2185 -0.4129 -0.1863
  105OSM   H12F10775   3.037   2.757   9.105  1.0325  1.1639  1.4880
  105OSM   H12G10776   2.954   2.905   9.130 -3.0370  0.0183  1.8930
  105OSM   C13F10777   2.866   2.783   8.978 -0.8504 -0.3535 -0.2229
  105OSM   H13F10778   2.786   2.857   8.955 -0.9047 -0.2779  0.2053
  105OSM   H13G10779   2.813   2.686   8.983 -0.2128 -0.7045 -0.1165
  105OSM   C14F10780   2.966   2.775   8.860 -0.2451 -0.3191 -0.2051
  105OSM   H14F10781   3.020   2.678   8.858 -1.3868 -0.9736 -0.2391
  105OSM   H14G10782   3.042   2.848   8.893  1.4432 -2.4961  0.9465
  105OSM   C15F10783   2.918   2.792   8.719 -0.0731 -0.8048  0.5531
  105OSM   H15F10784   2.889   2.897   8.700 -0.8650 -1.0626  0.2970
  105OSM   H15G10785   2.824   2.736   8.697 -2.1203  1.5297  2.7966
  105OSM   C16F10786   3.019   2.759   8.613  0.1182 -0.1824 -0.3077
  105OSM   H16F10787   3.049   2.652   8.615  1.0310  0.0500 -0.9874
  105OSM   H16G10788   3.110   2.813   8.647  2.1001 -2.3467 -1.8089
  105OSM   C17F10789   2.979   2.815   8.479 -0.8125 -0.2707  0.0632
  105OSM   H17F10790   2.928   2.913   8.470 -3.5089 -1.6533 -1.1690
  105OSM   H17G10791   2.902   2.744   8.440 -0.1824  0.7537 -3.3186
  105OSM   C18F10792   3.104   2.810   8.395 -0.6657 -0.3206  0.1606
  105OSM   H18F10793   3.161   2.714   8.403 -1.6526 -0.9883 -0.5312
  105OSM   H18G10794   3.165   2.898   8.422  1.4667 -1.4548 -0.7381
  105OSM   H18H10795   3.070   2.820   8.290 -0.7138 -1.4151  0.0558
  106OSM      N10796   5.785   3.648  11.018  0.5270 -0.0046 -0.1690
  106OSM    C1510797   5.886   3.685  10.915  0.2248  0.2260 -0.0119
  106OSM   H15A10798   5.985   3.661  10.951 -0.1378 -1.0122  0.2029
  106OSM   H15B10799   5.882   3.793  10.910  1.3808  0.3095  0.6778
  106OSM   H15C10800   5.874   3.646  10.815  1.2495  1.1490 -0.5127
  106OSM    C1410801   5.782   3.502  11.048 -0.1110 -0.2498  0.3733
  106OSM   H14A10802   5.725   3.459  10.967 -1.6162  2.6533 -0.2475
  106OSM   H14B10803   5.720   3.488  11.135 -0.5946 -0.1558  0.0470
  106OSM   H14C10804   5.873   3.446  11.067 -0.4686 -0.9027  0.1895
  106OSM    C1310805   5.833   3.713  11.146 -0.3940 -0.3757 -0.5347
  106OSM   H13A10806   5.825   3.820  11.134  0.6956 -0.0720  1.0432
  106OSM   H13B10807   5.936   3.693  11.174 -0.1466  2.3015  0.7645
  106OSM   H13C10808   5.763   3.675  11.219  0.0248 -2.2652 -1.0591
  106OSM    C1210809   5.652   3.705  10.971  0.6848  0.1562  0.0241
  106OSM   H12A10810   5.655   3.812  10.959 -0.5575  0.1210 -0.8539
  106OSM   H12B10811   5.574   3.697  11.045 -1.2898  3.1925 -1.5509
  106OSM    C1110812   5.585   3.657  10.838 -0.3766  0.2440 -0.3763
  106OSM   H11A10813   5.666   3.663  10.763  0.1464  3.1991  0.3143
  106OSM   H11B10814   5.491   3.710  10.813 -0.7659  1.4294  3.0119
  106OSM      P10815   5.429   3.454  10.909  0.2143  0.1271 -0.3225
  106OSM    O1310816   5.452   3.306  10.913 -0.2688 -0.3110  0.1782
  106OSM    O1410817   5.395   3.522  11.032  0.5039  0.0439  0.4051
  106OSM    O1110818   5.335   3.491  10.791 -0.4259 -1.0232 -0.3899
  106OSM    O1210819   5.565   3.515  10.853  0.4164  0.0763  0.1762
  106OSM    C1S10820   5.357   3.422  10.663 -0.4522  0.0228  0.0277
  106OSM    H1S10821   5.343   3.313  10.677 -0.3076  0.1368  1.1249
  106OSM    H1T10822   5.460   3.439  10.627 -0.1036 -0.0675  0.9650
  106OSM     NF10823   5.285   3.392  10.430  0.0371 -0.7481 -0.3924
  106OSM    HNF10824   5.319   3.438  10.349 -1.6798  0.8915 -0.2680
  106OSM    C2S10825   5.261   3.468  10.554  0.4454 -0.3898  0.0040
  106OSM    H2S10826   5.155   3.449  10.581 -0.3782  2.8021 -0.5179
  106OSM    C3S10827   5.277   3.620  10.533 -0.1207 -0.5065 -0.3120
  106OSM    H3S10828   5.383   3.638  10.504  1.1287 -0.1706  3.8104
  106OSM     O310829   5.277   3.702  10.652  0.1049 -0.2270  0.1241
  106OSM    HO310830   5.305   3.638  10.718  2.6750  0.9251  0.2666
  106OSM    C4S10831   5.178   3.662  10.432  0.4431  0.6706  0.4220
  106OSM    H4S10832   5.088   3.600  10.422  1.3370 -0.3227 -3.8634
  106OSM    C5S10833   5.206   3.749  10.332  0.4532 -0.4573  0.1484
  106OSM    H5S10834   5.302   3.802  10.320  1.0326 -1.8150 -1.7856
  106OSM    C6S10835   5.109   3.774  10.213  0.5922 -0.0823 -0.2477
  106OSM    H6S10836   5.075   3.880  10.203 -1.6931 -0.9012 -2.1358
  106OSM    H6T10837   5.014   3.719  10.227 -0.0699  1.0562 -0.1242
  106OSM    C7S10838   5.177   3.738  10.083  0.8363  0.4734 -0.1159
  106OSM    H7S10839   5.203   3.630  10.086  1.5166  0.6457  3.0482
  106OSM    H7T10840   5.267   3.799  10.057  1.2278 -0.0733 -0.0737
  106OSM    C8S10841   5.083   3.750   9.955  0.3192 -0.4932  0.0851
  106OSM    H8S10842   5.023   3.844   9.962  0.3704 -0.4827  0.4185
  106OSM    H8T10843   5.013   3.664   9.958 -0.9036  0.4977  0.9962
  106OSM    C9S10844   5.173   3.750   9.830  0.1151 -0.1432  0.2352
  106OSM    H9S10845   5.220   3.651   9.844 -2.0540 -1.4039 -0.7982
  106OSM    H9T10846   5.250   3.830   9.839  0.2389  0.0892 -2.1439
  106OSM   C10S10847   5.101   3.759   9.693  0.1539 -0.1211 -0.1970
  106OSM   H10S10848   5.027   3.842   9.704  1.4648  1.4076 -2.1369
  106OSM   H10T10849   5.040   3.667   9.680 -0.6881  0.3010  0.6645
  106OSM   C11S10850   5.194   3.777   9.572 -0.1052  0.1611  0.4554
  106OSM   H11S10851   5.271   3.698   9.589  0.2288 -0.3849 -2.8122
  106OSM   H11T10852   5.237   3.880   9.576 -0.7000  0.6478 -2.8630
  106OSM   C12S10853   5.118   3.750   9.442 -0.0791 -0.1242 -0.4681
  106OSM   H12S10854   5.040   3.826   9.421 -0.2923  0.2716  1.5534
  106OSM   H12T10855   5.062   3.654   9.455  0.1420 -0.4663 -1.8464
  106OSM   C13S10856   5.210   3.743   9.321  0.0956  0.5983 -0.0769
  106OSM   H13S10857   5.269   3.649   9.322  0.4152  0.7462 -1.8391
  106OSM   H13T10858   5.271   3.836   9.319  0.0254  0.6558  0.3162
  106OSM   C14S10859   5.133   3.732   9.186 -0.4864  0.0157  0.7332
  106OSM   H14S10860   5.052   3.808   9.187  0.5130  1.1079  1.9997
  106OSM   H14T10861   5.087   3.631   9.181 -2.5069  0.9125 -3.3983
  106OSM   C15S10862   5.225   3.765   9.063 -0.5653  0.1426  0.2096
  106OSM   H15S10863   5.262   3.869   9.070  0.2241 -0.0163 -1.1083
  106OSM   H15T10864   5.174   3.765   8.964  0.5861 -0.5525 -0.4118
  106OSM   C16S10865   5.328   3.656   9.030  0.0962 -0.1963  0.8108
  106OSM   H16S10866   5.286   3.554   9.016 -0.1945  0.2765 -2.3678
  106OSM   H16T10867   5.407   3.645   9.108  1.9615 -1.0472 -1.0854
  106OSM   C17S10868   5.411   3.698   8.913 -0.4758 -0.3618 -0.4076
  106OSM   H17S10869   5.439   3.806   8.919 -0.4732 -0.3411 -0.7653
  106OSM   H17T10870   5.349   3.698   8.821  0.7887  0.7597 -1.3060
  106OSM   C18S10871   5.545   3.619   8.893 -0.1599  0.0066  0.4156
  106OSM   H18S10872   5.594   3.599   8.991  0.1541 -3.2144 -0.2924
  106OSM   H18T10873   5.614   3.677   8.828 -0.1346  0.3922  0.7821
  106OSM   H18U10874   5.522   3.524   8.840  1.7447  0.5544 -1.5610
  106OSM    C1F10875   5.258   3.267  10.433  0.6335 -0.2208 -0.3127
  106OSM     OF10876   5.179   3.227  10.524 -0.2073  0.3554 -0.1312
  106OSM    C2F10877   5.298   3.175  10.322 -0.0886 -0.5380  0.0400
  106OSM    H2F10878   5.362   3.096  10.367 -2.4257 -0.6976  3.4468
  106OSM    H2G10879   5.353   3.231  10.244 -1.4313 -0.5670 -0.9743
  106OSM    C3F10880   5.176   3.115  10.252 -0.0316  0.2938  0.3757
  106OSM    H3F10881   5.103   3.193  10.222 -0.6541 -0.1138  0.8030
  106OSM    H3G10882   5.127   3.073  10.342  0.6402  0.0804  0.6514
  106OSM    C4F10883   5.207   3.019  10.136  0.0981 -0.7236 -0.0266
  106OSM    H4F10884   5.110   2.977  10.103  0.6426 -2.7434  0.7797
  106OSM    H4G10885   5.258   2.928  10.172 -0.9390 -0.8804  1.1140
  106OSM    C5F10886   5.299   3.075  10.024  0.7366 -0.7274 -0.4656
  106OSM    H5F10887   5.397   3.100  10.071  0.0217  2.6832 -0.5752
  106OSM    H5G10888   5.252   3.170   9.993  0.1133 -2.1446 -4.4335
  106OSM    C6F10889   5.303   2.978   9.909  0.0804  0.7106  0.1138
  106OSM    H6F10890   5.203   2.974   9.861 -0.2459 -0.5510  0.8612
  106OSM    H6G10891   5.322   2.878   9.955 -1.0143 -0.3902 -1.7175
  106OSM    C7F10892   5.404   3.026   9.807  0.7612  0.3245  0.3497
  106OSM    H7F10893   5.508   3.014   9.843  1.7671  1.5041 -1.9512
  106OSM    H7G10894   5.392   3.136   9.793 -1.0336 -0.1033 -2.0554
  106OSM    C8F10895   5.384   2.965   9.667 -0.4023  0.9137 -0.6182
  106OSM    H8F10896   5.456   3.009   9.595  2.0444 -2.4944 -0.4962
  106OSM    H8G10897   5.286   3.001   9.628 -1.8771 -0.5585  1.5028
  106OSM    C9F10898   5.387   2.807   9.670 -0.3295 -0.7232  0.3032
  106OSM    H9F10899   5.441   2.761   9.754  0.8312 -0.7039 -0.4140
  106OSM   C10F10900   5.312   2.732   9.588  0.0739  0.8404 -0.1969
  106OSM   H10F10901   5.331   2.624   9.596  0.4029  0.9089 -0.0232
  106OSM   C11F10902   5.218   2.777   9.482 -0.7894 -0.0845 -0.5112
  106OSM   H11F10903   5.201   2.887   9.484 -1.5739 -0.1936  1.4149
  106OSM   H11G10904   5.115   2.736   9.493 -0.3612 -1.1327 -0.3494
  106OSM   C12F10905   5.264   2.754   9.336  0.0210 -0.3929  0.1155
  106OSM   H12F10906   5.236   2.651   9.307  0.1376  0.1338 -2.0621
  106OSM   H12G10907   5.371   2.776   9.312 -0.7579  1.3152 -2.1391
  106OSM   C13F10908   5.195   2.858   9.238 -0.1758  0.4344 -0.2129
  106OSM   H13F10909   5.229   2.960   9.266  0.8614 -0.5662  2.5301
  106OSM   H13G10910   5.084   2.852   9.245 -0.3620  2.5786 -0.5930
  106OSM   C14F10911   5.239   2.831   9.090 -0.0097  0.0749 -0.0546
  106OSM   H14F10912   5.335   2.777   9.074 -0.1708  0.3246 -2.0814
  106OSM   H14G10913   5.252   2.925   9.033 -1.9198 -0.1192 -0.8642
  106OSM   C15F10914   5.135   2.756   9.007 -0.1918  0.0672  0.5496
  106OSM   H15F10915   5.090   2.673   9.066 -1.4566 -0.1872 -0.6997
  106OSM   H15G10916   5.186   2.694   8.929 -1.4386 -2.5734  1.6987
  106OSM   C16F10917   5.023   2.836   8.936  0.1651  0.0551  0.3569
  106OSM   H16F10918   5.074   2.912   8.873 -0.9281  0.1652 -0.4071
  106OSM   H16G10919   4.962   2.888   9.011 -1.8868 -1.8348  0.0956
  106OSM   C17F10920   4.934   2.743   8.848  0.8418  0.0091 -0.1384
  106OSM   H17F10921   4.990   2.666   8.791 -1.3029 -1.7190 -0.0405
  106OSM   H17G10922   4.892   2.812   8.771  1.8966  2.7602  1.6043
  106OSM   C18F10923   4.815   2.672   8.915 -0.2944  0.0036 -0.0175
  106OSM   H18F10924   4.747   2.749   8.960  1.7605  2.4565 -0.8711
  106OSM   H18G10925   4.842   2.605   8.999  0.8246 -1.3680 -1.4305
  106OSM   H18H10926   4.758   2.610   8.842 -0.8679  0.6678 -0.1467
  107OSM      N10927   3.350   0.274  10.902 -0.1374 -0.5294  0.4386
  107OSM    C1510928   3.255   0.163  10.889  0.0078  0.1887  0.2586
  107OSM   H15A10929   3.313   0.072  10.878  0.5340  0.6256 -0.7544
  107OSM   H15B10930   3.186   0.169  10.807 -1.8486 -0.1013  1.7427
  107OSM   H15C10931   3.193   0.157  10.977 -1.6521 -0.5419 -0.9026
  107OSM    C1410932   3.274   0.405  10.933  0.6614  0.6361 -0.3252
  107OSM   H14A10933   3.176   0.395  10.889 -0.4339 -0.3648  2.1198
  107OSM   H14B10934   3.323   0.497  10.905  2.5929  0.1121  1.0784
  107OSM   H14C10935   3.243   0.406  11.037  0.5369 -0.1462 -0.3492
  107OSM    C1310936   3.439   0.241  11.024  0.0639  0.3965  0.2342
  107OSM   H13A10937   3.498   0.323  11.060 -2.3829  1.4874  2.1182
  107OSM   H13B10938   3.506   0.165  10.989 -0.0846  0.0006  0.7798
  107OSM   H13C10939   3.386   0.207  11.113  1.6346 -2.1512  0.3014
  107OSM    C1210940   3.425   0.286  10.774 -0.4307 -0.4570 -0.1978
  107OSM   H12A10941   3.499   0.365  10.778 -1.3042  0.4406 -1.1180
  107OSM   H12B10942   3.361   0.312  10.691 -1.2091 -1.0413  0.1985
  107OSM    C1110943   3.487   0.162  10.713 -0.9841  0.0589  0.1073
  107OSM   H11A10944   3.522   0.198  10.614 -0.0071  0.9633  0.7615
  107OSM   H11B10945   3.412   0.086  10.685 -2.5205  1.0860  1.3040
  107OSM      P10946   3.727   0.185  10.807  0.6024  0.2738  0.2806
  107OSM    O1310947   3.697   0.328  10.827 -0.1414  0.5596  0.4195
  107OSM    O1410948   3.810   0.115  10.910 -0.6669  0.4129 -0.2872
  107OSM    O1110949   3.793   0.161  10.666  0.0840 -0.3146 -0.1312
  107OSM    O1210950   3.593   0.107  10.791 -0.0627 -0.1489 -0.1451
  107OSM    C1S10951   3.818   0.049  10.599  0.2861 -0.8985 -0.4404
  107OSM    H1S10952   3.747  -0.032  10.628 -0.7689 -0.1211 -0.7853
  107OSM    H1T10953   3.917   0.010  10.629  1.1154  1.8760  0.7553
  107OSM     NF10954   3.798  -0.061  10.378 -0.2409  0.0347 -0.1512
  107OSM    HNF10955   3.887  -0.105  10.371 -0.1586  0.3697 -1.3308
  107OSM    C2S10956   3.791   0.073  10.450  0.4472  0.0902 -0.5746
  107OSM    H2S10957   3.686   0.105  10.434  0.2614  0.9510  1.8769
  107OSM    C3S10958   3.888   0.176  10.393  0.1446 -0.8480 -0.0229
  107OSM    H3S10959   3.993   0.148  10.417  0.5377  1.0498  0.6210
  107OSM     O310960   3.879   0.303  10.460 -0.5452 -0.1582  0.4625
  107OSM    HO310961   3.825   0.284  10.537  0.2415 -3.2982  0.3724
  107OSM    C4S10962   3.869   0.212  10.245  0.8162 -0.5364 -0.1230
  107OSM    H4S10963   3.789   0.283  10.219  0.2458 -1.6114 -1.4061
  107OSM    C5S10964   3.932   0.160  10.143 -0.0486  0.7014 -0.2420
  107OSM    H5S10965   4.016   0.093  10.170  0.1766  1.5745  1.3621
  107OSM    C6S10966   3.916   0.188   9.997 -0.3136  0.0572  0.8258
  107OSM    H6S10967   4.016   0.206   9.953 -0.6405 -1.1571 -0.4861
  107OSM    H6T10968   3.860   0.281   9.975  0.6169  0.4715  0.1287
  107OSM    C7S10969   3.874   0.070   9.908 -0.1486 -0.2711 -0.9355
  107OSM    H7S10970   3.857   0.106   9.804  0.1279 -0.6377 -1.1112
  107OSM    H7T10971   3.786   0.012   9.945  0.6336  0.3353  2.1265
  107OSM    C8S10972   3.981  -0.033   9.890 -0.0170  0.6768  0.5827
  107OSM    H8S10973   3.998  -0.084   9.987  1.2513  1.0217  0.5537
  107OSM    H8T10974   4.076   0.017   9.865  1.3243 -0.7782  2.4875
  107OSM    C9S10975   3.941  -0.151   9.794 -0.7544  0.4564  0.1526
  107OSM    H9S10976   3.852  -0.203   9.833 -1.1426  1.5967  0.8320
  107OSM    H9T10977   4.019  -0.230   9.791  0.4135  1.6025 -0.9728
  107OSM   C10S10978   3.912  -0.106   9.646 -0.0204  0.1597 -0.3640
  107OSM   H10S10979   4.003  -0.058   9.604 -1.0631  3.1135  0.4459
  107OSM   H10T10980   3.833  -0.028   9.645 -1.0573 -0.8653 -1.1130
  107OSM   C11S10981   3.848  -0.221   9.560  0.1541  0.2615  0.3407
  107OSM   H11S10982   3.748  -0.249   9.600 -1.1215 -0.5553 -3.0952
  107OSM   H11T10983   3.914  -0.310   9.562 -0.8727 -0.5237  0.1096
  107OSM   C12S10984   3.830  -0.178   9.410 -0.4045  0.4420  0.7974
  107OSM   H12S10985   3.919  -0.136   9.359 -0.2821 -2.2645 -1.4283
  107OSM   H12T10986   3.758  -0.093   9.417 -1.6859 -0.4064 -1.2757
  107OSM   C13S10987   3.766  -0.289   9.320  0.5589 -0.1114  0.7642
  107OSM   H13S10988   3.663  -0.304   9.360  0.8264 -0.8227  1.1987
  107OSM   H13T10989   3.816  -0.387   9.329  1.7955  0.4418  0.1591
  107OSM   C14S10990   3.766  -0.247   9.175 -0.0608  0.2760  0.8244
  107OSM   H14S10991   3.861  -0.239   9.118 -1.0095 -0.5759 -0.9573
  107OSM   H14T10992   3.718  -0.147   9.171  1.1068  0.9606  2.5604
  107OSM   C15S10993   3.671  -0.341   9.099 -0.9202  0.1426 -0.5318
  107OSM   H15S10994   3.579  -0.335   9.161 -0.4262  0.0768  0.2259
  107OSM   H15T10995   3.714  -0.443   9.096  1.1453  0.9933 -2.2908
  107OSM   C16S10996   3.646  -0.296   8.954 -0.3017 -0.4933 -0.7626
  107OSM   H16S10997   3.608  -0.191   8.953 -2.7446 -1.3349 -0.7559
  107OSM   H16T10998   3.565  -0.364   8.921  0.5295 -1.0592 -1.6865
  107OSM   C17S10999   3.765  -0.283   8.859 -0.3246  1.0741  1.4827
  107OSM   H17S11000   3.810  -0.384   8.845 -2.2403  0.1033  1.9986
  107OSM   H17T11001   3.837  -0.213   8.905  0.9845  1.1608 -0.5456
  107OSM   C18S11002   3.721  -0.240   8.712  0.4825  0.4722 -0.7583
  107OSM   H18S11003   3.665  -0.144   8.718 -1.1402 -0.4737 -0.2331
  107OSM   H18T11004   3.658  -0.319   8.666 -0.4109  0.9239 -0.3338
  107OSM   H18U11005   3.808  -0.211   8.650 -0.6277  0.6416 -2.2905
  107OSM    C1F11006   3.696  -0.146  10.389 -0.3932  0.1140 -0.6565
  107OSM     OF11007   3.604  -0.127  10.470  0.1314  0.5408  0.7937
  107OSM    C2F11008   3.696  -0.260  10.301  0.4364 -0.6423 -0.1119
  107OSM    H2F11009   3.701  -0.359  10.351 -1.2748 -1.5073 -1.5310
  107OSM    H2G11010   3.793  -0.266  10.249  0.3884 -3.1718  0.0063
  107OSM    C3F11011   3.577  -0.266  10.203  0.0839 -0.1804 -0.1190
  107OSM    H3F11012   3.531  -0.164  10.202  1.4115  0.4345  0.0357
  107OSM    H3G11013   3.499  -0.336  10.241  0.0286 -0.3765 -0.5891
  107OSM    C4F11014   3.611  -0.305  10.060  0.1996  0.0033  0.3208
  107OSM    H4F11015   3.648  -0.409  10.055 -1.2591 -0.4806 -1.4143
  107OSM    H4G11016   3.703  -0.255  10.022  0.1375 -0.4036 -0.3764
  107OSM    C5F11017   3.502  -0.290   9.952 -0.2222  0.0560  0.0872
  107OSM    H5F11018   3.461  -0.187   9.942  0.5355  0.2949 -0.6697
  107OSM    H5G11019   3.423  -0.361   9.982  0.9960 -2.1242 -1.5583
  107OSM    C6F11020   3.548  -0.328   9.808 -0.2045 -0.0222 -0.7512
  107OSM    H6F11021   3.618  -0.414   9.799  0.5914  0.8268 -6.5246
  107OSM    H6G11022   3.609  -0.238   9.780 -0.1918  0.2931  0.2315
  107OSM    C7F11023   3.443  -0.356   9.703  0.0580 -0.0180  0.0717
  107OSM    H7F11024   3.372  -0.273   9.682 -0.4522 -0.6238 -0.6399
  107OSM    H7G11025   3.395  -0.450   9.739  2.2593 -1.1816  0.1319
  107OSM    C8F11026   3.497  -0.386   9.563  0.2167 -0.2621  0.0837
  107OSM    H8F11027   3.587  -0.451   9.567  0.7767  0.4992 -0.0681
  107OSM    H8G11028   3.543  -0.290   9.532  0.2179 -0.2258  0.1990
  107OSM    C9F11029   3.408  -0.451   9.460  0.6563  0.7179  0.4034
  107OSM    H9F11030   3.419  -0.560   9.450 -1.3767  0.6164 -2.0537
  107OSM   C10F11031   3.326  -0.389   9.367 -0.2051  0.5930 -0.8553
  107OSM   H10F11032   3.270  -0.452   9.296  1.1834  0.4013 -1.8252
  107OSM   C11F11033   3.306  -0.237   9.354 -0.0979 -0.7606  0.6164
  107OSM   H11F11034   3.399  -0.176   9.363 -1.2396  0.9241  1.5235
  107OSM   H11G11035   3.241  -0.206   9.439  1.2932  0.4527  1.2748
  107OSM   C12F11036   3.233  -0.181   9.226 -0.9971 -0.1145 -0.6104
  107OSM   H12F11037   3.178  -0.091   9.261 -0.4781  0.1401 -0.4433
  107OSM   H12G11038   3.158  -0.260   9.201  0.4126 -2.3438  1.7164
  107OSM   C13F11039   3.327  -0.151   9.111 -0.6145 -0.0088  0.2725
  107OSM   H13F11040   3.371  -0.244   9.069 -1.8843 -0.2142 -0.6818
  107OSM   H13G11041   3.413  -0.084   9.129  0.8142 -1.8375  0.5453
  107OSM   C14F11042   3.242  -0.096   8.993 -0.4785 -0.4170 -0.3846
  107OSM   H14F11043   3.178  -0.009   9.019  0.3504  0.1235 -0.1079
  107OSM   H14G11044   3.175  -0.180   8.967 -1.8824  0.3653  0.5889
  107OSM   C15F11045   3.332  -0.081   8.867  0.6602  0.5413 -0.6325
  107OSM   H15F11046   3.375  -0.182   8.848  0.1578  0.2617 -0.3005
  107OSM   H15G11047   3.419  -0.015   8.884 -0.5926  1.1691  5.2436
  107OSM   C16F11048   3.250  -0.045   8.747 -0.0223 -0.8854  0.8649
  107OSM   H16F11049   3.212   0.060   8.748  0.9933 -0.5112  0.7000
  107OSM   H16G11050   3.171  -0.123   8.745 -1.8247  0.8497  0.3441
  107OSM   C17F11051   3.320  -0.050   8.605 -0.1564  0.1391 -0.5919
  107OSM   H17F11052   3.394   0.033   8.601  0.5377 -0.3492  1.1098
  107OSM   H17G11053   3.244  -0.045   8.524  2.0013 -1.7146 -2.8849
  107OSM   C18F11054   3.385  -0.184   8.576  0.1281  0.1519 -0.1268
  107OSM   H18F11055   3.310  -0.265   8.591  0.8576 -0.6357 -0.6360
  107OSM   H18G11056   3.466  -0.205   8.650  1.1368 -1.1734 -1.5454
  107OSM   H18H11057   3.426  -0.193   8.473  0.5394 -1.5512  0.1620
  108OSM      N11058   2.589   3.458  10.787 -0.3709  0.2585  0.1798
  108OSM    C1511059   2.653   3.335  10.726  0.0611 -0.0281 -0.6764
  108OSM   H15A11060   2.716   3.363  10.642  2.0449  2.4462  1.4575
  108OSM   H15B11061   2.575   3.266  10.697  0.5690 -0.9636  0.1508
  108OSM   H15C11062   2.712   3.281  10.798  3.3061  3.4018 -0.4408
  108OSM    C1411063   2.488   3.408  10.880 -0.0258 -0.3011  0.2878
  108OSM   H14A11064   2.416   3.358  10.818  1.5342 -3.1349  0.5911
  108OSM   H14B11065   2.441   3.485  10.939  1.5191  1.6859 -0.9344
  108OSM   H14C11066   2.528   3.334  10.948 -0.9296 -0.1393  1.0116
  108OSM    C1311067   2.690   3.540  10.864  0.0800 -0.7883 -0.4448
  108OSM   H13A11068   2.739   3.487  10.944  0.0725  0.0759  0.1356
  108OSM   H13B11069   2.652   3.630  10.908  0.8058  0.8645 -2.9655
  108OSM   H13C11070   2.767   3.584  10.802 -0.9352  3.3325  0.9302
  108OSM    C1211071   2.525   3.541  10.676 -0.1677  0.2082  0.3940
  108OSM   H12A11072   2.595   3.587  10.608 -1.0735 -1.0096 -1.4593
  108OSM   H12B11073   2.474   3.628  10.715  0.9563  1.9683 -1.8098
  108OSM    C1111074   2.432   3.460  10.587  0.8430 -0.6237 -0.5235
  108OSM   H11A11075   2.484   3.375  10.536  0.5348 -1.8806  1.1713
  108OSM   H11B11076   2.397   3.524  10.503 -2.8405 -1.3464  0.2887
  108OSM      P11077   2.177   3.472  10.662 -0.0724  0.1944 -0.2268
  108OSM    O1311078   2.093   3.379  10.747 -0.2839  0.1814  0.0732
  108OSM    O1411079   2.182   3.614  10.695 -0.1789  0.4776  0.2693
  108OSM    O1111080   2.122   3.455  10.516 -0.5921 -0.1414 -0.9447
  108OSM    O1211081   2.319   3.408  10.658 -0.2703  0.0371 -0.1091
  108OSM    C1S11082   2.010   3.356  10.498  0.2080  0.3612  0.2464
  108OSM    H1S11083   1.921   3.402  10.547  1.0318  2.1840  0.1056
  108OSM    H1T11084   2.035   3.261  10.549 -1.0697 -1.1146 -1.6963
  108OSM     NF11085   1.857   3.259  10.321  0.4059 -0.2417  0.5807
  108OSM    HNF11086   1.862   3.169  10.278  0.0198  0.2072 -0.4256
  108OSM    C2S11087   1.984   3.328  10.347 -0.2181 -0.5680 -1.0344
  108OSM    H2S11088   1.992   3.423  10.289  0.9101 -1.0573 -1.7189
  108OSM    C3S11089   2.107   3.248  10.288 -0.2277 -0.4305  0.0734
  108OSM    H3S11090   2.120   3.150  10.338 -1.1702 -0.0949  1.0367
  108OSM     O311091   2.235   3.299  10.335 -0.2415 -0.3293 -0.1737
  108OSM    HO311092   2.215   3.371  10.395 -1.8133 -0.3888 -0.5730
  108OSM    C4S11093   2.101   3.230  10.136 -0.4978 -0.3268 -0.2347
  108OSM    H4S11094   2.045   3.138  10.113 -3.9128  1.4032  0.5292
  108OSM    C5S11095   2.149   3.306  10.037 -0.3750  0.9415 -0.2061
  108OSM    H5S11096   2.215   3.388  10.066  2.3063 -1.4047  0.7791
  108OSM    C6S11097   2.141   3.280   9.886 -0.4268 -0.0167  0.1354
  108OSM    H6S11098   2.243   3.278   9.841 -0.7062  4.0439 -1.1448
  108OSM    H6T11099   2.091   3.367   9.838  1.5097 -0.5287 -3.1849
  108OSM    C7S11100   2.074   3.148   9.845  0.2820  0.3591  0.1480
  108OSM    H7S11101   1.968   3.160   9.876  0.6953 -1.3686  2.4883
  108OSM    H7T11102   2.120   3.064   9.901  1.1879  0.2857 -0.6739
  108OSM    C8S11103   2.076   3.114   9.695 -0.0219  0.6300  0.5856
  108OSM    H8S11104   2.176   3.125   9.649 -0.1552 -0.0179  0.1257
  108OSM    H8T11105   2.013   3.175   9.627  1.3062 -0.1556 -1.4462
  108OSM    C9S11106   2.014   2.971   9.675 -0.7388  0.0359  0.3385
  108OSM    H9S11107   1.938   2.968   9.756 -0.1842  1.6486  0.9603
  108OSM    H9T11108   2.089   2.890   9.687 -0.3552  0.3551  0.1396
  108OSM   C10S11109   1.942   2.945   9.546  0.0937  0.6378  0.3342
  108OSM   H10S11110   1.845   2.999   9.548 -1.9383 -2.5957 -1.6725
  108OSM   H10T11111   1.910   2.839   9.542 -0.0217  0.6225  1.2763
  108OSM   C11S11112   2.017   2.965   9.412  0.0862  0.2760  0.1335
  108OSM   H11S11113   2.085   2.879   9.397  1.1828  0.7156  2.1991
  108OSM   H11T11114   2.086   3.053   9.414 -1.0599  1.1980  0.8736
  108OSM   C12S11115   1.908   2.995   9.305 -0.1003 -0.2088 -0.0915
  108OSM   H12S11116   1.843   3.083   9.322  0.2336  0.1462 -0.6122
  108OSM   H12T11117   1.849   2.901   9.296 -0.3231  0.0847 -2.0000
  108OSM   C13S11118   1.978   3.021   9.167  0.0355 -0.0820  0.0314
  108OSM   H13S11119   1.899   3.012   9.089 -1.9381 -0.8250  2.0204
  108OSM   H13T11120   2.064   2.951   9.156  1.3585  1.4740  0.0636
  108OSM   C14S11121   2.030   3.163   9.156  0.7696  0.1276 -0.7448
  108OSM   H14S11122   2.079   3.204   9.247 -1.6673  1.0225  0.2488
  108OSM   H14T11123   1.937   3.223   9.141  0.8346  0.9897  1.8946
  108OSM   C15S11124   2.119   3.194   9.038 -0.0019  0.0220 -0.1270
  108OSM   H15S11125   2.212   3.135   9.025 -0.3007 -0.0897 -2.0376
  108OSM   H15T11126   2.148   3.302   9.035  1.5673 -0.3798 -0.5153
  108OSM   C16S11127   2.042   3.179   8.908  0.2001  0.5140  0.0211
  108OSM   H16S11128   1.979   3.268   8.889  0.9507  1.2920  1.0732
  108OSM   H16T11129   1.981   3.087   8.919  1.1521 -0.1179  0.1263
  108OSM   C17S11130   2.146   3.152   8.796  0.2745 -0.0690  0.3525
  108OSM   H17S11131   2.187   3.053   8.824 -0.2051 -0.7211 -1.1504
  108OSM   H17T11132   2.225   3.230   8.801  1.7140 -1.2173 -2.5783
  108OSM   C18S11133   2.075   3.142   8.665 -0.1871 -0.2613 -0.9183
  108OSM   H18S11134   2.146   3.112   8.584 -0.2589 -1.9280 -0.3914
  108OSM   H18T11135   2.025   3.235   8.630  0.5394  0.4784 -0.0378
  108OSM   H18U11136   2.002   3.059   8.671 -0.8188  0.3902  1.1856
  108OSM    C1F11137   1.736   3.297  10.358 -1.1317  0.0142  0.3180
  108OSM     OF11138   1.716   3.411  10.396  0.7172  0.1575  0.2941
  108OSM    C2F11139   1.649   3.173  10.366 -0.5290 -0.0870  0.1997
  108OSM    H2F11140   1.601   3.180  10.466  2.4323  1.0227  1.6847
  108OSM    H2G11141   1.715   3.084  10.359 -2.4270 -1.5053 -0.5272
  108OSM    C3F11142   1.548   3.174  10.253  0.0803 -0.7327  0.6995
  108OSM    H3F11143   1.454   3.221  10.288 -0.5589 -3.1760  2.5497
  108OSM    H3G11144   1.513   3.068  10.256  0.0469 -0.7947 -0.8010
  108OSM    C4F11145   1.596   3.214  10.110  0.0546 -0.0083 -0.2887
  108OSM    H4F11146   1.686   3.157  10.079 -0.0113 -0.9877  1.2357
  108OSM    H4G11147   1.617   3.323  10.105 -1.6855  0.6956  3.8431
  108OSM    C5F11148   1.494   3.165   9.999  0.0059 -0.4117 -0.6922
  108OSM    H5F11149   1.413   3.235  10.029 -0.9983 -2.0917  0.7446
  108OSM    H5G11150   1.456   3.062  10.018 -0.6945  0.0649  0.6281
  108OSM    C6F11151   1.527   3.189   9.855 -0.5026  1.0818 -0.1931
  108OSM    H6F11152   1.633   3.161   9.840 -0.0346  0.7960  2.9435
  108OSM    H6G11153   1.506   3.296   9.831  0.1810  1.8504  2.2609
  108OSM    C7F11154   1.425   3.123   9.767  0.1489  0.2804  0.4251
  108OSM    H7F11155   1.326   3.133   9.815  0.6944  0.6375  1.5119
  108OSM    H7G11156   1.445   3.014   9.761 -2.6130 -0.2569 -0.0702
  108OSM    C8F11157   1.421   3.182   9.618  0.5520 -0.7012  0.8557
  108OSM    H8F11158   1.412   3.293   9.628 -1.2806 -0.7412  0.1000
  108OSM    H8G11159   1.329   3.142   9.571  1.5132 -0.8014 -1.0423
  108OSM    C9F11160   1.534   3.124   9.546 -0.2990 -0.6008 -0.8060
  108OSM    H9F11161   1.632   3.166   9.574 -0.8047 -1.0310  1.9561
  108OSM   C10F11162   1.535   3.032   9.452  0.3314  0.0946  0.4053
  108OSM   H10F11163   1.629   3.011   9.398 -1.2275 -2.1797 -1.6356
  108OSM   C11F11164   1.406   2.976   9.391  0.2839 -0.2103  0.0855
  108OSM   H11F11165   1.329   2.983   9.471  2.4814  2.0251  2.1874
  108OSM   H11G11166   1.416   2.866   9.382  0.4446 -0.1322 -0.7919
  108OSM   C12F11167   1.352   3.047   9.266 -0.2318 -0.1163 -0.1473
  108OSM   H12F11168   1.341   3.152   9.300 -1.8825 -0.0983 -0.6933
  108OSM   H12G11169   1.249   3.012   9.245  0.5494 -3.9010  1.3730
  108OSM   C13F11170   1.434   3.040   9.141 -0.2118  0.0965  0.1173
  108OSM   H13F11171   1.540   3.060   9.170 -0.5871  0.5138  1.2608
  108OSM   H13G11172   1.400   3.116   9.068 -1.2758  0.5971  1.0989
  108OSM   C14F11173   1.418   2.897   9.076  0.5457 -0.4352  0.9196
  108OSM   H14F11174   1.314   2.861   9.086  0.1838  0.9211  2.3481
  108OSM   H14G11175   1.473   2.818   9.132 -0.7627 -0.3329  2.3998
  108OSM   C15F11176   1.461   2.891   8.930 -0.2615  0.2033  0.6110
  108OSM   H15F11177   1.571   2.907   8.932 -0.5110  3.2662 -1.9722
  108OSM   H15G11178   1.413   2.977   8.880 -0.2998  0.4974  1.1504
  108OSM   C16F11179   1.430   2.753   8.866 -0.0046  0.7365 -0.3391
  108OSM   H16F11180   1.322   2.741   8.846  0.3556 -0.2436 -1.8609
  108OSM   H16G11181   1.465   2.662   8.918 -1.7898  0.2496  0.0780
  108OSM   C17F11182   1.480   2.750   8.723  0.3275  0.2578  0.4023
  108OSM   H17F11183   1.591   2.757   8.716  0.1975  0.4532 -2.9624
  108OSM   H17G11184   1.439   2.835   8.665 -0.0275  0.7570  1.3633
  108OSM   C18F11185   1.447   2.618   8.639 -0.1050 -0.4832  0.0739
  108OSM   H18F11186   1.338   2.597   8.637  0.1879 -2.3335 -2.8614
  108OSM   H18G11187   1.489   2.532   8.695  2.7208  0.5716 -0.2527
  108OSM   H18H11188   1.496   2.632   8.540  0.6525  0.0077  0.5068
  109OSM      N11189   1.704   4.296  11.036 -0.1456  0.0514  0.1071
  109OSM    C1511190   1.734   4.164  11.100  0.8675 -0.0751 -0.1772
  109OSM   H15A11191   1.839   4.140  11.094  0.5660 -1.7367  0.4411
  109OSM   H15B11192   1.681   4.079  11.058 -0.9135  0.2493  1.2772
  109OSM   H15C11193   1.721   4.159  11.207 -0.0077 -0.2406 -0.2837
  109OSM    C1411194   1.556   4.317  11.051  0.1527  0.0492 -0.0090
  109OSM   H14A11195   1.524   4.328  11.153  0.0927 -2.0389  0.2458
  109OSM   H14B11196   1.504   4.230  11.012  0.4850 -0.2603  0.2281
  109OSM   H14C11197   1.530   4.407  10.998  2.4457  0.2265 -0.9570
  109OSM    C1311198   1.776   4.392  11.122  1.2355  0.0492 -0.1588
  109OSM   H13A11199   1.789   4.491  11.081  1.3095 -0.8247 -2.4504
  109OSM   H13B11200   1.877   4.353  11.132  0.7594 -1.1998  0.0270
  109OSM   H13C11201   1.724   4.392  11.216  2.0345  0.0611  0.2859
  109OSM    C1211202   1.746   4.290  10.889  0.2731 -0.5445 -0.2635
  109OSM   H12A11203   1.854   4.281  10.880  0.4920  0.8553  0.6081
  109OSM   H12B11204   1.712   4.380  10.840 -0.8873  0.9418  3.0170
  109OSM    C1111205   1.694   4.174  10.806 -0.1987  0.0617 -0.1075
  109OSM   H11A11206   1.695   4.197  10.697  1.9187 -0.1382 -0.1652
  109OSM   H11B11207   1.586   4.161  10.831 -0.5568 -0.3691 -1.7627
  109OSM      P11208   1.901   4.017  10.778 -0.2657  0.2149  0.2242
  109OSM    O1311209   1.974   4.135  10.742  0.2294 -0.1819 -0.0149
  109OSM    O1411210   1.969   3.918  10.862  0.4545  0.0432  0.0518
  109OSM    O1111211   1.869   3.942  10.649 -0.1773 -0.3119 -0.2837
  109OSM    O1211212   1.758   4.053  10.835  0.3810  0.1845  0.0584
  109OSM    C1S11213   1.783   3.834  10.646  0.1073  0.5123  0.5488
  109OSM    H1S11214   1.689   3.853  10.702 -0.2058 -1.0316  0.5881
  109OSM    H1T11215   1.822   3.744  10.699 -0.5355  1.0455  1.9785
  109OSM     NF11216   1.648   3.708  10.482  0.5996  0.1378 -0.1168
  109OSM    HNF11217   1.668   3.612  10.463 -1.2621 -0.9590  2.7594
  109OSM    C2S11218   1.758   3.799  10.498  0.2120  0.0043 -0.4701
  109OSM    H2S11219   1.725   3.899  10.461  1.6264  0.7843  0.2810
  109OSM    C3S11220   1.879   3.755  10.424 -0.4530 -0.5530  0.7567
  109OSM    H3S11221   1.939   3.680  10.481  1.3877  2.3361  2.9083
  109OSM     O311222   1.985   3.854  10.422 -0.7176  0.4778  0.2632
  109OSM    HO311223   1.952   3.910  10.492 -0.3999  2.0705 -0.7908
  109OSM    C4S11224   1.848   3.705  10.285  0.1618 -0.3941  0.3451
  109OSM    H4S11225   1.866   3.597  10.272 -1.2777 -0.7134  0.7682
  109OSM    C5S11226   1.815   3.779  10.178 -0.1936  0.0052  0.2448
  109OSM    H5S11227   1.821   3.889  10.178  1.5314 -0.0574  0.0572
  109OSM    C6S11228   1.776   3.730  10.039 -0.4227 -0.8127  0.7862
  109OSM    H6S11229   1.835   3.780   9.959 -0.9391 -0.7686  0.4268
  109OSM    H6T11230   1.671   3.761  10.020  0.0609  0.7498  0.5092
  109OSM    C7S11231   1.777   3.581  10.008 -0.3400  0.4756 -0.2217
  109OSM    H7S11232   1.722   3.531  10.091 -1.9789  0.4257 -1.3017
  109OSM    H7T11233   1.879   3.537  10.005 -0.1343  0.9824 -0.7600
  109OSM    C8S11234   1.718   3.541   9.883  0.4100  0.8794 -0.3258
  109OSM    H8S11235   1.622   3.596   9.869  0.5197  1.0806 -0.2940
  109OSM    H8T11236   1.711   3.430   9.885  1.1103  0.8325  0.4268
  109OSM    C9S11237   1.816   3.583   9.770  0.5614  0.4530  0.1695
  109OSM    H9S11238   1.899   3.508   9.776 -0.4725 -0.6246  3.2172
  109OSM    H9T11239   1.868   3.675   9.803 -1.8744  1.6476  0.9380
  109OSM   C10S11240   1.749   3.612   9.634 -0.1064 -0.2724  0.2831
  109OSM   H10S11241   1.799   3.685   9.566 -0.8606  0.4113  0.4465
  109OSM   H10T11242   1.659   3.670   9.664  0.1114  0.2528 -0.0502
  109OSM   C11S11243   1.726   3.486   9.547  0.4808 -0.2769  0.7469
  109OSM   H11S11244   1.655   3.409   9.582 -0.7012 -0.0990 -1.1642
  109OSM   H11T11245   1.827   3.441   9.539  1.0658  0.9393  0.9589
  109OSM   C12S11246   1.681   3.531   9.408  0.0341  0.1698  0.3975
  109OSM   H12S11247   1.747   3.614   9.377  2.6164 -1.1867  1.9661
  109OSM   H12T11248   1.580   3.577   9.412 -0.2823 -0.3769 -0.8873
  109OSM   C13S11249   1.684   3.422   9.299  0.3448  0.3711  0.1564
  109OSM   H13S11250   1.598   3.363   9.336 -0.8164  2.5021  1.0234
  109OSM   H13T11251   1.778   3.363   9.302 -0.1041 -0.3661 -0.0130
  109OSM   C14S11252   1.636   3.471   9.160 -0.8650 -1.5080 -0.0860
  109OSM   H14S11253   1.705   3.545   9.113 -3.0172  1.0244  0.5250
  109OSM   H14T11254   1.550   3.537   9.183  1.4619  1.2116  1.5903
  109OSM   C15S11255   1.618   3.352   9.076 -0.4848  0.4206 -0.1216
  109OSM   H15S11256   1.530   3.294   9.111  0.7613 -2.4846 -1.3967
  109OSM   H15T11257   1.697   3.277   9.100 -0.5471 -0.9926 -3.6595
  109OSM   C16S11258   1.622   3.377   8.925  0.1757 -0.6055 -0.0393
  109OSM   H16S11259   1.726   3.408   8.900  1.0116 -2.3581  1.0753
  109OSM   H16T11260   1.550   3.458   8.903  0.2825  0.1673  2.2079
  109OSM   C17S11261   1.564   3.249   8.852  0.2417  0.1904  0.3184
  109OSM   H17S11262   1.480   3.232   8.922  0.3658 -0.9406  0.2022
  109OSM   H17T11263   1.645   3.175   8.865  0.1224 -0.1030 -0.5070
  109OSM   C18S11264   1.515   3.256   8.706 -0.5036  0.3613  0.0869
  109OSM   H18S11265   1.414   3.301   8.718  0.4251  1.8883  2.9573
  109OSM   H18T11266   1.502   3.159   8.653 -0.8801  0.4105  0.0889
  109OSM   H18U11267   1.595   3.315   8.655  2.2246 -0.7290  2.8041
  109OSM    C1F11268   1.518   3.737  10.505 -0.0953 -0.1203 -0.2548
  109OSM     OF11269   1.476   3.849  10.516  0.1578  0.1922 -0.2131
  109OSM    C2F11270   1.436   3.612  10.522 -0.3708 -0.3367  0.0615
  109OSM    H2F11271   1.415   3.585  10.628  1.9189  0.2808  0.7444
  109OSM    H2G11272   1.494   3.524  10.487 -0.1762 -1.8472  3.6813
  109OSM    C3F11273   1.301   3.620  10.443  0.1605  0.1478 -0.2942
  109OSM    H3F11274   1.237   3.705  10.476  0.8327 -0.0369  1.5975
  109OSM    H3G11275   1.244   3.526  10.459 -2.2665  1.6631  0.6625
  109OSM    C4F11276   1.321   3.645  10.287 -0.6044  0.0134  0.3677
  109OSM    H4F11277   1.376   3.739  10.269  1.7860 -1.7216 -2.3650
  109OSM    H4G11278   1.217   3.647  10.248 -2.0441 -2.5100  3.5895
  109OSM    C5F11279   1.406   3.533  10.219  0.3924  0.2918 -0.2087
  109OSM    H5F11280   1.365   3.434  10.250  2.1486 -0.1001  1.0217
  109OSM    H5G11281   1.512   3.534  10.252  0.3110  1.1422  0.0314
  109OSM    C6F11282   1.414   3.548  10.066  0.4397 -0.1262 -0.2388
  109OSM    H6F11283   1.469   3.464  10.018  0.6086  0.5192 -1.1978
  109OSM    H6G11284   1.464   3.646  10.052 -0.1150  0.0568 -0.9977
  109OSM    C7F11285   1.281   3.578   9.999 -0.3138  0.2948  0.0269
  109OSM    H7F11286   1.232   3.669  10.040  0.8001  1.7849 -1.7743
  109OSM    H7G11287   1.217   3.491  10.025  0.6969 -0.1772  0.9938
  109OSM    C8F11288   1.291   3.604   9.849 -0.5200  1.1180 -0.7870
  109OSM    H8F11289   1.347   3.520   9.802 -0.3970 -0.9209  2.6960
  109OSM    H8G11290   1.350   3.698   9.841  0.1172  0.7788 -0.1966
  109OSM    C9F11291   1.163   3.641   9.788 -0.0925  0.0384  0.6394
  109OSM    H9F11292   1.130   3.745   9.803  1.2642  0.6425 -0.3090
  109OSM   C10F11293   1.086   3.561   9.717  0.1925  0.1698  0.4944
  109OSM   H10F11294   0.989   3.604   9.691  0.4952  0.7341  0.2969
  109OSM   C11F11295   1.104   3.416   9.677  0.5430 -0.6938  0.4572
  109OSM   H11F11296   1.032   3.349   9.730 -2.4938  0.5047 -1.8375
  109OSM   H11G11297   1.207   3.386   9.705  2.0261  2.0258 -1.6043
  109OSM   C12F11298   1.078   3.395   9.525  0.2857 -0.1556 -0.9852
  109OSM   H12F11299   0.983   3.452   9.515 -0.5868 -1.4384 -0.2324
  109OSM   H12G11300   1.063   3.285   9.513 -1.7515  0.1130 -1.1838
  109OSM   C13F11301   1.173   3.453   9.419 -0.1291  0.3665  0.4956
  109OSM   H13F11302   1.275   3.410   9.413  0.6436  1.9421  1.5622
  109OSM   H13G11303   1.195   3.560   9.439  0.6951  0.9254 -2.7650
  109OSM   C14F11304   1.107   3.453   9.279 -0.2647  0.3430 -0.0186
  109OSM   H14F11305   1.015   3.515   9.285  0.9711  2.0898  2.2098
  109OSM   H14G11306   1.083   3.346   9.258  1.7452  0.0118 -0.8657
  109OSM   C15F11307   1.197   3.521   9.171 -0.7967  0.8419  0.1764
  109OSM   H15F11308   1.299   3.479   9.180 -0.5628  1.2864 -0.3317
  109OSM   H15G11309   1.191   3.632   9.183 -0.6737  1.1299 -2.1288
  109OSM   C16F11310   1.146   3.491   9.030 -0.7654  0.0288  0.5367
  109OSM   H16F11311   1.047   3.540   9.017 -1.0282 -0.8929 -1.3291
  109OSM   H16G11312   1.133   3.381   9.020 -2.0111  0.1393  0.7727
  109OSM   C17F11313   1.235   3.549   8.925 -0.6682 -0.1296  0.7490
  109OSM   H17F11314   1.330   3.493   8.942 -0.7086 -0.5050 -0.1934
  109OSM   H17G11315   1.241   3.659   8.929 -0.8698  0.0434 -1.8245
  109OSM   C18F11316   1.187   3.506   8.779 -0.4056  0.0661  0.3650
  109OSM   H18F11317   1.087   3.550   8.758  0.2764  0.3981 -2.6102
  109OSM   H18G11318   1.182   3.395   8.779 -1.2303  0.0864 -0.9391
  109OSM   H18H11319   1.259   3.554   8.709 -1.9210  0.8236 -0.7320
  110OSM      N11320   2.047   6.460  10.965  0.1555  0.1383 -0.4788
  110OSM    C1511321   1.935   6.525  11.049 -0.1101  0.2982  1.0456
  110OSM   H15A11322   1.837   6.486  11.028  1.1808 -2.1721 -1.0989
  110OSM   H15B11323   1.944   6.632  11.037  1.5329  0.0523 -0.4867
  110OSM   H15C11324   1.952   6.511  11.154  0.4661 -0.0668  0.9111
  110OSM    C1411325   2.177   6.489  11.028 -0.1944  0.2257 -0.3780
  110OSM   H14A11326   2.184   6.593  11.057 -0.9115  0.4347 -0.9167
  110OSM   H14B11327   2.268   6.465  10.974 -0.6182  0.7154 -1.3327
  110OSM   H14C11328   2.197   6.445  11.124  1.4825 -0.0909 -0.8294
  110OSM    C1311329   2.033   6.310  10.950  0.3216 -0.2222 -0.4367
  110OSM   H13A11330   2.032   6.261  11.046 -1.8100  0.1786 -0.2076
  110OSM   H13B11331   2.106   6.264  10.885  0.9922 -2.6231  1.8200
  110OSM   H13C11332   1.943   6.296  10.892  1.0690  0.0808 -1.7198
  110OSM    C1211333   2.052   6.510  10.822  0.1278 -0.2438 -1.0152
  110OSM   H12A11334   2.132   6.460  10.770  0.2280  0.4330 -1.5195
  110OSM   H12B11335   2.098   6.606  10.836  0.4632 -0.6010  0.5273
  110OSM    C1111336   1.916   6.515  10.748 -0.0636 -0.8469 -0.5173
  110OSM   H11A11337   1.943   6.572  10.656 -2.1288 -1.8538 -1.8266
  110OSM   H11B11338   1.841   6.567  10.811  0.9501  0.5382 -0.3971
  110OSM      P11339   1.733   6.370  10.643  0.0909 -0.0135 -0.5329
  110OSM    O1311340   1.710   6.221  10.626 -0.1888 -0.3364 -0.2450
  110OSM    O1411341   1.628   6.449  10.711  0.2898  0.3420 -1.1519
  110OSM    O1111342   1.757   6.434  10.503 -0.2834  0.0268  0.6489
  110OSM    O1211343   1.875   6.387  10.720  0.5423  0.0711  0.7386
  110OSM    C1S11344   1.841   6.372  10.405  0.1082 -0.5415  0.3572
  110OSM    H1S11345   1.807   6.268  10.390  1.8097 -1.0459 -0.2064
  110OSM    H1T11346   1.944   6.351  10.439  0.4322  1.8125  0.9883
  110OSM     NF11347   1.915   6.363  10.175  0.2456 -0.0282 -0.5124
  110OSM    HNF11348   2.006   6.392  10.146  0.7994 -1.9618 -0.8537
  110OSM    C2S11349   1.847   6.447  10.274  0.6429 -0.3085  0.4553
  110OSM    H2S11350   1.743   6.463  10.238  1.0058  1.4991  0.1023
  110OSM    C3S11351   1.897   6.591  10.291  0.1617  0.2644 -0.5464
  110OSM    H3S11352   1.999   6.591  10.337 -0.0612  1.1623 -0.0071
  110OSM     O311353   1.818   6.665  10.393  0.5309  0.1572  0.7275
  110OSM    HO311354   1.769   6.593  10.434 -0.0569  0.2167  0.1430
  110OSM    C4S11355   1.897   6.666  10.163 -0.4719  0.8156  0.0398
  110OSM    H4S11356   1.800   6.702  10.125 -0.8071  0.7282  0.7833
  110OSM    C5S11357   2.006   6.692  10.092  0.2640  0.6199  0.1421
  110OSM    H5S11358   2.109   6.663  10.119  0.1704  1.7432  1.8470
  110OSM    C6S11359   2.006   6.773   9.967 -0.0403  0.2496  0.1137
  110OSM    H6S11360   2.075   6.859   9.982  0.4742  0.1388 -1.4679
  110OSM    H6T11361   1.907   6.821   9.945 -0.4286 -0.2712  0.7020
  110OSM    C7S11362   2.058   6.708   9.842 -0.2637  0.7278  0.0172
  110OSM    H7S11363   1.983   6.632   9.810 -1.4890  1.3700  1.2195
  110OSM    H7T11364   2.158   6.662   9.850  0.0648  1.3947 -0.1786
  110OSM    C8S11365   2.079   6.805   9.723 -0.3807  0.1100 -0.4321
  110OSM    H8S11366   2.173   6.863   9.736 -1.8264  2.4062  0.5715
  110OSM    H8T11367   1.989   6.871   9.723 -0.7295 -0.3349 -2.0173
  110OSM    C9S11368   2.083   6.744   9.585  0.0162 -0.2007 -0.1773
  110OSM    H9S11369   1.983   6.706   9.552 -0.1338  0.1091 -0.0873
  110OSM    H9T11370   2.144   6.651   9.585 -0.2882 -0.5501  3.6233
  110OSM   C10S11371   2.139   6.823   9.468  0.2870  0.2691 -0.6020
  110OSM   H10S11372   2.240   6.859   9.497  0.1161  0.3452 -0.0789
  110OSM   H10T11373   2.070   6.906   9.444  1.3249  1.4568  0.3274
  110OSM   C11S11374   2.148   6.729   9.350  0.2615 -0.6959  0.1301
  110OSM   H11S11375   2.046   6.685   9.341 -0.1267  0.3029 -0.5683
  110OSM   H11T11376   2.213   6.639   9.354  0.3680 -0.6984 -1.1144
  110OSM   C12S11377   2.184   6.814   9.221  0.2126  0.9264 -0.5025
  110OSM   H12S11378   2.282   6.866   9.235  1.0822 -0.4830 -1.0849
  110OSM   H12T11379   2.103   6.888   9.206  0.4405  1.0321 -1.2560
  110OSM   C13S11380   2.202   6.733   9.089  0.2608  0.2830  1.2746
  110OSM   H13S11381   2.099   6.701   9.061  0.8006 -1.8762  1.5720
  110OSM   H13T11382   2.265   6.642   9.095 -0.1326  0.0419  1.7820
  110OSM   C14S11383   2.256   6.823   8.970  0.4285  0.5468 -0.6247
  110OSM   H14S11384   2.190   6.911   8.974 -0.2157  0.0284  1.2036
  110OSM   H14T11385   2.241   6.779   8.869  0.8463  2.2216 -1.4410
  110OSM   C15S11386   2.399   6.847   8.993  0.0677  0.2636  0.5875
  110OSM   H15S11387   2.455   6.766   8.941  2.1372  2.1875 -0.3360
  110OSM   H15T11388   2.420   6.843   9.102  1.1488 -0.4602  0.3668
  110OSM   C16S11389   2.457   6.974   8.932  0.3538 -0.6158  0.4080
  110OSM   H16S11390   2.431   6.981   8.824 -0.1128 -0.2767  0.5365
  110OSM   H16T11391   2.566   6.953   8.939  1.1014  1.4620 -2.8152
  110OSM   C17S11392   2.420   7.097   9.015 -0.3166 -0.2532  0.2946
  110OSM   H17S11393   2.439   7.069   9.121  0.2073 -1.8090 -0.1813
  110OSM   H17T11394   2.309   7.104   9.013 -0.4865 -0.9376  3.0093
  110OSM   C18S11395   2.505   7.220   9.000  0.2391 -1.0692  0.7007
  110OSM   H18S11396   2.613   7.194   9.003  0.5225 -0.0199  0.1944
  110OSM   H18T11397   2.476   7.308   9.061  1.5829  1.1601 -1.6394
  110OSM   H18U11398   2.486   7.255   8.896  0.0982  1.7784  1.5976
  110OSM    C1F11399   1.873   6.242  10.125  0.0603 -0.1448  0.0401
  110OSM     OF11400   1.766   6.191  10.166  0.7873 -0.0669 -0.1882
  110OSM    C2F11401   1.948   6.183  10.006  0.6367  0.2071  0.5441
  110OSM    H2F11402   2.012   6.099  10.039  0.8563  0.3815  0.5671
  110OSM    H2G11403   2.009   6.266   9.963  1.8555 -1.5350 -1.2653
  110OSM    C3F11404   1.854   6.124   9.900  0.0575 -0.7366 -0.1308
  110OSM    H3F11405   1.783   6.051   9.944 -1.1797 -0.1141 -0.9935
  110OSM    H3G11406   1.916   6.059   9.835 -0.7972 -2.7634  1.0112
  110OSM    C4F11407   1.778   6.231   9.827 -0.2548 -0.1259 -1.0292
  110OSM    H4F11408   1.728   6.308   9.889 -3.8821 -1.8314 -1.5631
  110OSM    H4G11409   1.684   6.182   9.795 -0.1079 -0.8827 -0.3371
  110OSM    C5F11410   1.863   6.297   9.720  1.0854  0.3316  0.2943
  110OSM    H5F11411   1.921   6.219   9.666  1.0628 -1.2896  2.4394
  110OSM    H5G11412   1.932   6.369   9.769 -0.4200  1.3334  1.0212
  110OSM    C6F11413   1.784   6.380   9.617 -0.3864  0.4948  0.2268
  110OSM    H6F11414   1.859   6.440   9.560 -0.7143 -0.0494 -0.8062
  110OSM    H6G11415   1.723   6.456   9.669 -1.2450  1.0374 -1.5189
  110OSM    C7F11416   1.695   6.289   9.531  0.0829 -0.2776  0.3333
  110OSM    H7F11417   1.604   6.341   9.492  0.9142  0.5671 -0.5243
  110OSM    H7G11418   1.658   6.199   9.585  1.4438 -1.0192  0.0716
  110OSM    C8F11419   1.749   6.223   9.396 -0.5051  0.3368  0.5510
  110OSM    H8F11420   1.660   6.161   9.369 -1.2296  0.9173  1.5333
  110OSM    H8G11421   1.830   6.153   9.424  0.7341  2.2318  1.9315
  110OSM    C9F11422   1.799   6.318   9.292 -1.3562  0.6657 -1.0060
  110OSM    H9F11423   1.907   6.336   9.281 -1.2627  0.1413 -0.9530
  110OSM   C10F11424   1.725   6.396   9.211 -0.8704 -0.7602 -0.2880
  110OSM   H10F11425   1.779   6.473   9.154  0.5451 -1.4714  0.0482
  110OSM   C11F11426   1.575   6.382   9.211 -0.3902 -0.1295 -0.4247
  110OSM   H11F11427   1.536   6.486   9.209  2.6131  1.1783  1.8611
  110OSM   H11G11428   1.530   6.324   9.294 -3.1315  0.1954 -1.5812
  110OSM   C12F11429   1.535   6.299   9.086 -0.5156  0.0646 -0.4183
  110OSM   H12F11430   1.564   6.353   8.993  2.6034  1.3846  1.1912
  110OSM   H12G11431   1.424   6.297   9.092 -0.4412  0.3329  2.1499
  110OSM   C13F11432   1.573   6.150   9.079 -0.2972  0.3357 -0.4272
  110OSM   H13F11433   1.537   6.109   9.176 -2.8524 -0.6630 -1.6827
  110OSM   H13G11434   1.682   6.145   9.062 -0.4242  0.6561 -1.4120
  110OSM   C14F11435   1.511   6.058   8.972  0.2157 -0.7812 -0.6504
  110OSM   H14F11436   1.576   5.968   8.961  0.7013 -0.6576  0.9355
  110OSM   H14G11437   1.504   6.104   8.872 -3.0217 -1.5900 -0.9156
  110OSM   C15F11438   1.371   6.001   9.005 -0.2825  0.3947  0.2364
  110OSM   H15F11439   1.302   6.084   9.031 -0.0959  0.8149 -0.5686
  110OSM   H15G11440   1.394   5.932   9.090  0.0001  1.6053  1.1664
  110OSM   C16F11441   1.317   5.920   8.882 -0.4874 -0.4169  0.2709
  110OSM   H16F11442   1.387   5.836   8.861 -0.9350 -0.8211  0.3708
  110OSM   H16G11443   1.327   5.987   8.794  2.3818  0.0868  0.8713
  110OSM   C17F11444   1.169   5.879   8.899  0.2931  0.1249  0.1728
  110OSM   H17F11445   1.146   5.825   8.993 -3.7230  0.5541 -0.4092
  110OSM   H17G11446   1.138   5.828   8.806 -2.2825  2.6799 -0.5102
  110OSM   C18F11447   1.086   6.009   8.903 -0.0539  1.2820  0.3416
  110OSM   H18F11448   1.112   6.069   8.814 -2.6571  1.0344 -0.6721
  110OSM   H18G11449   1.090   6.069   8.997 -2.3408  2.2173 -0.0931
  110OSM   H18H11450   0.978   5.982   8.914 -0.5077  1.9651 -2.0181
  111OSM      N11451   6.174   1.689  10.516 -0.6366  0.0958  0.0060
  111OSM    C1511452   6.287   1.786  10.535 -0.2102  0.7087 -0.4461
  111OSM   H15A11453   6.320   1.835  10.444 -0.2189  1.9117  0.1850
  111OSM   H15B11454   6.372   1.734  10.578 -0.8070 -0.1261 -0.2530
  111OSM   H15C11455   6.259   1.866  10.601 -0.6302 -1.7813  2.6329
  111OSM    C1411456   6.051   1.766  10.493  0.0769 -0.1821 -0.0212
  111OSM   H14A11457   5.968   1.697  10.500  0.7345 -1.0560 -0.5752
  111OSM   H14B11458   6.057   1.793  10.389 -0.3910 -4.5801 -1.4259
  111OSM   H14C11459   6.030   1.836  10.572  0.3384 -1.3626  1.1456
  111OSM    C1311460   6.210   1.595  10.402 -0.1327  0.2211  0.4752
  111OSM   H13A11461   6.124   1.557  10.350  0.1526 -0.2969  0.3712
  111OSM   H13B11462   6.267   1.508  10.430 -0.9513 -0.3711  0.3190
  111OSM   H13C11463   6.269   1.644  10.326  0.6145 -1.5363 -0.1422
  111OSM    C1211464   6.173   1.604  10.640  0.1092 -0.2969 -0.4651
  111OSM   H12A11465   6.135   1.665  10.721 -1.2433 -0.9801 -0.5577
  111OSM   H12B11466   6.272   1.564  10.655  0.1355 -0.3521 -0.7935
  111OSM    C1111467   6.070   1.480  10.643 -1.5761 -0.4554 -0.1142
  111OSM   H11A11468   6.093   1.406  10.723  2.1932 -1.0679 -1.5906
  111OSM   H11B11469   6.091   1.424  10.550 -1.4860 -1.1131  0.2931
  111OSM      P11470   5.866   1.525  10.786 -0.0857  0.4539 -0.1382
  111OSM    O1311471   5.872   1.390  10.847 -0.1464  0.3414  0.9775
  111OSM    O1411472   5.925   1.633  10.858 -0.0040 -0.2711 -0.0957
  111OSM    O1111473   5.710   1.557  10.752 -0.2188  0.2668 -0.2956
  111OSM    O1211474   5.934   1.529  10.640 -0.4366 -0.0298 -0.2778
  111OSM    C1S11475   5.649   1.603  10.631 -0.6858  0.2344  0.3316
  111OSM    H1S11476   5.729   1.613  10.555 -1.7500  0.6359 -0.7691
  111OSM    H1T11477   5.611   1.705  10.654 -0.6556  0.2845  0.1555
  111OSM     NF11478   5.491   1.547  10.449  0.2824 -0.8730 -0.2367
  111OSM    HNF11479   5.417   1.613  10.460 -0.0166 -0.8491 -2.0794
  111OSM    C2S11480   5.538   1.500  10.578 -0.2336 -0.4442  0.4676
  111OSM    H2S11481   5.585   1.403  10.552 -2.1708 -0.8917 -1.7613
  111OSM    C3S11482   5.426   1.477  10.687  0.2801  0.2369  0.1233
  111OSM    H3S11483   5.382   1.579  10.695  1.5681  0.9631 -1.2972
  111OSM     O311484   5.462   1.421  10.807 -0.5355 -0.1393 -0.0310
  111OSM    HO311485   5.558   1.411  10.809 -0.5562 -0.5143  1.9587
  111OSM    C4S11486   5.331   1.390  10.622  0.1025 -0.3606  0.4778
  111OSM    H4S11487   5.382   1.302  10.578 -0.4752 -0.0904 -0.7868
  111OSM    C5S11488   5.192   1.403  10.620 -0.2837 -0.0510  0.3801
  111OSM    H5S11489   5.149   1.479  10.687  2.7565  1.6589  0.6077
  111OSM    C6S11490   5.103   1.301  10.554 -0.0269 -0.5272 -0.0731
  111OSM    H6S11491   5.007   1.316  10.608  1.0527 -0.3707  1.9121
  111OSM    H6T11492   5.129   1.195  10.573 -1.1558 -0.6494  0.9327
  111OSM    C7S11493   5.068   1.320  10.407 -0.1173  0.5197  0.5818
  111OSM    H7S11494   5.162   1.305  10.349 -1.0753 -0.2257 -0.8294
  111OSM    H7T11495   5.034   1.423  10.383 -3.0158 -0.7245 -1.2435
  111OSM    C8S11496   4.979   1.203  10.376  0.3586  0.6658  0.2014
  111OSM    H8S11497   4.889   1.195  10.440 -0.0404  0.5129 -0.3670
  111OSM    H8T11498   5.045   1.115  10.391  1.4968  1.2464 -1.1446
  111OSM    C9S11499   4.929   1.209  10.229  0.0693 -0.9821 -0.3921
  111OSM    H9S11500   5.006   1.188  10.151  1.2197  3.3447 -0.6779
  111OSM    H9T11501   4.891   1.311  10.206  0.4936 -0.9304 -0.8950
  111OSM   C10S11502   4.810   1.119  10.197  0.1838  0.2257 -0.7107
  111OSM   H10S11503   4.737   1.148  10.275  0.6462  0.6429 -0.4291
  111OSM   H10T11504   4.831   1.011  10.212 -0.5528  0.2371  0.4916
  111OSM   C11S11505   4.752   1.154  10.058 -0.4621  0.9140  0.9009
  111OSM   H11S11506   4.741   1.264  10.044 -3.1172  0.5003 -1.0473
  111OSM   H11T11507   4.652   1.110  10.043 -0.5195  1.4220 -0.2950
  111OSM   C12S11508   4.831   1.103   9.923 -0.1383 -0.0706  0.1960
  111OSM   H12S11509   4.837   0.992   9.930 -0.8226 -0.1441 -0.3159
  111OSM   H12T11510   4.930   1.151   9.923 -0.4917  0.6672 -0.2274
  111OSM   C13S11511   4.745   1.142   9.799 -0.7853 -0.2552 -0.6660
  111OSM   H13S11512   4.727   1.252   9.801  3.5494  0.6347 -0.2233
  111OSM   H13T11513   4.648   1.089   9.812  0.2149 -2.1244 -0.4847
  111OSM   C14S11514   4.799   1.102   9.660 -0.3512  0.4329 -0.2925
  111OSM   H14S11515   4.813   0.992   9.654 -1.6261  0.2177  0.3290
  111OSM   H14T11516   4.901   1.145   9.656  0.9856 -2.1694  1.9097
  111OSM   C15S11517   4.721   1.139   9.537  0.0219 -0.2456  0.3410
  111OSM   H15S11518   4.700   1.248   9.546 -0.5139 -0.3659  0.5901
  111OSM   H15T11519   4.625   1.083   9.531 -0.7153  1.0783 -0.7189
  111OSM   C16S11520   4.799   1.112   9.408 -0.0177  0.1443 -0.2496
  111OSM   H16S11521   4.845   1.011   9.402  0.6509  0.3736  0.7180
  111OSM   H16T11522   4.884   1.184   9.403  0.0966 -0.0238 -0.7407
  111OSM   C17S11523   4.720   1.141   9.279 -0.2399  0.1411  0.0336
  111OSM   H17S11524   4.686   1.246   9.264 -0.9707 -0.2722 -1.4062
  111OSM   H17T11525   4.624   1.085   9.270 -0.8506  0.6967  2.3388
  111OSM   C18S11526   4.816   1.112   9.157  0.0802  0.3781  0.9626
  111OSM   H18S11527   4.770   1.125   9.057  2.3137 -2.0952 -0.5320
  111OSM   H18T11528   4.868   1.014   9.162  0.8518  0.7597  0.6951
  111OSM   H18U11529   4.891   1.194   9.161 -0.9525  1.3375  0.9452
  111OSM    C1F11530   5.552   1.540  10.333 -0.5228  0.2120 -1.1862
  111OSM     OF11531   5.668   1.511  10.330  0.3358 -0.6813  0.6055
  111OSM    C2F11532   5.477   1.587  10.211  0.5153  0.6704  0.2436
  111OSM    H2F11533   5.472   1.698  10.213  3.1657  0.8514  0.3371
  111OSM    H2G11534   5.371   1.555  10.215  0.1575  1.9515  1.4479
  111OSM    C3F11535   5.543   1.539  10.074 -0.1956  0.3150  0.3666
  111OSM    H3F11536   5.555   1.428  10.077 -1.7257  0.1261  0.0727
  111OSM    H3G11537   5.647   1.580  10.072  0.5238 -1.3463  1.2362
  111OSM    C4F11538   5.476   1.568   9.943 -0.1424 -0.3298 -0.1013
  111OSM    H4F11539   5.558   1.601   9.875 -1.7732  0.3492 -1.8368
  111OSM    H4G11540   5.394   1.642   9.951 -0.6235 -0.7188 -1.2053
  111OSM    C5F11541   5.404   1.445   9.879 -0.9176  0.3547  0.6850
  111OSM    H5F11542   5.319   1.412   9.943 -1.2089  0.1162  0.1772
  111OSM    H5G11543   5.483   1.368   9.872 -1.0879 -0.1389  3.1995
  111OSM    C6F11544   5.347   1.477   9.735  0.0373  0.4276 -0.7470
  111OSM    H6F11545   5.281   1.564   9.754 -1.5755 -0.9143  0.0406
  111OSM    H6G11546   5.297   1.385   9.696  0.3922  0.2603 -0.8176
  111OSM    C7F11547   5.453   1.531   9.640 -0.0698  0.7429  0.2797
  111OSM    H7F11548   5.543   1.465   9.630  0.2307  1.0785  0.7160
  111OSM    H7G11549   5.496   1.623   9.685  0.6838  0.2817  0.5358
  111OSM    C8F11550   5.401   1.560   9.500 -0.1074  0.4517 -0.2564
  111OSM    H8F11551   5.470   1.627   9.445  1.1536 -0.3560  0.2942
  111OSM    H8G11552   5.318   1.631   9.523  0.0536  0.5020  0.1833
  111OSM    C9F11553   5.351   1.437   9.420  0.1992  0.1633  0.5602
  111OSM    H9F11554   5.329   1.345   9.476  0.8412 -1.5448 -1.8563
  111OSM   C10F11555   5.339   1.435   9.289 -0.1941 -0.4452  0.7325
  111OSM   H10F11556   5.295   1.344   9.246 -2.8937 -0.1336  2.6343
  111OSM   C11F11557   5.373   1.550   9.189 -0.5346 -0.1486 -0.0701
  111OSM   H11F11558   5.376   1.643   9.250 -0.6134 -1.3070  1.7762
  111OSM   H11G11559   5.286   1.573   9.124 -1.9144 -2.5403  0.7807
  111OSM   C12F11560   5.499   1.541   9.110 -0.0558 -0.1195  0.7064
  111OSM   H12F11561   5.594   1.534   9.167  0.0349  0.2961  0.6088
  111OSM   H12G11562   5.515   1.636   9.054 -1.4477 -0.7203 -0.7917
  111OSM   C13F11563   5.484   1.433   9.002 -0.0044 -0.3326  0.0689
  111OSM   H13F11564   5.379   1.429   8.966 -0.2550 -1.0828  0.8394
  111OSM   H13G11565   5.502   1.337   9.056 -1.5457 -0.9677 -0.4782
  111OSM   C14F11566   5.571   1.462   8.882  0.2519  0.3899  0.0067
  111OSM   H14F11567   5.571   1.571   8.859 -0.5428 -0.2400 -3.7193
  111OSM   H14G11568   5.534   1.397   8.799 -3.2868  0.9372  0.9997
  111OSM   C15F11569   5.720   1.425   8.911  0.4955  0.0276 -0.4639
  111OSM   H15F11570   5.715   1.314   8.922  0.4687  0.1983  1.6184
  111OSM   H15G11571   5.761   1.472   9.003  0.5207 -0.9847  0.0548
  111OSM   C16F11572   5.817   1.468   8.796  0.2464 -0.0773 -0.6893
  111OSM   H16F11573   5.798   1.572   8.761 -1.2469  0.5190  1.6529
  111OSM   H16G11574   5.802   1.401   8.709  1.8668 -0.1325 -0.9501
  111OSM   C17F11575   5.959   1.469   8.834 -0.6791  0.3515 -0.2504
  111OSM   H17F11576   5.974   1.397   8.918 -0.8952  1.8241  1.1078
  111OSM   H17G11577   5.992   1.568   8.872 -0.8647 -0.1653  1.3275
  111OSM   C18F11578   6.051   1.429   8.719 -0.0712  0.3265 -0.1836
  111OSM   H18F11579   6.025   1.330   8.674  0.5479 -0.0728  0.3117
  111OSM   H18G11580   6.154   1.419   8.759  1.3171  0.8070 -3.3400
  111OSM   H18H11581   6.051   1.507   8.641 -1.4216  2.5649  1.9112
  112OSM      N11582   5.192   6.254  11.166  0.9718 -0.4467  0.2632
  112OSM    C1511583   5.268   6.212  11.286 -0.1578 -0.1174 -0.0801
  112OSM   H15A11584   5.203   6.170  11.362 -0.0337  1.6248  1.0569
  112OSM   H15B11585   5.326   6.287  11.337 -1.3628  1.1340 -0.4920
  112OSM   H15C11586   5.330   6.130  11.254  0.8574  1.1500 -1.4665
  112OSM    C1411587   5.167   6.135  11.074 -0.7987 -0.8431  0.1069
  112OSM   H14A11588   5.256   6.121  11.015  0.2826  3.1468  0.5628
  112OSM   H14B11589   5.092   6.170  11.004 -0.4283  0.3515  0.2924
  112OSM   H14C11590   5.131   6.046  11.124 -2.7192 -0.4605 -0.5017
  112OSM    C1311591   5.058   6.302  11.209  0.0913 -0.4285 -0.0187
  112OSM   H13A11592   5.089   6.363  11.292  0.0383  1.9614 -1.6540
  112OSM   H13B11593   5.000   6.214  11.232 -1.0098  0.4841  0.7568
  112OSM   H13C11594   5.005   6.360  11.135  0.5338  0.7607  0.5773
  112OSM    C1211595   5.278   6.361  11.100  0.6733  0.2080 -0.5599
  112OSM   H12A11596   5.378   6.319  11.108  0.1124 -0.9997  0.4935
  112OSM   H12B11597   5.282   6.452  11.157  2.1727 -1.0122  1.4377
  112OSM    C1111598   5.236   6.405  10.954 -0.1044  0.4545 -0.2830
  112OSM   H11A11599   5.220   6.315  10.891 -1.0802  0.8276 -0.6017
  112OSM   H11B11600   5.330   6.447  10.912  0.5330 -0.4047  0.2523
  112OSM      P11601   4.990   6.484  10.870  0.2182  0.0154 -0.0699
  112OSM    O1311602   4.920   6.363  10.916 -0.0728 -0.0293  0.2026
  112OSM    O1411603   4.909   6.610  10.869  0.6588 -0.0413  0.1572
  112OSM    O1111604   5.058   6.463  10.724  0.6880 -0.1912 -0.4000
  112OSM    O1211605   5.118   6.493  10.962 -0.3038  0.2159  0.5869
  112OSM    C1S11606   5.134   6.562  10.662  0.9095  0.7067 -0.1380
  112OSM    H1S11607   5.240   6.550  10.691  0.8158  0.4791  0.1050
  112OSM    H1T11608   5.108   6.668  10.682  1.6519  0.6302  1.3497
  112OSM     NF11609   5.232   6.612  10.433  0.2156  0.4283  0.2940
  112OSM    HNF11610   5.215   6.706  10.404  3.3303  0.3651 -2.2936
  112OSM    C2S11611   5.132   6.539  10.504 -0.1373 -0.4212  0.0219
  112OSM    H2S11612   5.156   6.431  10.498  0.9394 -0.2347  0.6855
  112OSM    C3S11613   4.984   6.558  10.456 -0.2970 -0.0276  0.1407
  112OSM    H3S11614   4.940   6.660  10.464 -0.1477 -0.0155  0.7856
  112OSM     O311615   4.892   6.473  10.517 -0.3564  0.3410  0.3343
  112OSM    HO311616   4.943   6.441  10.591  2.3545  1.7775 -0.7793
  112OSM    C4S11617   4.986   6.537  10.306 -0.5110  0.0779 -0.3338
  112OSM    H4S11618   4.979   6.631  10.250 -0.3445 -0.8621 -1.9982
  112OSM    C5S11619   4.982   6.416  10.232  0.1492 -0.1221 -0.3026
  112OSM    H5S11620   4.985   6.318  10.282  0.1177 -0.1129 -0.2838
  112OSM    C6S11621   4.982   6.408  10.082 -0.5824 -0.6065  0.1192
  112OSM    H6S11622   5.081   6.369  10.049 -1.4649 -1.0459 -2.1703
  112OSM    H6T11623   4.970   6.507  10.034  0.4363 -1.2607 -1.5702
  112OSM    C7S11624   4.875   6.325  10.018  0.4669  0.3453  0.2377
  112OSM    H7S11625   4.773   6.360  10.046 -0.8273 -2.1300 -1.1027
  112OSM    H7T11626   4.893   6.221  10.052 -1.6994  0.1849  1.0436
  112OSM    C8S11627   4.875   6.335   9.861 -0.2594 -0.3032 -0.4550
  112OSM    H8S11628   4.979   6.318   9.827  0.0032  3.9160 -2.4636
  112OSM    H8T11629   4.840   6.436   9.830 -0.5948 -0.7566 -1.5875
  112OSM    C9S11630   4.786   6.233   9.791  0.2662 -0.3843  0.7563
  112OSM    H9S11631   4.680   6.250   9.822 -0.0743  1.8296 -1.3007
  112OSM    H9T11632   4.812   6.128   9.815 -2.2799 -1.6987 -1.6983
  112OSM   C10S11633   4.797   6.250   9.635  0.3910  0.1361  0.2909
  112OSM   H10S11634   4.893   6.221   9.587  0.3449  3.7827 -2.3951
  112OSM   H10T11635   4.772   6.355   9.610 -0.1547  0.2583  1.3023
  112OSM   C11S11636   4.690   6.165   9.562  0.5268 -0.4296  0.4743
  112OSM   H11S11637   4.592   6.194   9.606  1.7925  0.3699  2.9481
  112OSM   H11T11638   4.704   6.057   9.584  1.2150 -0.6566 -0.9216
  112OSM   C12S11639   4.701   6.162   9.409 -0.0538  0.1997 -0.4933
  112OSM   H12S11640   4.801   6.128   9.376 -0.3512 -1.5239  0.2762
  112OSM   H12T11641   4.704   6.266   9.369  1.6328  0.9396  1.3900
  112OSM   C13S11642   4.593   6.075   9.343  0.1155 -0.3017  0.0085
  112OSM   H13S11643   4.491   6.116   9.354 -0.2463 -0.2716 -2.6250
  112OSM   H13T11644   4.590   5.974   9.390  2.9167  0.3517  1.8135
  112OSM   C14S11645   4.617   6.070   9.190 -0.5015  0.5383 -0.6045
  112OSM   H14S11646   4.586   5.968   9.158 -0.8628  1.2089 -2.5471
  112OSM   H14T11647   4.727   6.073   9.174 -0.6181 -1.9107 -2.4788
  112OSM   C15S11648   4.542   6.186   9.128  0.7520  0.0962  0.6159
  112OSM   H15S11649   4.587   6.279   9.170  2.8100 -0.3588 -0.4187
  112OSM   H15T11650   4.433   6.181   9.148  0.9829 -0.3064  1.8527
  112OSM   C16S11651   4.566   6.204   8.972  0.0044  0.1078 -0.4306
  112OSM   H16S11652   4.671   6.235   8.955  1.0776 -2.5313  0.7279
  112OSM   H16T11653   4.505   6.291   8.942 -1.8684 -0.9527  0.1301
  112OSM   C17S11654   4.541   6.081   8.890  0.5298  0.2273  0.5802
  112OSM   H17S11655   4.605   5.992   8.905 -0.1485 -0.5296 -0.8190
  112OSM   H17T11656   4.560   6.112   8.785  0.5716 -1.2489  0.1366
  112OSM   C18S11657   4.393   6.038   8.888 -0.1885  0.2192 -0.0717
  112OSM   H18S11658   4.325   6.124   8.903 -1.7815 -1.0758  0.3493
  112OSM   H18T11659   4.378   5.960   8.966  1.7889 -1.2391 -1.0330
  112OSM   H18U11660   4.379   5.998   8.785 -0.0724  0.7506 -0.2995
  112OSM    C1F11661   5.356   6.580  10.445 -0.8759 -0.4365 -0.0718
  112OSM     OF11662   5.391   6.471  10.496 -0.2851 -0.0459 -0.2791
  112OSM    C2F11663   5.456   6.691  10.410 -0.0015  0.7347  0.4448
  112OSM    H2F11664   5.538   6.687  10.484  0.9374 -2.2473 -0.6175
  112OSM    H2G11665   5.400   6.783  10.436  0.2880  0.7533  1.0059
  112OSM    C3F11666   5.517   6.655  10.272  0.4640 -0.4072 -0.3010
  112OSM    H3F11667   5.540   6.547  10.264 -1.5695 -0.7388 -2.7004
  112OSM    H3G11668   5.612   6.711  10.260  0.3262  0.1169  0.8581
  112OSM    C4F11669   5.424   6.696  10.159 -0.0477  0.2833 -0.5898
  112OSM    H4F11670   5.395   6.801  10.181  3.0417  1.1531 -0.1911
  112OSM    H4G11671   5.330   6.637  10.171 -0.4580  0.8759 -0.8258
  112OSM    C5F11672   5.471   6.686  10.017  0.7671 -1.0738  0.5796
  112OSM    H5F11673   5.480   6.583   9.979  0.5421 -0.5385 -0.9787
  112OSM    H5G11674   5.573   6.729  10.006  0.3841  0.2968  2.0325
  112OSM    C6F11675   5.376   6.768   9.921  0.2335 -0.1816  0.0856
  112OSM    H6F11676   5.417   6.739   9.821 -1.3538 -1.1084 -0.3203
  112OSM    H6G11677   5.389   6.878   9.931 -2.0241  0.3143 -1.6218
  112OSM    C7F11678   5.229   6.731   9.917  0.5967 -0.5543 -0.4815
  112OSM    H7F11679   5.170   6.802   9.855  0.4846  1.5637  1.8870
  112OSM    H7G11680   5.188   6.727  10.020  0.5461 -0.0573 -0.4822
  112OSM    C8F11681   5.195   6.596   9.859  0.8078 -0.1227  0.2646
  112OSM    H8F11682   5.085   6.583   9.859  0.6364  0.7310  2.8128
  112OSM    H8G11683   5.230   6.520   9.932  1.9278  0.1984  0.0912
  112OSM    C9F11684   5.255   6.565   9.728  0.7359 -0.2576 -0.2700
  112OSM    H9F11685   5.360   6.538   9.742  0.9216 -0.0507 -1.2266
  112OSM   C10F11686   5.215   6.607   9.603 -0.6527 -0.0428  0.3005
  112OSM   H10F11687   5.275   6.580   9.514  1.2032  0.8290  1.2311
  112OSM   C11F11688   5.080   6.671   9.583  0.6048  0.4327 -0.0095
  112OSM   H11F11689   5.102   6.776   9.556  1.5794  0.5428  1.1245
  112OSM   H11G11690   5.040   6.682   9.686  1.2411  0.4656  0.2352
  112OSM   C12F11691   4.978   6.585   9.505 -0.6206  1.0582  0.0961
  112OSM   H12F11692   4.880   6.638   9.507  0.7161  3.8704 -2.0830
  112OSM   H12G11693   4.978   6.480   9.540 -0.1345  0.7554 -0.7943
  112OSM   C13F11694   5.016   6.573   9.350  0.0862 -0.0443  0.3160
  112OSM   H13F11695   4.927   6.520   9.308  0.3833 -0.0235 -0.3451
  112OSM   H13G11696   5.100   6.503   9.332  0.5828  0.6415 -0.0819
  112OSM   C14F11697   5.046   6.710   9.278 -0.5143  0.7562  0.2566
  112OSM   H14F11698   5.151   6.739   9.300 -0.0754 -1.4201  1.2898
  112OSM   H14G11699   4.981   6.792   9.317 -1.4606  1.5810 -2.7837
  112OSM   C15F11700   5.013   6.704   9.130 -0.9144  0.2822 -0.0880
  112OSM   H15F11701   5.058   6.614   9.083 -0.4952  1.6242 -2.4425
  112OSM   H15G11702   5.063   6.788   9.078 -0.6086  0.5190  0.5778
  112OSM   C16F11703   4.861   6.713   9.098  0.1931 -0.2101 -0.0160
  112OSM   H16F11704   4.822   6.622   9.147  0.6043  0.2543  1.2263
  112OSM   H16G11705   4.848   6.689   8.991 -0.5098  0.4115 -0.0774
  112OSM   C17F11706   4.801   6.840   9.147  0.7009 -0.2562 -0.6635
  112OSM   H17F11707   4.853   6.927   9.101 -0.6551  0.8935 -0.0811
  112OSM   H17G11708   4.815   6.855   9.256  0.8181  1.2328 -0.8635
  112OSM   C18F11709   4.649   6.847   9.111  0.1095 -0.6704  0.3083
  112OSM   H18F11710   4.605   6.945   9.143  1.7734  0.1441  0.2083
  112OSM   H18G11711   4.588   6.765   9.156  0.8519 -1.6791 -0.4893
  112OSM   H18H11712   4.640   6.838   9.001 -0.8267 -0.4049  0.3570
  113OSM      N11713   0.871   3.600  11.623  0.2051 -0.0123  0.0505
  113OSM    C1511714   0.844   3.702  11.730  0.3521  1.1147 -0.4717
  113OSM   H15A11715   0.865   3.799  11.687 -1.7743  1.9012  0.0990
  113OSM   H15B11716   0.912   3.689  11.812  1.6087 -0.8238 -1.7327
  113OSM   H15C11717   0.743   3.687  11.766 -1.1203  0.3287 -4.3929
  113OSM    C1411718   1.019   3.629  11.586 -0.0407 -0.2397  0.3083
  113OSM   H14A11719   1.091   3.585  11.653  1.2785  0.4823 -0.5994
  113OSM   H14B11720   1.044   3.731  11.562  2.0465 -0.3546  1.7335
  113OSM   H14C11721   1.042   3.578  11.493  2.8650  0.9814  0.2692
  113OSM    C1311722   0.860   3.468  11.681 -0.4255  0.4812  0.4868
  113OSM   H13A11723   0.923   3.445  11.765 -0.5898 -4.2664 -0.4041
  113OSM   H13B11724   0.880   3.386  11.613 -0.3849 -1.1666  2.4030
  113OSM   H13C11725   0.766   3.446  11.730  0.5940 -1.0199  1.8723
  113OSM    C1211726   0.785   3.637  11.501 -0.1739  0.3149  0.1842
  113OSM   H12A11727   0.826   3.718  11.443  1.2870 -1.0439 -0.7890
  113OSM   H12B11728   0.682   3.656  11.528 -0.3369  0.2979 -0.4119
  113OSM    C1111729   0.794   3.532  11.386 -0.5701  0.4821 -0.2511
  113OSM   H11A11730   0.713   3.555  11.314 -3.2510 -1.0311  2.0518
  113OSM   H11B11731   0.763   3.432  11.423 -0.6443  0.1346 -1.2346
  113OSM      P11732   0.949   3.422  11.201  0.2631 -0.3088  0.4650
  113OSM    O1311733   1.064   3.464  11.115 -0.3459  0.6147  0.4943
  113OSM    O1411734   0.950   3.288  11.261 -0.1151 -0.3171  0.1515
  113OSM    O1111735   0.818   3.433  11.113 -0.3517  0.1599 -0.8910
  113OSM    O1211736   0.920   3.528  11.322 -0.2227  0.3222  0.7175
  113OSM    C1S11737   0.784   3.548  11.034  0.0034 -0.4348 -0.7221
  113OSM    H1S11738   0.846   3.635  11.066 -0.2463 -1.1040  1.8161
  113OSM    H1T11739   0.679   3.578  11.057 -0.0239  1.7448 -3.2028
  113OSM     NF11740   0.739   3.616  10.798 -0.3825  0.6391 -0.1487
  113OSM    HNF11741   0.640   3.610  10.788 -0.4495 -0.2832  0.9657
  113OSM    C2S11742   0.787   3.508  10.880 -0.1626 -0.4638  0.0661
  113OSM    H2S11743   0.896   3.491  10.870  0.6954  3.4832  0.8774
  113OSM    C3S11744   0.701   3.380  10.862 -0.9200  0.0930  0.3139
  113OSM    H3S11745   0.599   3.400  10.902 -0.8127 -0.4888  0.8972
  113OSM     O311746   0.745   3.263  10.934  0.8627 -0.0430 -0.6280
  113OSM    HO311747   0.777   3.307  11.013 -1.5637  0.7666  0.0058
  113OSM    C4S11748   0.693   3.347  10.711 -0.6818  0.3720 -0.5408
  113OSM    H4S11749   0.795   3.334  10.671 -0.7762  0.9675 -0.9890
  113OSM    C5S11750   0.579   3.349  10.638  0.1825 -0.1348  0.3558
  113OSM    H5S11751   0.480   3.364  10.682 -0.0684 -1.4913  0.2763
  113OSM    C6S11752   0.585   3.324  10.494  0.6225  0.3996  0.7401
  113OSM    H6S11753   0.663   3.245  10.482 -1.1001 -1.1430 -1.2517
  113OSM    H6T11754   0.625   3.404  10.429  0.1991 -0.4797 -0.6572
  113OSM    C7S11755   0.460   3.265  10.427 -0.9344 -0.1589 -0.1920
  113OSM    H7S11756   0.421   3.186  10.493 -0.8641  0.6660  0.8585
  113OSM    H7T11757   0.488   3.220  10.329  2.7022  2.1475 -0.4229
  113OSM    C8S11758   0.349   3.373  10.419 -0.1006  0.0112 -0.0630
  113OSM    H8S11759   0.392   3.461  10.367  0.7812 -0.7107 -0.6054
  113OSM    H8T11760   0.297   3.403  10.512  0.9138  0.8164  0.2570
  113OSM    C9S11761   0.241   3.320  10.328  0.3470  0.2847 -0.0562
  113OSM    H9S11762   0.194   3.230  10.374  0.2291 -0.3145 -1.3146
  113OSM    H9T11763   0.286   3.273  10.238  0.1571  0.1201 -0.0654
  113OSM   C10S11764   0.121   3.415  10.287  0.1730  0.6776  0.1021
  113OSM   H10S11765   0.061   3.428  10.380 -0.4881  1.7004 -0.4551
  113OSM   H10T11766   0.062   3.363  10.208  1.5541  0.0339 -0.5311
  113OSM   C11S11767   0.160   3.562  10.245 -0.4092  0.0584 -0.3818
  113OSM   H11S11768   0.214   3.611  10.328  0.8827  0.4818 -1.4476
  113OSM   H11T11769   0.066   3.619  10.226 -0.4340  0.0215 -0.3704
  113OSM   C12S11770   0.244   3.562  10.123 -0.0204 -0.3077  0.5472
  113OSM   H12S11771   0.234   3.462  10.076 -0.9588 -0.1878  0.4752
  113OSM   H12T11772   0.346   3.580  10.164  0.1032 -0.8476  0.4750
  113OSM   C13S11773   0.202   3.660  10.019 -0.2951 -0.8822  0.4114
  113OSM   H13S11774   0.164   3.750  10.072 -1.0834 -2.6384  3.0546
  113OSM   H13T11775   0.115   3.611   9.970 -1.0035 -1.6319  2.2911
  113OSM   C14S11776   0.320   3.690   9.924  0.3161  0.0561  0.2368
  113OSM   H14S11777   0.363   3.594   9.887 -0.9728 -0.0983 -0.9879
  113OSM   H14T11778   0.403   3.744   9.972  1.5699 -0.6705 -1.0320
  113OSM   C15S11779   0.263   3.758   9.796 -0.3399 -0.1739  0.1892
  113OSM   H15S11780   0.281   3.868   9.802  1.9393 -0.5113  0.2803
  113OSM   H15T11781   0.153   3.743   9.803 -0.6367  1.0885 -1.1416
  113OSM   C16S11782   0.308   3.713   9.660  0.1766  0.0378 -0.6231
  113OSM   H16S11783   0.297   3.603   9.650  1.4593 -0.2184  0.6182
  113OSM   H16T11784   0.417   3.733   9.659  0.6390 -2.0948  1.0527
  113OSM   C17S11785   0.231   3.778   9.546  0.3067 -0.0455 -0.0393
  113OSM   H17S11786   0.248   3.888   9.551 -0.4450  0.0512  0.6457
  113OSM   H17T11787   0.120   3.768   9.555  0.1944  2.1054  1.9350
  113OSM   C18S11788   0.286   3.732   9.412 -0.0731  0.1175 -0.4112
  113OSM   H18S11789   0.263   3.624   9.400  2.0850 -0.2975 -1.2202
  113OSM   H18T11790   0.396   3.740   9.411  0.0462  0.4212  3.2696
  113OSM   H18U11791   0.249   3.799   9.332  1.1410  1.4991  0.1506
  113OSM    C1F11792   0.800   3.724  10.774 -0.4992 -0.3365 -0.5922
  113OSM     OF11793   0.911   3.741  10.822 -0.3817  0.0799  0.2278
  113OSM    C2F11794   0.732   3.825  10.687 -0.1187 -0.6002 -0.4062
  113OSM    H2F11795   0.728   3.913  10.755 -0.8167 -2.0141  1.4809
  113OSM    H2G11796   0.623   3.818  10.667 -0.7180  4.4520 -0.2308
  113OSM    C3F11797   0.816   3.850  10.561 -0.7328 -0.1452  0.2655
  113OSM    H3F11798   0.921   3.878  10.586 -0.7955  0.1841  0.1647
  113OSM    H3G11799   0.761   3.921  10.496 -1.2157 -0.2163  0.5944
  113OSM    C4F11800   0.828   3.725  10.475 -0.5052 -0.3913 -0.0422
  113OSM    H4F11801   0.729   3.687  10.443 -0.6416  0.1718 -0.3132
  113OSM    H4G11802   0.882   3.651  10.537  0.4253  1.9591  2.1414
  113OSM    C5F11803   0.916   3.741  10.350 -0.4524 -0.4504  0.0908
  113OSM    H5F11804   1.014   3.787  10.374 -0.5705  1.1188 -2.0986
  113OSM    H5G11805   0.870   3.813  10.278 -1.2767 -0.6198  0.4347
  113OSM    C6F11806   0.940   3.605  10.268 -0.0007  0.0079  0.9916
  113OSM    H6F11807   0.849   3.542  10.282  0.3227 -0.7062 -0.0307
  113OSM    H6G11808   1.024   3.543  10.305 -1.5545 -3.0026 -0.2066
  113OSM    C7F11809   0.950   3.629  10.121  0.3480  0.3037  0.3578
  113OSM    H7F11810   1.009   3.548  10.072  0.3353  0.2018  0.5121
  113OSM    H7G11811   1.019   3.712  10.092  1.0184  0.3629  2.0168
  113OSM    C8F11812   0.817   3.643  10.041 -0.1904 -0.5359 -0.1150
  113OSM    H8F11813   0.846   3.648   9.934  3.1701 -1.7996  0.6226
  113OSM    H8G11814   0.768   3.743  10.052 -2.9544 -1.2750 -3.6669
  113OSM    C9F11815   0.709   3.542  10.072  0.0242  0.6181 -0.2257
  113OSM    H9F11816   0.670   3.561  10.173  0.3239  1.1372 -0.2015
  113OSM   C10F11817   0.664   3.443   9.990 -0.2264 -0.2423  0.0285
  113OSM   H10F11818   0.576   3.381  10.010 -0.5654  0.0107 -0.6381
  113OSM   C11F11819   0.720   3.415   9.849 -0.0939  0.6244  0.0180
  113OSM   H11F11820   0.704   3.309   9.819 -0.5702  1.4445 -2.9563
  113OSM   H11G11821   0.827   3.447   9.847 -0.1280  0.9489 -3.2689
  113OSM   C12F11822   0.644   3.503   9.753  1.0328  0.3310  0.3711
  113OSM   H12F11823   0.645   3.612   9.775  0.1048 -0.1073  2.9780
  113OSM   H12G11824   0.536   3.477   9.758  0.8186  1.3817  1.8062
  113OSM   C13F11825   0.688   3.469   9.610  0.4535 -0.4701  0.5025
  113OSM   H13F11826   0.671   3.363   9.584  0.5108 -0.1531 -0.8712
  113OSM   H13G11827   0.796   3.492   9.600  0.5464 -0.1641  1.9181
  113OSM   C14F11828   0.616   3.551   9.501 -0.2314  0.2122  0.0170
  113OSM   H14F11829   0.641   3.658   9.519 -0.6882  0.0326  1.9656
  113OSM   H14G11830   0.507   3.537   9.514 -0.2310  0.2288  0.0387
  113OSM   C15F11831   0.662   3.510   9.356 -0.1154 -1.0642 -0.3506
  113OSM   H15F11832   0.649   3.399   9.356 -0.5172 -1.0420 -1.8590
  113OSM   H15G11833   0.768   3.538   9.342 -0.5089  0.7516  0.0235
  113OSM   C16F11834   0.582   3.570   9.251 -0.3567 -0.2186  0.2604
  113OSM   H16F11835   0.605   3.678   9.236  0.7825 -0.3807  0.7489
  113OSM   H16G11836   0.475   3.563   9.282 -0.3207  0.9951  0.7257
  113OSM   C17F11837   0.588   3.503   9.118 -0.3990 -0.9964  0.0326
  113OSM   H17F11838   0.532   3.566   9.046 -1.0948 -0.7850  0.7448
  113OSM   H17G11839   0.545   3.401   9.129  0.4516 -1.2042  1.7760
  113OSM   C18F11840   0.735   3.490   9.062  0.1918  0.0790  0.5531
  113OSM   H18F11841   0.728   3.434   8.966  0.8953 -2.8101  2.0870
  113OSM   H18G11842   0.804   3.426   9.121 -2.0184 -1.9316  1.0932
  113OSM   H18H11843   0.773   3.594   9.046  0.6545 -0.0121  1.0544
  114OSM      N11844   4.279   6.078  11.211 -0.2038 -0.2574  0.0746
  114OSM    C1511845   4.143   6.111  11.250  0.4853  0.2133 -0.6364
  114OSM   H15A11846   4.069   6.067  11.185 -2.4661  2.4306  0.9675
  114OSM   H15B11847   4.131   6.216  11.228 -2.9071  0.2196  0.7114
  114OSM   H15C11848   4.133   6.104  11.357 -1.4513  0.6527 -0.7507
  114OSM    C1411849   4.381   6.160  11.287 -0.0192 -0.0406 -0.4981
  114OSM   H14A11850   4.482   6.132  11.262 -0.9639 -2.2242 -2.2256
  114OSM   H14B11851   4.368   6.146  11.394 -0.2022  1.3611 -0.3074
  114OSM   H14C11852   4.351   6.262  11.264  0.7117  0.3205  0.0890
  114OSM    C1311853   4.316   5.935  11.239 -0.5745  0.3229 -0.2338
  114OSM   H13A11854   4.415   5.905  11.211  0.2836  1.6226  1.2522
  114OSM   H13B11855   4.241   5.874  11.191 -0.5992 -1.1266  1.5448
  114OSM   H13C11856   4.311   5.921  11.346 -2.6178  4.1904  0.3944
  114OSM    C1211857   4.299   6.098  11.060  0.1796 -0.4058  0.6703
  114OSM   H12A11858   4.405   6.090  11.039 -0.0651 -0.6534 -0.5240
  114OSM   H12B11859   4.254   6.196  11.049  3.0800  1.1494  1.5826
  114OSM    C1111860   4.224   6.006  10.961 -0.0698  0.2172  0.6568
  114OSM   H11A11861   4.279   5.910  10.967  0.1668  0.1879 -1.3042
  114OSM   H11B11862   4.212   6.029  10.853  0.9124  0.0586  0.5033
  114OSM      P11863   4.029   5.840  11.013  0.1344 -0.3557  0.2284
  114OSM    O1311864   4.136   5.746  11.051  0.3552  0.1467 -0.1488
  114OSM    O1411865   3.907   5.849  11.098 -0.0211  0.0593 -0.4686
  114OSM    O1111866   3.997   5.804  10.859  0.4482 -0.1808 -0.7744
  114OSM    O1211867   4.092   5.983  11.007 -0.1389  0.0342  0.5337
  114OSM    C1S11868   3.873   5.856  10.795  0.5995  0.3754  0.3888
  114OSM    H1S11869   3.830   5.947  10.841 -0.3653 -0.6251  1.5034
  114OSM    H1T11870   3.784   5.791  10.802 -1.6492  2.8503 -2.4266
  114OSM     NF11871   3.757   5.916  10.572  0.0674  0.3418  0.3614
  114OSM    HNF11872   3.706   5.843  10.526  1.8116  0.4308 -1.8794
  114OSM    C2S11873   3.883   5.873  10.635  0.3801  0.6140 -0.2648
  114OSM    H2S11874   3.963   5.946  10.610 -0.0341  1.2659  0.2635
  114OSM    C3S11875   3.940   5.737  10.569 -0.5053  0.5424 -0.3044
  114OSM    H3S11876   3.852   5.673  10.587 -0.5623  0.6183 -0.3113
  114OSM     O311877   4.050   5.672  10.640 -0.1158 -0.6680  0.4465
  114OSM    HO311878   4.042   5.708  10.728 -0.0091  0.6120 -0.0549
  114OSM    C4S11879   3.946   5.755  10.423 -0.3529 -0.6404 -0.2222
  114OSM    H4S11880   3.855   5.733  10.365  1.2454  0.8241 -3.5184
  114OSM    C5S11881   4.059   5.791  10.357  0.1331 -0.2809 -0.1863
  114OSM    H5S11882   4.155   5.808  10.407 -0.7847  1.5009  1.0728
  114OSM    C6S11883   4.055   5.816  10.215  0.3358 -0.3044  0.1855
  114OSM    H6S11884   4.152   5.853  10.175 -0.1370  0.1723 -0.5535
  114OSM    H6T11885   3.999   5.908  10.188  0.4610 -0.1810  0.3462
  114OSM    C7S11886   4.010   5.713  10.109  0.2486 -0.1558 -0.3621
  114OSM    H7S11887   3.908   5.678  10.135  0.3018 -0.1401 -0.1309
  114OSM    H7T11888   4.085   5.633  10.126  2.0150  1.6054  0.5873
  114OSM    C8S11889   4.001   5.758   9.968 -0.3277 -0.0374 -0.1514
  114OSM    H8S11890   4.101   5.801   9.944 -1.3473  2.4180 -0.3178
  114OSM    H8T11891   3.927   5.840   9.957  1.9846  1.9328 -2.3795
  114OSM    C9S11892   3.953   5.650   9.872  0.5344  0.1004 -0.0759
  114OSM    H9S11893   3.843   5.640   9.880  0.4563  1.8205  2.7519
  114OSM    H9T11894   4.001   5.554   9.900  0.6683 -0.1611 -1.1896
  114OSM   C10S11895   3.987   5.708   9.731  0.7333  0.9195 -0.7442
  114OSM   H10S11896   4.097   5.713   9.716  1.0717 -1.5305  0.3396
  114OSM   H10T11897   3.932   5.803   9.713 -0.5135 -0.2930 -4.3956
  114OSM   C11S11898   3.938   5.613   9.617 -0.4390 -0.1552  0.1714
  114OSM   H11S11899   3.837   5.569   9.625 -0.0234 -1.3466 -0.8538
  114OSM   H11T11900   3.991   5.516   9.619 -3.0042 -1.6398  0.2514
  114OSM   C12S11901   3.940   5.661   9.472 -0.7128 -0.7302  0.0818
  114OSM   H12S11902   4.037   5.700   9.438 -0.3025 -0.6100  1.3199
  114OSM   H12T11903   3.869   5.744   9.451 -1.0148 -1.1501 -0.5970
  114OSM   C13S11904   3.902   5.538   9.392  0.3197  0.0848 -0.4426
  114OSM   H13S11905   3.804   5.501   9.427 -0.0637  2.3287  1.0222
  114OSM   H13T11906   3.972   5.452   9.403  0.0871 -0.0461  0.0054
  114OSM   C14S11907   3.886   5.563   9.238 -0.1758 -0.0222 -1.2335
  114OSM   H14S11908   3.818   5.650   9.234  1.7074  1.4703 -2.3537
  114OSM   H14T11909   3.848   5.467   9.197 -0.7311 -1.5126  2.3472
  114OSM   C15S11910   4.009   5.587   9.171 -0.4557  0.2294 -0.3807
  114OSM   H15S11911   4.077   5.500   9.184 -2.6863 -1.4521  0.7205
  114OSM   H15T11912   4.065   5.675   9.210  0.4421  0.2389 -1.6320
  114OSM   C16S11913   4.000   5.615   9.029 -0.1643  0.3822  0.5583
  114OSM   H16S11914   3.952   5.710   8.996  1.3072  0.8094 -0.4475
  114OSM   H16T11915   3.948   5.524   8.991  1.1757  0.2039 -0.9684
  114OSM   C17S11916   4.144   5.608   8.960  0.2148  0.4425  0.1594
  114OSM   H17S11917   4.202   5.517   8.984  2.9132  1.5125 -1.7897
  114OSM   H17T11918   4.208   5.689   9.001 -0.7419  1.2349  0.1244
  114OSM   C18S11919   4.125   5.626   8.809  0.5315  0.5516  0.3717
  114OSM   H18S11920   4.045   5.553   8.786  1.0921 -0.3853  1.3306
  114OSM   H18T11921   4.210   5.594   8.745  0.0453  0.7531 -0.3816
  114OSM   H18U11922   4.113   5.734   8.784 -0.1928  0.6009  0.8984
  114OSM    C1F11923   3.695   6.031  10.593  0.8289  0.9032  0.6955
  114OSM     OF11924   3.744   6.121  10.659 -0.3770 -0.2549  0.8578
  114OSM    C2F11925   3.563   6.057  10.517 -0.2816 -0.5689  0.4446
  114OSM    H2F11926   3.542   6.166  10.525 -1.6114 -0.8292  0.7585
  114OSM    H2G11927   3.483   5.995  10.564  0.1333 -2.0167 -0.7111
  114OSM    C3F11928   3.571   6.022  10.366  0.0101 -0.0302  0.9454
  114OSM    H3F11929   3.578   5.912  10.353  2.1431  0.4277 -3.4449
  114OSM    H3G11930   3.659   6.070  10.317 -0.4605 -1.9780 -2.0174
  114OSM    C4F11931   3.440   6.064  10.292 -0.2003  0.2860 -0.4680
  114OSM    H4F11932   3.438   6.175  10.303 -0.5739  0.2491 -0.1130
  114OSM    H4G11933   3.357   6.031  10.359 -0.0435  1.4707  0.3472
  114OSM    C5F11934   3.442   6.023  10.146  0.4462 -0.2255  0.1899
  114OSM    H5F11935   3.401   5.920  10.138  0.4961 -0.2500  0.2519
  114OSM    H5G11936   3.550   6.011  10.122 -0.0475 -3.0243 -1.0249
  114OSM    C6F11937   3.378   6.117  10.050 -0.7124 -1.1720  0.5745
  114OSM    H6F11938   3.430   6.215  10.053 -0.1748 -1.4613  0.8954
  114OSM    H6G11939   3.275   6.137  10.085 -2.0668  1.3125 -3.9173
  114OSM    C7F11940   3.369   6.075   9.902 -0.7046  0.1661  0.1895
  114OSM    H7F11941   3.369   5.965   9.895 -1.6450  0.1831 -0.2188
  114OSM    H7G11942   3.452   6.117   9.841 -0.3099 -0.3732  0.3499
  114OSM    C8F11943   3.240   6.117   9.836 -0.2100 -0.5122  0.3321
  114OSM    H8F11944   3.221   6.227   9.837  3.0801  0.1494  1.5539
  114OSM    H8G11945   3.153   6.072   9.888 -0.7749  1.4729  1.1983
  114OSM    C9F11946   3.253   6.077   9.690  0.0331 -0.1681  0.1904
  114OSM    H9F11947   3.326   6.137   9.634 -2.2435  1.6820 -0.9923
  114OSM   C10F11948   3.172   5.999   9.622  0.0490 -0.5293 -0.1794
  114OSM   H10F11949   3.185   6.001   9.513  1.2213  1.1651 -0.0526
  114OSM   C11F11950   3.052   5.923   9.679 -0.5529 -1.2292  0.1118
  114OSM   H11F11951   2.980   5.996   9.723  0.8589  0.6833 -0.6222
  114OSM   H11G11952   3.100   5.872   9.765  2.4120  1.8072  0.4289
  114OSM   C12F11953   2.988   5.817   9.584  0.5883  0.4174 -0.1735
  114OSM   H12F11954   2.918   5.764   9.652 -0.6098  0.4884 -1.3187
  114OSM   H12G11955   3.062   5.738   9.562  1.8830  1.3589  0.6284
  114OSM   C13F11956   2.922   5.876   9.453 -0.4301  0.2773  0.0251
  114OSM   H13F11957   3.007   5.887   9.382  0.9995 -0.8258  1.4792
  114OSM   H13G11958   2.889   5.980   9.476  0.0735 -0.1215  3.0757
  114OSM   C14F11959   2.795   5.798   9.407 -0.2121  0.1996  0.4787
  114OSM   H14F11960   2.705   5.827   9.465  1.2853 -0.6946  3.4881
  114OSM   H14G11961   2.808   5.688   9.422  4.9917  0.4176 -0.4268
  114OSM   C15F11962   2.759   5.819   9.259 -0.1948  0.1077 -0.3174
  114OSM   H15F11963   2.860   5.824   9.212  0.4906  1.7398  1.2190
  114OSM   H15G11964   2.705   5.915   9.246 -0.2690  0.1449  0.2532
  114OSM   C16F11965   2.676   5.720   9.178 -0.0259  0.2949 -0.1058
  114OSM   H16F11966   2.728   5.626   9.206 -0.3619  0.3613  0.7803
  114OSM   H16G11967   2.678   5.740   9.068  0.9525  2.4148  0.2373
  114OSM   C17F11968   2.531   5.706   9.236 -0.9063  0.3360  0.4491
  114OSM   H17F11969   2.471   5.798   9.229 -0.5734  0.5292  0.1213
  114OSM   H17G11970   2.545   5.673   9.342 -1.2480 -1.8862 -0.1403
  114OSM   C18F11971   2.454   5.588   9.160 -0.7698 -1.0145  0.1246
  114OSM   H18F11972   2.496   5.491   9.193  0.8502  0.0522  1.3570
  114OSM   H18G11973   2.458   5.619   9.054  0.5902  1.1588  0.7367
  114OSM   H18H11974   2.351   5.598   9.202 -0.0622  0.3992  1.6582
  115OSM      N11975   1.396   5.043  10.654  0.5165  0.1940 -0.0862
  115OSM    C1511976   1.294   5.043  10.547  0.4895 -0.3422 -0.1282
  115OSM   H15A11977   1.239   5.135  10.563 -0.2736 -0.6481 -0.8820
  115OSM   H15B11978   1.227   4.960  10.565  0.5758 -0.2356  0.7208
  115OSM   H15C11979   1.332   5.032  10.447 -0.3250 -1.8721 -0.2907
  115OSM    C1411980   1.478   5.168  10.657  0.6381 -0.0647  0.4593
  115OSM   H14A11981   1.543   5.178  10.571 -0.2722  2.6997  0.0136
  115OSM   H14B11982   1.550   5.163  10.737  0.4722  2.7921  0.9042
  115OSM   H14C11983   1.424   5.261  10.662 -0.8073 -0.8921  0.9515
  115OSM    C1311984   1.317   5.012  10.777  0.5364  0.1188 -0.1790
  115OSM   H13A11985   1.393   4.993  10.852  1.0676  0.5899 -0.5819
  115OSM   H13B11986   1.255   4.927  10.755 -1.9952  2.5099 -3.2353
  115OSM   H13C11987   1.261   5.103  10.784  0.1261  0.1512 -2.8060
  115OSM    C1211988   1.485   4.921  10.626  0.3982 -0.4909 -0.2403
  115OSM   H12A11989   1.537   4.934  10.533  0.3939 -0.6198 -0.2615
  115OSM   H12B11990   1.418   4.840  10.599  0.8129 -0.3265 -1.8755
  115OSM    C1111991   1.578   4.876  10.741  0.0262 -0.0079  0.1001
  115OSM   H11A11992   1.605   4.965  10.803 -0.6290 -1.4161  2.5590
  115OSM   H11B11993   1.668   4.822  10.705  0.4074 -1.5256  2.9786
  115OSM      P11994   1.564   4.682  10.924 -0.0593  0.2636  0.1914
  115OSM    O1311995   1.676   4.747  10.998  0.2256  0.5515  0.1879
  115OSM    O1411996   1.459   4.635  11.012  0.2677  0.2366  0.1213
  115OSM    O1111997   1.610   4.570  10.828  0.0344  0.2023 -0.0407
  115OSM    O1211998   1.499   4.779  10.822  0.4594 -0.3094  0.1231
  115OSM    C1S11999   1.541   4.515  10.715  0.0945  0.2358 -0.0446
  115OSM    H1S12000   1.434   4.542  10.706  0.3134  1.2891  0.3292
  115OSM    H1T12001   1.556   4.405  10.726  2.1814  0.5350  0.5394
  115OSM     NF12002   1.533   4.487  10.469  0.2761 -0.0975  0.2831
  115OSM    HNF12003   1.562   4.394  10.445 -0.0941 -0.3024  0.6228
  115OSM    C2S12004   1.613   4.547  10.574  0.4187  0.5181  0.3485
  115OSM    H2S12005   1.622   4.655  10.552  0.3999  1.1528  3.0938
  115OSM    C3S12006   1.766   4.499  10.583  0.3797 -0.0113 -0.6872
  115OSM    H3S12007   1.768   4.388  10.594  3.5051 -0.0278 -0.4646
  115OSM     O312008   1.838   4.539  10.699 -0.0642  0.2267  0.1249
  115OSM    HO312009   1.764   4.573  10.751 -0.1416  3.9835 -2.0688
  115OSM    C4S12010   1.833   4.529  10.452  0.6649 -0.3455 -0.1954
  115OSM    H4S12011   1.845   4.439  10.390 -0.7618 -1.7978  1.5326
  115OSM    C5S12012   1.897   4.638  10.410 -0.3725 -0.6196  0.5964
  115OSM    H5S12013   1.896   4.725  10.477 -1.3407 -0.9465  1.0295
  115OSM    C6S12014   1.964   4.655  10.277 -0.2102 -0.0077  0.7836
  115OSM    H6S12015   2.069   4.690  10.281  1.1783 -2.7300 -3.7241
  115OSM    H6T12016   1.919   4.740  10.222 -1.9270 -1.1638  0.3321
  115OSM    C7S12017   1.963   4.540  10.175 -0.5113  0.3494  0.5372
  115OSM    H7S12018   1.862   4.495  10.166  0.4940 -1.9941  0.4579
  115OSM    H7T12019   2.023   4.452  10.204 -0.2717  0.5242  0.5786
  115OSM    C8S12020   2.007   4.584  10.032  0.2636  0.5520 -0.8855
  115OSM    H8S12021   2.106   4.632  10.047 -0.3281  1.8213 -0.9201
  115OSM    H8T12022   1.944   4.664   9.987  0.6612  1.5130  0.2187
  115OSM    C9S12023   2.002   4.472   9.929 -0.2143 -0.7431 -0.4995
  115OSM    H9S12024   1.899   4.432   9.944  0.3223 -1.4675  1.4681
  115OSM    H9T12025   2.064   4.387   9.964 -0.3834 -0.5392  0.3057
  115OSM   C10S12026   2.015   4.522   9.785  0.6196  0.0537  0.0379
  115OSM   H10S12027   2.113   4.570   9.763  0.0850  0.0108 -2.8330
  115OSM   H10T12028   1.931   4.590   9.763 -1.5119 -2.8446 -1.3533
  115OSM   C11S12029   2.020   4.405   9.688  0.1040 -0.1918 -0.4298
  115OSM   H11S12030   1.924   4.350   9.684 -0.4599  0.5625  1.3989
  115OSM   H11T12031   2.101   4.335   9.720  1.9196  0.8908 -2.3987
  115OSM   C12S12032   2.051   4.454   9.542 -0.5925  0.6439  0.1150
  115OSM   H12S12033   2.145   4.512   9.538 -0.2025  0.0539  0.4849
  115OSM   H12T12034   1.972   4.529   9.523 -2.7729 -1.4297  0.3778
  115OSM   C13S12035   2.040   4.343   9.438 -0.6050  0.5455  0.3623
  115OSM   H13S12036   1.939   4.301   9.455 -0.7670  1.9248  3.6239
  115OSM   H13T12037   2.116   4.263   9.452 -0.6258  0.8492  2.4330
  115OSM   C14S12038   2.045   4.401   9.283  0.0900 -0.2054 -0.3255
  115OSM   H14S12039   2.148   4.440   9.269  1.2606 -3.1361 -0.5826
  115OSM   H14T12040   1.971   4.481   9.264 -1.6198 -1.5811  0.2320
  115OSM   C15S12041   2.005   4.294   9.179  0.1031 -0.1977  0.2342
  115OSM   H15S12042   2.077   4.209   9.181  2.5697  1.7597  1.0106
  115OSM   H15T12043   2.035   4.332   9.079  1.2604 -0.6500  0.3884
  115OSM   C16S12044   1.864   4.224   9.180 -0.7822 -0.7761 -0.0410
  115OSM   H16S12045   1.844   4.183   9.281 -0.5900 -1.3366 -0.2284
  115OSM   H16T12046   1.872   4.136   9.112 -0.1557 -1.3842  0.8032
  115OSM   C17S12047   1.746   4.309   9.125  0.4759  0.0100  0.0403
  115OSM   H17S12048   1.762   4.372   9.035 -1.6960  0.2963 -0.1958
  115OSM   H17T12049   1.723   4.380   9.206  3.0597  2.1270 -0.9153
  115OSM   C18S12050   1.617   4.232   9.086  0.1873  0.5839  0.1507
  115OSM   H18S12051   1.628   4.165   8.998  4.0231  1.0649  0.0915
  115OSM   H18T12052   1.536   4.305   9.065 -0.1197 -0.0023 -0.7593
  115OSM   H18U12053   1.572   4.171   9.168  3.0999  0.3617  1.7045
  115OSM    C1F12054   1.415   4.545  10.421  0.0361  0.0420 -0.1865
  115OSM     OF12055   1.366   4.648  10.472 -0.1066 -0.5213  0.2114
  115OSM    C2F12056   1.351   4.495  10.301 -0.2795 -0.0641 -0.3126
  115OSM    H2F12057   1.320   4.389  10.310  1.4708 -0.4913  1.2755
  115OSM    H2G12058   1.421   4.488  10.215  0.7699 -1.1581  0.6063
  115OSM    C3F12059   1.230   4.566  10.250 -0.1015 -0.2587  0.2583
  115OSM    H3F12060   1.273   4.667  10.231  2.7851 -1.0273  2.0906
  115OSM    H3G12061   1.156   4.572  10.333  3.0420  4.7168  3.2342
  115OSM    C4F12062   1.163   4.507  10.121  0.5512 -0.5736 -0.2088
  115OSM    H4F12063   1.060   4.546  10.105  1.0692  0.0224 -2.4059
  115OSM    H4G12064   1.162   4.399  10.146  2.0373 -0.4188  0.6404
  115OSM    C5F12065   1.242   4.533   9.995  0.1788  0.1720  1.1139
  115OSM    H5F12066   1.336   4.477  10.010 -0.5900 -1.4766 -0.0182
  115OSM    H5G12067   1.270   4.640   9.982 -2.8296  0.8814 -0.5136
  115OSM    C6F12068   1.174   4.475   9.868 -0.2096 -0.4378  0.5362
  115OSM    H6F12069   1.073   4.518   9.855  0.8133  2.6244  1.8671
  115OSM    H6G12070   1.157   4.365   9.870 -0.0558 -0.4530  1.0231
  115OSM    C7F12071   1.249   4.507   9.736 -0.6307  0.2759  0.0110
  115OSM    H7F12072   1.354   4.475   9.749  0.4320  2.8295 -1.3623
  115OSM    H7G12073   1.265   4.615   9.712  0.5193  0.1499  0.1807
  115OSM    C8F12074   1.181   4.452   9.605  0.0472 -0.3442 -1.2067
  115OSM    H8F12075   1.088   4.512   9.593  0.8719  0.9090 -1.5822
  115OSM    H8G12076   1.151   4.346   9.615  1.1335 -0.5411  0.3059
  115OSM    C9F12077   1.281   4.474   9.500  0.7033  0.4612 -0.3700
  115OSM    H9F12078   1.352   4.556   9.515  1.5009 -0.1063 -0.9371
  115OSM   C10F12079   1.284   4.414   9.382  0.1336 -0.2316 -0.2260
  115OSM   H10F12080   1.363   4.437   9.309 -1.1633  0.5577 -1.4150
  115OSM   C11F12081   1.176   4.310   9.338 -0.6125  0.3691 -0.3116
  115OSM   H11F12082   1.087   4.302   9.404 -0.4838 -1.1907 -0.2819
  115OSM   H11G12083   1.217   4.209   9.359  1.1335  1.1866  0.4465
  115OSM   C12F12084   1.119   4.327   9.195  0.1273  0.3214 -0.1936
  115OSM   H12F12085   1.061   4.421   9.187 -0.1999  0.1048 -0.3748
  115OSM   H12G12086   1.051   4.243   9.169  3.3813 -2.0970 -1.6553
  115OSM   C13F12087   1.228   4.329   9.088  0.5121  0.4531 -0.4946
  115OSM   H13F12088   1.301   4.250   9.116  4.0469  3.2655 -1.1174
  115OSM   H13G12089   1.273   4.429   9.104  0.7234  0.2913 -0.0495
  115OSM   C14F12090   1.194   4.293   8.942  0.7205 -0.7515 -0.5625
  115OSM   H14F12091   1.096   4.345   8.925  0.3799 -0.4291  2.0070
  115OSM   H14G12092   1.178   4.185   8.926 -0.0276 -0.7021 -0.1954
  115OSM   C15F12093   1.295   4.340   8.838  0.4300 -0.0410  0.1480
  115OSM   H15F12094   1.396   4.297   8.855  1.8607  2.0412 -2.3496
  115OSM   H15G12095   1.320   4.448   8.839 -0.7991  0.2553  0.1182
  115OSM   C16F12096   1.241   4.310   8.702  0.3624  0.2446 -0.2114
  115OSM   H16F12097   1.142   4.357   8.686 -0.0103  0.4378  2.2553
  115OSM   H16G12098   1.215   4.201   8.701 -1.5729  0.6665 -1.7773
  115OSM   C17F12099   1.333   4.347   8.584  0.1288 -0.1390 -0.0992
  115OSM   H17F12100   1.439   4.324   8.608 -0.2740 -0.3009  1.6752
  115OSM   H17G12101   1.342   4.457   8.588  1.6579 -0.2236 -0.4470
  115OSM   C18F12102   1.296   4.292   8.445  0.0375  0.6179 -0.1296
  115OSM   H18F12103   1.362   4.340   8.369  1.0115 -0.0633  0.2700
  115OSM   H18G12104   1.192   4.323   8.421  0.0606  0.2085 -0.7889
  115OSM   H18H12105   1.306   4.181   8.440 -1.6406  0.3535  1.3624
  116OSM      N12106   4.670   2.099  11.066 -0.2489 -0.0753 -0.3801
  116OSM    C1512107   4.702   1.965  11.120 -0.0028  0.5485  0.2711
  116OSM   H15A12108   4.732   1.896  11.042  0.4453 -0.7277  1.5293
  116OSM   H15B12109   4.609   1.922  11.155  0.6226  0.8001  2.4007
  116OSM   H15C12110   4.769   1.958  11.204 -1.0839 -0.1405  1.0982
  116OSM    C1412111   4.598   2.182  11.173 -0.0810  0.0847  0.4054
  116OSM   H14A12112   4.658   2.214  11.257 -1.1583  2.4231  0.3664
  116OSM   H14B12113   4.515   2.127  11.212  0.4021 -0.6456  0.4168
  116OSM   H14C12114   4.567   2.279  11.136  2.0850  0.4019 -0.7801
  116OSM    C1312115   4.792   2.165  11.021 -0.3141  0.4057 -0.0581
  116OSM   H13A12116   4.822   2.103  10.938  0.0811 -2.4758  2.1038
  116OSM   H13B12117   4.868   2.167  11.097 -0.9670 -0.3279  0.6257
  116OSM   H13C12118   4.781   2.267  10.987 -0.0249  1.0078  1.5593
  116OSM    C1212119   4.569   2.082  10.947 -0.3875  0.2462  0.0781
  116OSM   H12A12120   4.623   2.058  10.857 -0.1944  2.0853 -0.3291
  116OSM   H12B12121   4.532   2.179  10.919  2.2051  0.9673 -1.1506
  116OSM    C1112122   4.442   1.993  10.986 -0.9084 -0.7185  0.1611
  116OSM   H11A12123   4.373   2.034  10.909  1.4283  2.0636 -0.6582
  116OSM   H11B12124   4.399   2.008  11.087 -2.4976  0.5863 -0.6584
  116OSM      P12125   4.360   1.750  10.971 -0.2227  0.5112  0.1965
  116OSM    O1312126   4.403   1.631  10.896 -0.4028 -0.2333 -0.4264
  116OSM    O1412127   4.315   1.736  11.111 -0.0756  0.0641 -0.0413
  116OSM    O1112128   4.244   1.819  10.889 -0.1837  0.0517  0.0728
  116OSM    O1212129   4.469   1.856  10.966 -0.2158  0.7300 -0.4465
  116OSM    C1S12130   4.254   1.827  10.745 -0.7522 -0.0631 -0.5355
  116OSM    H1S12131   4.228   1.730  10.697  1.0812 -1.0753  0.3908
  116OSM    H1T12132   4.353   1.865  10.712 -1.3178 -0.1556 -2.4313
  116OSM     NF12133   4.175   1.955  10.538  0.5433 -0.1781  0.4866
  116OSM    HNF12134   4.227   2.035  10.508  0.9153 -1.0244 -1.2552
  116OSM    C2S12135   4.160   1.931  10.683  0.1095 -0.5233  0.4748
  116OSM    H2S12136   4.052   1.905  10.692  0.0424  0.1886  2.0138
  116OSM    C3S12137   4.148   2.067  10.770  0.3685 -0.1607  0.6486
  116OSM    H3S12138   4.248   2.115  10.760  1.6569 -2.9184 -0.8781
  116OSM     O312139   4.096   2.061  10.901 -0.2301 -0.2232  0.0800
  116OSM    HO312140   4.089   1.967  10.918 -4.0528  0.1421  1.5942
  116OSM    C4S12141   4.052   2.157  10.692  0.5352 -0.2336  0.7230
  116OSM    H4S12142   4.107   2.222  10.622 -0.9490  2.1539  1.6269
  116OSM    C5S12143   3.916   2.158  10.705  0.0248  0.1955  0.5226
  116OSM    H5S12144   3.859   2.090  10.769  0.7438 -0.9502 -0.0232
  116OSM    C6S12145   3.827   2.245  10.626  0.2822 -0.7926  0.0596
  116OSM    H6S12146   3.874   2.337  10.585 -0.0275 -1.1887 -1.2336
  116OSM    H6T12147   3.749   2.267  10.701  0.0467  0.0825 -0.4298
  116OSM    C7S12148   3.765   2.170  10.507 -0.2382 -0.1717 -0.2617
  116OSM    H7S12149   3.701   2.240  10.449  2.1779  1.2525 -1.3830
  116OSM    H7T12150   3.704   2.086  10.547 -0.5311  1.0747  2.1264
  116OSM    C8S12151   3.867   2.120  10.400  0.1653 -0.1310 -0.1536
  116OSM    H8S12152   3.938   2.048  10.447 -1.8876 -0.9582  1.8353
  116OSM    H8T12153   3.920   2.212  10.366  1.0905  0.9133  3.6933
  116OSM    C9S12154   3.793   2.051  10.278 -0.9963  0.1052 -0.6502
  116OSM    H9S12155   3.869   2.064  10.198  1.0684  0.1206  1.2221
  116OSM    H9T12156   3.696   2.101  10.255 -2.7811 -1.6282  2.3816
  116OSM   C10S12157   3.784   1.903  10.308  0.3905 -0.3822 -0.1193
  116OSM   H10S12158   3.722   1.891  10.400  0.6319 -0.6381  0.0150
  116OSM   H10T12159   3.888   1.872  10.334  2.0351  5.2262  1.4380
  116OSM   C11S12160   3.702   1.837  10.198  0.1241  0.3558 -0.6703
  116OSM   H11S12161   3.612   1.900  10.179 -0.5240  0.2966  1.8524
  116OSM   H11T12162   3.662   1.741  10.237 -0.4626  0.2784 -1.4505
  116OSM   C12S12163   3.786   1.814  10.075 -0.4031 -0.0697 -0.3584
  116OSM   H12S12164   3.860   1.734  10.099 -2.3432 -1.5771  1.0064
  116OSM   H12T12165   3.840   1.904  10.039  1.4834 -0.2949  1.6283
  116OSM   C13S12166   3.698   1.756   9.964 -0.4508 -0.0793  0.3426
  116OSM   H13S12167   3.610   1.822   9.949  0.3703  1.0056  0.1896
  116OSM   H13T12168   3.657   1.658   9.996 -2.6042  0.8701  0.6540
  116OSM   C14S12169   3.767   1.731   9.824 -0.0807  0.4013 -0.2324
  116OSM   H14S12170   3.682   1.683   9.771 -0.3326 -0.7975  1.1884
  116OSM   H14T12171   3.849   1.657   9.839  0.0879  0.9223  1.5409
  116OSM   C15S12172   3.824   1.853   9.757 -0.3274  0.1514  0.8227
  116OSM   H15S12173   3.930   1.865   9.787  0.2266  1.5958 -1.3959
  116OSM   H15T12174   3.771   1.943   9.796  1.8645  1.3985  1.1050
  116OSM   C16S12175   3.811   1.863   9.604 -0.1519  0.3566 -0.0910
  116OSM   H16S12176   3.851   1.953   9.554  1.5324 -0.2829  0.0424
  116OSM   H16T12177   3.702   1.878   9.586  0.0013  0.7014 -0.7633
  116OSM   C17S12178   3.875   1.740   9.541 -0.6430 -0.3787 -0.0053
  116OSM   H17S12179   3.830   1.645   9.576  0.4473 -0.9669 -0.1504
  116OSM   H17T12180   3.982   1.743   9.571  0.0652  0.9002 -2.4183
  116OSM   C18S12181   3.873   1.734   9.386 -0.2384 -0.5517  0.4464
  116OSM   H18S12182   3.937   1.810   9.335 -1.5830 -0.6091 -1.4157
  116OSM   H18T12183   3.768   1.731   9.351 -0.7699 -3.6070  1.9924
  116OSM   H18U12184   3.914   1.636   9.355  0.5837 -0.5295  1.4120
  116OSM    C1F12185   4.167   1.862  10.442  0.3328  0.3378 -0.1857
  116OSM     OF12186   4.150   1.746  10.476 -0.0174  0.4774  0.1344
  116OSM    C2F12187   4.183   1.906  10.297  0.6302 -0.5813 -0.3405
  116OSM    H2F12188   4.288   1.940  10.287  0.3767  0.9820  1.6865
  116OSM    H2G12189   4.115   1.989  10.266  2.3445  0.6950 -0.8080
  116OSM    C3F12190   4.156   1.788  10.196  0.6210 -0.3230  0.6339
  116OSM    H3F12191   4.052   1.749  10.207  1.4815 -2.4560  1.8585
  116OSM    H3G12192   4.218   1.703  10.231  1.7907  1.0983  2.1816
  116OSM    C4F12193   4.175   1.822  10.045  0.6060 -0.0783  0.2047
  116OSM    H4F12194   4.151   1.927  10.019 -1.1647 -0.1709  1.2984
  116OSM    H4G12195   4.113   1.760   9.977  2.0067 -0.3509 -0.8677
  116OSM    C5F12196   4.323   1.799  10.000 -0.2988  0.0304 -0.2470
  116OSM    H5F12197   4.341   1.693   9.973 -0.3676 -0.2811  0.8520
  116OSM    H5G12198   4.384   1.835  10.086  0.4405  0.6554 -1.0130
  116OSM    C6F12199   4.350   1.883   9.876  0.2915  0.3101  0.6218
  116OSM    H6F12200   4.453   1.867   9.837 -0.7246 -2.4478 -1.2254
  116OSM    H6G12201   4.350   1.988   9.911 -0.4450 -0.5689  3.5991
  116OSM    C7F12202   4.248   1.851   9.761  0.6747 -0.6278  0.5561
  116OSM    H7F12203   4.146   1.872   9.802  0.3551 -0.5510 -0.2581
  116OSM    H7G12204   4.251   1.746   9.724 -1.9270 -1.0064  1.1654
  116OSM    C8F12205   4.259   1.957   9.649  0.4141 -0.3752  0.4867
  116OSM    H8F12206   4.368   1.966   9.625 -0.1480  1.1713 -1.9559
  116OSM    H8G12207   4.242   2.054   9.700  2.3509 -1.0095  2.4822
  116OSM    C9F12208   4.172   1.934   9.525 -0.3170 -0.2673 -0.3382
  116OSM    H9F12209   4.175   1.831   9.486 -1.6269 -0.2975 -0.4092
  116OSM   C10F12210   4.108   2.013   9.444  0.5867  0.1028  0.1259
  116OSM   H10F12211   4.042   1.957   9.376 -0.0483 -0.8227  1.4622
  116OSM   C11F12212   4.098   2.167   9.446  0.8332 -0.2841 -0.6114
  116OSM   H11F12213   4.201   2.207   9.449  1.1908 -1.1741  2.6169
  116OSM   H11G12214   4.040   2.201   9.535  2.8190  0.3452  0.5129
  116OSM   C12F12215   4.034   2.222   9.323 -0.2795 -0.3928  0.4696
  116OSM   H12F12216   4.016   2.331   9.319  2.2458  0.0434 -2.5589
  116OSM   H12G12217   3.937   2.176   9.294 -0.4129  0.3788 -0.3655
  116OSM   C13F12218   4.119   2.214   9.195  0.4529  0.7963  0.0189
  116OSM   H13F12219   4.133   2.107   9.169  0.0955  0.7890 -0.1544
  116OSM   H13G12220   4.220   2.258   9.209  0.7967 -0.3798  1.4180
  116OSM   C14F12221   4.067   2.292   9.072  0.0896  0.2662 -0.9454
  116OSM   H14F12222   4.153   2.302   9.003 -0.4651  3.0776 -1.3386
  116OSM   H14G12223   4.042   2.397   9.100  1.6810  0.2221  0.8901
  116OSM   C15F12224   3.959   2.224   8.992  1.0172 -0.5582  0.0757
  116OSM   H15F12225   3.904   2.301   8.934  0.0792 -0.6641  0.7831
  116OSM   H15G12226   3.885   2.169   9.055 -0.8844  0.8875 -0.7992
  116OSM   C16F12227   4.013   2.116   8.896  0.2829 -0.7103  0.4415
  116OSM   H16F12228   4.083   2.041   8.939  1.6893  1.3814  2.0262
  116OSM   H16G12229   4.072   2.176   8.823  1.5692  0.4926  2.3830
  116OSM   C17F12230   3.904   2.026   8.841 -0.4967 -0.0385 -0.5314
  116OSM   H17F12231   3.858   1.976   8.928 -1.7555 -0.4605 -1.4145
  116OSM   H17G12232   3.956   1.942   8.789  0.8018  0.4281 -0.0400
  116OSM   C18F12233   3.805   2.097   8.752  0.1679 -0.1124  0.5489
  116OSM   H18F12234   3.844   2.163   8.672 -1.6247 -1.4110 -1.4971
  116OSM   H18G12235   3.739   2.167   8.808  0.0660 -0.0543  0.3553
  116OSM   H18H12236   3.748   2.017   8.699  0.9886  0.0639 -0.6511
  117OSM      N12237   6.579   2.288  11.139  0.0071 -0.1233  0.9048
  117OSM    C1512238   6.669   2.257  11.255  1.1188 -0.9777  0.0619
  117OSM   H15A12239   6.772   2.278  11.230  0.3964  2.2576 -0.7460
  117OSM   H15B12240   6.660   2.154  11.285  0.2032 -0.7911  0.4699
  117OSM   H15C12241   6.644   2.317  11.342  0.6484 -1.5542  0.3329
  117OSM    C1412242   6.438   2.259  11.181  0.4949 -0.0553 -0.0019
  117OSM   H14A12243   6.395   2.330  11.249  0.1066  0.2244 -0.5311
  117OSM   H14B12244   6.433   2.160  11.223 -0.3488  0.1712  0.4445
  117OSM   H14C12245   6.375   2.269  11.094 -0.9742  1.6913  1.1935
  117OSM    C1312246   6.590   2.427  11.101  0.6026  0.3218 -0.1234
  117OSM   H13A12247   6.569   2.492  11.185 -1.2764  0.1797 -0.4360
  117OSM   H13B12248   6.523   2.456  11.021  2.7100  1.5312 -1.5358
  117OSM   H13C12249   6.689   2.443  11.061  1.2212  0.8791  1.5497
  117OSM    C1212250   6.605   2.195  11.017  0.6119 -0.0113 -0.7477
  117OSM   H12A12251   6.529   2.215  10.943 -1.7412 -1.3031  1.1686
  117OSM   H12B12252   6.588   2.091  11.043  3.4220 -0.5510 -0.7333
  117OSM    C1112253   6.747   2.201  10.961  0.3009 -0.3165  0.9255
  117OSM   H11A12254   6.752   2.124  10.881  3.2569  0.7641 -0.0743
  117OSM   H11B12255   6.809   2.157  11.042 -1.2698 -1.6245  1.4876
  117OSM      P12256   6.940   2.363  10.918 -0.0276  0.4866 -0.1407
  117OSM    O1312257   6.975   2.492  10.857 -0.4408 -0.5121 -0.0613
  117OSM    O1412258   6.971   2.349  11.060 -0.3948  0.1625  0.0484
  117OSM    O1112259   7.004   2.246  10.838 -0.2640 -0.1907  0.8884
  117OSM    O1212260   6.793   2.328  10.908 -0.6004 -0.5246  0.1722
  117OSM    C1S12261   6.961   2.213  10.697  0.6605  0.2928 -0.7821
  117OSM    H1S12262   6.863   2.258  10.671 -0.6716 -0.7895  1.9073
  117OSM    H1T12263   6.944   2.103  10.698  0.6949  0.2864  0.4891
  117OSM     NF12264   7.002   2.253  10.443 -0.2044  0.0322 -0.4945
  117OSM    HNF12265   7.055   2.207  10.373  0.5793  0.3908 -0.1521
  117OSM    C2S12266   7.061   2.259  10.584 -0.1010  0.4736 -0.0282
  117OSM    H2S12267   7.085   2.366  10.600  0.2929  0.4335 -0.3161
  117OSM    C3S12268   7.194   2.185  10.598  0.3244 -0.4281  0.2608
  117OSM    H3S12269   7.184   2.074  10.588 -0.5949 -0.5500  2.1143
  117OSM     O312270   7.242   2.191  10.732  0.4213  0.8554 -0.0965
  117OSM    HO312271   7.168   2.227  10.781  0.4590  1.1101 -0.2204
  117OSM    C4S12272   7.295   2.247  10.503 -0.0507  0.5568 -0.4875
  117OSM    H4S12273   7.336   2.342  10.540 -1.3963 -0.0595  2.9228
  117OSM    C5S12274   7.354   2.187  10.400 -0.3068  0.2439  0.0393
  117OSM    H5S12275   7.328   2.083  10.375  0.0008 -0.4713  2.3828
  117OSM    C6S12276   7.451   2.260  10.309 -0.0981 -0.1435 -0.1533
  117OSM    H6S12277   7.548   2.207  10.322  0.5253  1.3913  2.2244
  117OSM    H6T12278   7.466   2.362  10.351 -1.2372  0.2540 -0.6827
  117OSM    C7S12279   7.408   2.273  10.162 -0.5312 -0.3573  0.0542
  117OSM    H7S12280   7.404   2.179  10.103  2.5153 -0.9423  0.6467
  117OSM    H7T12281   7.475   2.351  10.121 -0.9853  0.3705  0.6606
  117OSM    C8S12282   7.266   2.328  10.142 -0.3704  0.0872 -0.3530
  117OSM    H8S12283   7.279   2.436  10.166  0.1685  0.1551 -0.9299
  117OSM    H8T12284   7.192   2.288  10.215  1.6937 -2.4818  0.5234
  117OSM    C9S12285   7.227   2.306  10.002  1.5795 -0.6532  0.3209
  117OSM    H9S12286   7.193   2.203   9.978 -0.9108 -0.2688  1.8516
  117OSM    H9T12287   7.298   2.332   9.921 -0.7233 -3.1889 -2.8355
  117OSM   C10S12288   7.105   2.391   9.977  0.0519  0.1606  0.4957
  117OSM   H10S12289   7.104   2.487  10.033  0.2735  1.1213 -1.0838
  117OSM   H10T12290   7.020   2.336  10.022  2.5385 -3.0002  1.6705
  117OSM   C11S12291   7.084   2.411   9.820  0.4341  0.4677 -0.3207
  117OSM   H11S12292   7.175   2.455   9.774  0.1743  1.6505  0.2482
  117OSM   H11T12293   6.995   2.477   9.810 -1.1849 -1.4117  0.9736
  117OSM   C12S12294   7.048   2.283   9.746 -0.3998  0.2282 -0.7009
  117OSM   H12S12295   6.946   2.243   9.767  0.2290 -2.0794 -1.8044
  117OSM   H12T12296   7.117   2.204   9.780  1.3352  2.9198  2.6367
  117OSM   C13S12297   7.070   2.292   9.592  0.1079 -0.5953  0.7480
  117OSM   H13S12298   7.164   2.329   9.545  1.7841 -3.2503  1.7384
  117OSM   H13T12299   6.988   2.349   9.545  0.0237 -0.4074  1.1131
  117OSM   C14S12300   7.057   2.148   9.541 -0.2968 -0.1729  1.2455
  117OSM   H14S12301   6.951   2.125   9.564 -0.3421 -0.6853  0.5690
  117OSM   H14T12302   7.133   2.083   9.591 -0.6637 -2.1045 -0.5469
  117OSM   C15S12303   7.087   2.140   9.395 -0.0621 -0.6408  0.0133
  117OSM   H15S12304   7.196   2.148   9.375 -0.0927  0.8970  0.2735
  117OSM   H15T12305   7.034   2.227   9.350  0.5989 -1.2484 -2.0864
  117OSM   C16S12306   7.027   2.025   9.319  0.7437  0.4483  0.2136
  117OSM   H16S12307   6.919   2.013   9.338  0.3916  2.7925  0.0161
  117OSM   H16T12308   7.082   1.937   9.359 -2.4940 -2.3415 -1.0165
  117OSM   C17S12309   7.052   2.027   9.165 -0.0011 -0.3298 -0.0962
  117OSM   H17S12310   7.154   1.991   9.142 -0.1987 -0.5941 -0.5675
  117OSM   H17T12311   7.048   2.135   9.140 -1.1193  0.2113  2.1756
  117OSM   C18S12312   6.944   1.958   9.078 -0.6235  0.1827 -0.3312
  117OSM   H18S12313   6.856   2.021   9.054 -2.0235 -2.5604 -3.1137
  117OSM   H18T12314   6.908   1.861   9.118 -0.0598  0.3819  0.6899
  117OSM   H18U12315   6.991   1.946   8.978  1.4599  0.2883  0.5798
  117OSM    C1F12316   6.895   2.327  10.406  0.0725 -0.0082 -0.5496
  117OSM     OF12317   6.838   2.410  10.481 -0.1776  0.0122  0.2447
  117OSM    C2F12318   6.828   2.298  10.277 -0.2244 -0.1052 -0.3664
  117OSM    H2F12319   6.747   2.224  10.294  0.2590 -0.4017  0.6955
  117OSM    H2G12320   6.902   2.232  10.226  0.7862 -0.7290  1.8074
  117OSM    C3F12321   6.758   2.411  10.187  0.2779  0.0203 -0.2248
  117OSM    H3F12322   6.836   2.480  10.148  1.0792 -1.5498 -1.5279
  117OSM    H3G12323   6.686   2.471  10.246 -0.4049 -1.3684  0.3958
  117OSM    C4F12324   6.691   2.350  10.059  0.4544 -0.0391  0.4926
  117OSM    H4F12325   6.592   2.308  10.087  0.3146 -0.9318 -1.2367
  117OSM    H4G12326   6.761   2.269  10.028  0.8441  0.2869  0.5068
  117OSM    C5F12327   6.685   2.454   9.951  0.0254  0.3814  0.5728
  117OSM    H5F12328   6.784   2.499   9.929  0.1590 -0.6360 -1.1122
  117OSM    H5G12329   6.626   2.531  10.004 -1.1108 -1.4411  2.0698
  117OSM    C6F12330   6.597   2.407   9.830 -0.5727 -0.6411  0.6735
  117OSM    H6F12331   6.490   2.390   9.853 -0.9548  0.5241 -0.1350
  117OSM    H6G12332   6.640   2.312   9.791 -1.4897 -0.4151 -0.9867
  117OSM    C7F12333   6.598   2.509   9.717 -0.1385  0.0217  0.0493
  117OSM    H7F12334   6.701   2.537   9.686 -0.2608  1.1976  0.6376
  117OSM    H7G12335   6.554   2.608   9.744  0.5365  0.3045  0.1525
  117OSM    C8F12336   6.534   2.456   9.584  0.4142 -0.0550 -0.5333
  117OSM    H8F12337   6.432   2.425   9.613  0.1224  2.9075  2.2982
  117OSM    H8G12338   6.594   2.368   9.552  1.0359  0.2597 -0.2730
  117OSM    C9F12339   6.525   2.553   9.473 -0.2091 -0.7828 -0.4134
  117OSM    H9F12340   6.429   2.607   9.477 -0.6795 -1.5385 -1.1187
  117OSM   C10F12341   6.616   2.587   9.380 -1.3226 -0.3113 -0.0917
  117OSM   H10F12342   6.598   2.672   9.312  1.8710  1.9672  1.6817
  117OSM   C11F12343   6.751   2.537   9.353 -0.4741 -0.2136  0.4377
  117OSM   H11F12344   6.781   2.461   9.429  1.2215  0.1027  0.1374
  117OSM   H11G12345   6.816   2.626   9.369  1.2884 -1.5645  1.0631
  117OSM   C12F12346   6.794   2.492   9.215  0.3704  0.3511 -0.0995
  117OSM   H12F12347   6.762   2.386   9.210  1.0755  0.1001  0.5673
  117OSM   H12G12348   6.904   2.501   9.198  0.7901 -2.6047  0.5397
  117OSM   C13F12349   6.737   2.580   9.102 -0.2529 -0.0513 -0.1249
  117OSM   H13F12350   6.787   2.675   9.129 -3.1865  1.4361  0.4045
  117OSM   H13G12351   6.628   2.596   9.110 -0.1680  1.6779 -1.7892
  117OSM   C14F12352   6.778   2.539   8.956 -0.8171 -0.3348  0.0488
  117OSM   H14F12353   6.729   2.618   8.895 -1.5918 -0.5301  0.4076
  117OSM   H14G12354   6.729   2.442   8.931 -1.7209  0.0124  0.4540
  117OSM   C15F12355   6.928   2.537   8.934 -0.0514  0.5091  0.7838
  117OSM   H15F12356   6.990   2.461   8.986 -0.3502 -0.2332  0.0690
  117OSM   H15G12357   6.972   2.636   8.960  0.8870 -0.1875  1.9556
  117OSM   C16F12358   6.966   2.511   8.782 -0.4883  0.1120 -0.6670
  117OSM   H16F12359   6.881   2.518   8.711  1.4266  3.9032 -2.9080
  117OSM   H16G12360   7.019   2.414   8.768  2.9068  1.9356 -1.5017
  117OSM   C17F12361   7.076   2.604   8.726  0.4428 -0.0774 -1.2336
  117OSM   H17F12362   7.160   2.613   8.798 -1.7055  1.9757  1.2472
  117OSM   H17G12363   7.028   2.704   8.735 -1.0082 -0.6906 -1.8616
  117OSM   C18F12364   7.127   2.573   8.584  0.3042 -0.3549 -0.2677
  117OSM   H18F12365   7.042   2.591   8.514 -1.3526 -0.7752  1.5353
  117OSM   H18G12366   7.156   2.466   8.575  2.0712  0.0323  0.4918
  117OSM   H18H12367   7.217   2.632   8.558  0.5494 -0.0191  1.2166
  118OSM      N12368   6.569   4.097  11.041 -0.0569 -0.8160  0.6864
  118OSM    C1512369   6.637   4.035  11.157 -0.4175 -0.2097 -0.3366
  118OSM   H15A12370   6.732   3.996  11.123 -0.7370 -1.9358  0.6117
  118OSM   H15B12371   6.577   3.958  11.204  1.0698 -0.5962  1.0258
  118OSM   H15C12372   6.663   4.100  11.239 -0.4614 -1.9418  1.1391
  118OSM    C1412373   6.534   3.991  10.939  0.4838  0.2104 -0.2651
  118OSM   H14A12374   6.472   4.044  10.868 -0.5873 -0.5470  0.0674
  118OSM   H14B12375   6.483   3.911  10.992 -2.3220  1.7421 -0.4728
  118OSM   H14C12376   6.624   3.951  10.894  0.8944  0.7150  0.0971
  118OSM    C1312377   6.448   4.166  11.095 -0.5210 -0.3466  0.6643
  118OSM   H13A12378   6.463   4.252  11.159 -1.0044 -0.1648  0.5360
  118OSM   H13B12379   6.385   4.109  11.161  0.8883 -0.4426  1.9864
  118OSM   H13C12380   6.378   4.188  11.016 -1.1593 -1.0201  1.0307
  118OSM    C1212381   6.661   4.195  10.970 -0.2505  0.5668 -0.5789
  118OSM   H12A12382   6.698   4.265  11.044  1.1988  0.0871 -0.8219
  118OSM   H12B12383   6.609   4.255  10.896 -0.5982  3.7596  2.0177
  118OSM    C1112384   6.778   4.133  10.889  0.1130  0.0165  0.5090
  118OSM   H11A12385   6.832   4.220  10.845  2.8327 -1.2661  1.1226
  118OSM   H11B12386   6.733   4.092  10.797  1.0869  1.0479 -0.4674
  118OSM      P12387   6.957   3.935  10.928 -0.2249 -0.1113 -0.0250
  118OSM    O1312388   7.018   3.862  11.044 -0.3911  0.1894  0.4310
  118OSM    O1412389   6.884   3.844  10.832  0.4746  0.2000 -0.9048
  118OSM    O1112390   7.078   4.019  10.860 -0.2439 -0.1489  0.3107
  118OSM    O1212391   6.861   4.053  10.975  0.4653  0.5006  0.6070
  118OSM    C1S12392   7.148   3.997  10.739  0.5637 -0.0521 -0.3869
  118OSM    H1S12393   7.155   3.888  10.718 -0.2113 -0.0172 -0.8516
  118OSM    H1T12394   7.256   4.024  10.750  0.2838  0.8195  0.3557
  118OSM     NF12395   7.144   4.025  10.494  0.6097 -0.3110 -0.3828
  118OSM    HNF12396   7.229   4.076  10.482  1.4929 -1.4954  0.5100
  118OSM    C2S12397   7.086   4.077  10.621  0.3917  0.8285  0.4095
  118OSM    H2S12398   6.976   4.058  10.622  0.3163  1.2464  1.5712
  118OSM    C3S12399   7.108   4.229  10.641 -0.2158 -0.2003  0.0903
  118OSM    H3S12400   7.218   4.246  10.636  0.0741 -1.9767 -0.5617
  118OSM     O312401   7.069   4.278  10.768  0.4793  0.7139  0.0322
  118OSM    HO312402   7.036   4.200  10.812  1.4261  0.1917 -0.1614
  118OSM    C4S12403   7.042   4.307  10.527  0.2158 -0.0205  0.2018
  118OSM    H4S12404   6.934   4.292  10.513  0.5634 -1.0736 -1.6301
  118OSM    C5S12405   7.099   4.398  10.456 -0.1238 -0.3647 -0.1589
  118OSM    H5S12406   7.204   4.421  10.477 -0.1831 -0.0385 -0.2074
  118OSM    C6S12407   7.032   4.482  10.349 -1.3080 -0.4106  0.5591
  118OSM    H6S12408   7.038   4.591  10.369  2.3289  0.0352 -2.0435
  118OSM    H6T12409   6.923   4.462  10.346 -1.5098  0.6144 -1.3108
  118OSM    C7S12410   7.092   4.473  10.210  0.5488  0.5236 -0.5137
  118OSM    H7S12411   7.092   4.367  10.176  1.1354  0.4821 -0.3978
  118OSM    H7T12412   7.196   4.512  10.218 -0.1307  2.3515 -0.0573
  118OSM    C8S12413   7.024   4.559  10.097  0.0712  0.1737  0.3909
  118OSM    H8S12414   7.041   4.667  10.118  0.2287 -0.0181  1.2941
  118OSM    H8T12415   6.914   4.548  10.104 -0.1274  0.3772 -1.7482
  118OSM    C9S12416   7.080   4.524   9.957  0.2963  0.7528  0.3344
  118OSM    H9S12417   7.075   4.416   9.934  0.8751  1.1031 -1.6375
  118OSM    H9T12418   7.186   4.551   9.977 -0.0830  2.8327 -0.2244
  118OSM   C10S12419   7.036   4.603   9.835  0.0160 -0.5459  0.1944
  118OSM   H10S12420   7.037   4.710   9.864  0.1088 -0.7060  0.7939
  118OSM   H10T12421   6.938   4.555   9.817 -1.2131  1.4756  1.1227
  118OSM   C11S12422   7.122   4.582   9.715  0.1217  0.4471  0.2660
  118OSM   H11S12423   7.148   4.474   9.713  1.9639  0.8530  0.0175
  118OSM   H11T12424   7.218   4.638   9.721 -0.5553  1.7334 -0.4695
  118OSM   C12S12425   7.062   4.632   9.587  0.3635  0.0126 -0.6201
  118OSM   H12S12426   7.033   4.738   9.601 -0.0575 -0.0909 -0.6878
  118OSM   H12T12427   6.970   4.572   9.566 -0.1452  1.4993 -3.0803
  118OSM   C13S12428   7.162   4.617   9.468  0.4064  0.6825 -0.1207
  118OSM   H13S12429   7.206   4.516   9.481 -0.5836 -0.4249 -3.9465
  118OSM   H13T12430   7.234   4.700   9.481 -1.4045  2.0888  1.4301
  118OSM   C14S12431   7.104   4.615   9.325 -0.2423  0.7267 -0.3704
  118OSM   H14S12432   7.192   4.621   9.257 -0.1861 -1.8687 -0.6306
  118OSM   H14T12433   7.054   4.713   9.313  0.8483  1.2045 -1.1464
  118OSM   C15S12434   7.031   4.488   9.291  0.0606 -0.1157  0.1357
  118OSM   H15S12435   6.962   4.463   9.375  2.2996  0.4356  2.2388
  118OSM   H15T12436   7.103   4.404   9.281 -1.0698 -0.9292 -1.8583
  118OSM   C16S12437   6.965   4.490   9.152 -0.1493 -0.2873  0.5596
  118OSM   H16S12438   6.913   4.585   9.130  0.2358 -0.5162 -1.5088
  118OSM   H16T12439   6.893   4.405   9.151 -2.5163  1.5719 -2.4696
  118OSM   C17S12440   7.057   4.471   9.028  0.7604 -0.0379  0.1556
  118OSM   H17S12441   7.122   4.384   9.051 -0.2764 -0.8656  0.0476
  118OSM   H17T12442   7.114   4.565   9.019 -0.2488  0.7553  1.5745
  118OSM   C18S12443   6.984   4.442   8.888 -0.9156 -0.0419 -0.7925
  118OSM   H18S12444   6.900   4.515   8.880  0.7533  2.0772 -0.0483
  118OSM   H18T12445   6.934   4.343   8.890 -1.4023  0.2073 -0.3845
  118OSM   H18U12446   7.046   4.469   8.799 -0.7401 -0.8801 -0.9299
  118OSM    C1F12447   7.138   3.897  10.449  0.3161 -0.2097 -0.4198
  118OSM     OF12448   7.050   3.823  10.490 -0.2946  0.6721  0.8161
  118OSM    C2F12449   7.247   3.852  10.354  0.5499  0.2026 -0.4711
  118OSM    H2F12450   7.229   3.742  10.346  0.5680  0.2956 -2.1765
  118OSM    H2G12451   7.339   3.873  10.411 -1.5080  0.9428  2.8475
  118OSM    C3F12452   7.248   3.908  10.205 -0.8763 -0.4254 -0.2709
  118OSM    H3F12453   7.152   3.884  10.155 -0.3592 -1.3376 -0.8656
  118OSM    H3G12454   7.331   3.850  10.158 -2.0282 -1.8748 -0.5651
  118OSM    C4F12455   7.287   4.055  10.193  0.2964 -0.4034 -0.3576
  118OSM    H4F12456   7.393   4.072  10.222  0.1249  1.1564 -0.5727
  118OSM    H4G12457   7.214   4.104  10.261 -0.2974  0.7764 -1.8042
  118OSM    C5F12458   7.254   4.118  10.060 -0.3663 -0.1265  0.4509
  118OSM    H5F12459   7.288   4.224  10.065 -1.1241  0.1730 -0.4030
  118OSM    H5G12460   7.146   4.123  10.034 -0.1199  0.4239 -0.5123
  118OSM    C6F12461   7.310   4.048   9.932  0.4284 -0.8802  0.0843
  118OSM    H6F12462   7.280   3.942   9.917 -0.8093 -0.3697 -1.3280
  118OSM    H6G12463   7.421   4.042   9.925  0.5071  1.0666 -1.0845
  118OSM    C7F12464   7.254   4.143   9.815  0.0436 -0.6902  0.0042
  118OSM    H7F12465   7.295   4.243   9.841  0.1484 -0.2786 -1.6710
  118OSM    H7G12466   7.144   4.153   9.821  0.0685  1.3879 -1.8040
  118OSM    C8F12467   7.297   4.094   9.681 -0.7624 -0.0536 -0.9389
  118OSM    H8F12468   7.235   4.004   9.663 -2.7163  0.7309  1.2791
  118OSM    H8G12469   7.407   4.081   9.672 -0.7013  0.8570 -1.8203
  118OSM    C9F12470   7.276   4.197   9.572  0.1676  0.3084  1.1633
  118OSM    H9F12471   7.289   4.299   9.610  1.5894  0.4848  0.2667
  118OSM   C10F12472   7.242   4.178   9.443 -0.2099  0.3784 -0.4925
  118OSM   H10F12473   7.242   4.266   9.376  0.8224 -0.9772 -2.3564
  118OSM   C11F12474   7.223   4.045   9.376 -0.3070 -0.0623 -0.3691
  118OSM   H11F12475   7.129   3.994   9.406 -0.1490 -0.6836 -0.8793
  118OSM   H11G12476   7.311   3.982   9.400 -0.0560 -0.0509 -1.2091
  118OSM   C12F12477   7.217   4.066   9.219  0.6995  0.4666  0.1254
  118OSM   H12F12478   7.290   4.137   9.176  2.3047 -0.8324  0.6002
  118OSM   H12G12479   7.120   4.120   9.209 -0.1813 -0.7930  1.4106
  118OSM   C13F12480   7.194   3.942   9.117  0.6331 -0.4591 -0.5257
  118OSM   H13F12481   7.087   3.913   9.116  0.4440  0.2032 -0.3823
  118OSM   H13G12482   7.268   3.867   9.154  0.3382 -0.3331  0.3368
  118OSM   C14F12483   7.228   3.973   8.970 -0.2750  0.1644 -0.0163
  118OSM   H14F12484   7.335   4.001   8.963 -0.3993  0.3012 -2.0474
  118OSM   H14G12485   7.179   4.068   8.941 -0.4580  0.4840  1.2745
  118OSM   C15F12486   7.199   3.843   8.893  0.8916 -0.1629  0.2030
  118OSM   H15F12487   7.098   3.849   8.846  0.8005 -0.4201  0.3638
  118OSM   H15G12488   7.193   3.754   8.959 -2.3333  1.0697  1.8307
  118OSM   C16F12489   7.291   3.811   8.779 -0.1244  0.0967  0.1680
  118OSM   H16F12490   7.278   3.705   8.747 -0.0130  0.2707 -0.4774
  118OSM   H16G12491   7.399   3.822   8.802 -0.0900 -2.1724  1.4393
  118OSM   C17F12492   7.260   3.893   8.652  0.2976  0.9293 -0.1617
  118OSM   H17F12493   7.150   3.891   8.638 -0.0572 -0.6666  2.2764
  118OSM   H17G12494   7.302   3.833   8.569  2.3105  1.9259  0.0746
  118OSM   C18F12495   7.321   4.032   8.639 -0.5495 -0.9716 -0.9266
  118OSM   H18F12496   7.429   4.038   8.664 -1.2237  1.3336  1.9938
  118OSM   H18G12497   7.280   4.098   8.719  3.2894  2.0262 -1.1267
  118OSM   H18H12498   7.299   4.077   8.539 -0.2143 -0.9301 -0.9833
  119OSM      N12499   3.097   1.788  11.043  0.1437 -0.1423 -0.1319
  119OSM    C1512500   3.225   1.736  11.097  0.0655  0.3851  0.6325
  119OSM   H15A12501   3.254   1.643  11.050  1.9232  1.2837 -0.0734
  119OSM   H15B12502   3.212   1.711  11.201 -0.4701  2.9359  1.2432
  119OSM   H15C12503   3.303   1.810  11.094 -1.5042  2.0871 -0.1279
  119OSM    C1412504   3.114   1.806  10.899  0.6106  0.8035  0.4693
  119OSM   H14A12505   3.019   1.818  10.849  0.0950 -0.1360  1.1992
  119OSM   H14B12506   3.158   1.713  10.867  0.7595  1.6980 -2.2101
  119OSM   H14C12507   3.184   1.886  10.880 -0.7123  1.7428 -0.7047
  119OSM    C1312508   2.987   1.687  11.063  0.9857  0.0585 -0.4952
  119OSM   H13A12509   2.897   1.708  11.008  0.3724  2.5529  1.2682
  119OSM   H13B12510   2.956   1.676  11.165  0.2910  1.6297 -0.5029
  119OSM   H13C12511   3.018   1.586  11.041 -0.7442 -0.6270  0.0716
  119OSM    C1212512   3.077   1.923  11.117  0.2448  0.5969  0.2475
  119OSM   H12A12513   3.073   1.904  11.223  2.0643 -0.8311  0.1109
  119OSM   H12B12514   2.986   1.969  11.082  0.7246  1.4700  0.1192
  119OSM    C1112515   3.179   2.036  11.101 -0.4299 -0.2893  0.6930
  119OSM   H11A12516   3.282   2.021  11.140 -0.7396 -1.3325  1.1220
  119OSM   H11B12517   3.143   2.127  11.155 -2.3934 -1.1905  1.0034
  119OSM      P12518   3.131   2.177  10.889  0.0155  0.0698  0.3917
  119OSM    O1312519   2.991   2.145  10.867 -0.2024 -0.9713  0.0389
  119OSM    O1412520   3.162   2.308  10.948 -0.2526  0.5468 -0.7532
  119OSM    O1112521   3.213   2.167  10.762 -0.0648  0.3198  0.3677
  119OSM    O1212522   3.209   2.067  10.967 -0.4031 -0.2294 -0.0678
  119OSM    C1S12523   3.193   2.063  10.664 -0.4441 -0.4037 -0.0602
  119OSM    H1S12524   3.098   2.010  10.681 -1.1195  0.2848 -1.5092
  119OSM    H1T12525   3.280   1.994  10.669  0.0504  0.2125 -0.0235
  119OSM     NF12526   3.174   1.985  10.435  0.1101  0.6002  0.1035
  119OSM    HNF12527   3.250   1.955  10.378  0.1055 -0.1099  0.4589
  119OSM    C2S12528   3.187   2.108  10.512  0.9616 -0.1621 -0.1336
  119OSM    H2S12529   3.098   2.173  10.500  0.4389 -0.5126  1.5640
  119OSM    C3S12530   3.307   2.193  10.481  0.1428 -0.1406  0.3827
  119OSM    H3S12531   3.394   2.133  10.517  0.0263 -0.9231 -0.5765
  119OSM     O312532   3.307   2.307  10.559 -0.0263 -0.9845  0.3354
  119OSM    HO312533   3.239   2.295  10.626 -0.4067  2.3126  0.7033
  119OSM    C4S12534   3.310   2.232  10.329  1.0407 -0.1128  0.6226
  119OSM    H4S12535   3.221   2.282  10.289  1.1487 -0.9271 -0.6994
  119OSM    C5S12536   3.417   2.205  10.257  0.0373  0.7095  0.3435
  119OSM    H5S12537   3.499   2.145  10.299  0.5548 -0.0982 -1.6809
  119OSM    C6S12538   3.437   2.242  10.108 -0.0503 -0.0376  0.0304
  119OSM    H6S12539   3.538   2.288  10.096  0.9958 -2.3257 -0.6524
  119OSM    H6T12540   3.362   2.320  10.084  0.2695  0.0317 -0.8073
  119OSM    C7S12541   3.416   2.128  10.006 -0.3471 -0.0305 -0.2478
  119OSM    H7S12542   3.315   2.085  10.021 -0.5144  0.4780  0.1053
  119OSM    H7T12543   3.501   2.059  10.025  1.3154  1.5253 -1.6626
  119OSM    C8S12544   3.428   2.173   9.854  1.5610  0.1082 -0.4012
  119OSM    H8S12545   3.529   2.218   9.846  1.8298 -0.0992  1.2858
  119OSM    H8T12546   3.352   2.254   9.848  0.9386 -0.5166 -1.0947
  119OSM    C9S12547   3.414   2.052   9.753  0.0429 -0.1175 -0.3088
  119OSM    H9S12548   3.307   2.024   9.753 -0.3361  1.2694 -0.1974
  119OSM    H9T12549   3.465   1.964   9.797  0.6489  0.4655  0.1747
  119OSM   C10S12550   3.468   2.100   9.620  0.0462  0.0244 -0.4132
  119OSM   H10S12551   3.571   2.136   9.639 -0.9663  2.6682  0.6544
  119OSM   H10T12552   3.421   2.193   9.580  1.5632  1.4907  1.0279
  119OSM   C11S12553   3.446   1.994   9.509 -0.7276  0.0525  0.9616
  119OSM   H11S12554   3.341   1.990   9.473 -0.7990 -3.0418  1.3193
  119OSM   H11T12555   3.471   1.895   9.553  1.3095  1.1639  2.5150
  119OSM   C12S12556   3.533   2.025   9.384 -0.6506 -0.2391  0.2363
  119OSM   H12S12557   3.637   2.030   9.423 -0.6623  0.0230  0.2333
  119OSM   H12T12558   3.513   2.126   9.343  1.4973 -0.5710 -1.8414
  119OSM   C13S12559   3.507   1.927   9.271  0.1756  0.2198  0.0615
  119OSM   H13S12560   3.411   1.950   9.219  0.2491  0.5778  0.0823
  119OSM   H13T12561   3.503   1.829   9.322  1.6782  0.9709  1.7237
  119OSM   C14S12562   3.627   1.928   9.169  0.8952  0.0695  0.5678
  119OSM   H14S12563   3.723   1.942   9.223  0.8006 -1.9020  1.3569
  119OSM   H14T12564   3.626   2.019   9.106  1.0465 -0.8986 -0.8627
  119OSM   C15S12565   3.633   1.803   9.081  0.5095 -0.3450 -0.8836
  119OSM   H15S12566   3.668   1.725   9.152 -0.7246  0.4944  0.6975
  119OSM   H15T12567   3.715   1.811   9.007  3.0631 -1.6469  1.5942
  119OSM   C16S12568   3.506   1.764   9.004  0.0797  0.2328  0.5222
  119OSM   H16S12569   3.476   1.857   8.952  0.8895  0.5949  0.6978
  119OSM   H16T12570   3.417   1.731   9.061 -1.7244 -1.0280 -2.7333
  119OSM   C17S12571   3.527   1.653   8.904 -0.1675  0.0002 -0.0976
  119OSM   H17S12572   3.616   1.678   8.842 -0.8083 -1.5252 -1.7078
  119OSM   H17T12573   3.449   1.650   8.825 -1.2547  0.4052  0.9387
  119OSM   C18S12574   3.552   1.514   8.964  0.2079 -0.1430 -0.3011
  119OSM   H18S12575   3.610   1.457   8.888 -1.5796 -0.3545 -1.5802
  119OSM   H18T12576   3.453   1.465   8.979 -0.5817  1.3414 -0.4898
  119OSM   H18U12577   3.617   1.517   9.054 -1.3872  2.2784  0.8792
  119OSM    C1F12578   3.070   1.903  10.442  0.4205 -0.6015  0.4050
  119OSM     OF12579   2.971   1.952  10.497  0.8442  0.0470  0.0393
  119OSM    C2F12580   3.076   1.768  10.380  0.4948  0.5463  0.7142
  119OSM    H2F12581   3.164   1.713  10.421  0.0503 -1.0513 -0.3781
  119OSM    H2G12582   3.085   1.791  10.272  0.3990 -0.4082  0.4948
  119OSM    C3F12583   2.952   1.687  10.416  0.2497 -0.4398  0.1171
  119OSM    H3F12584   2.864   1.749  10.389 -0.2472 -1.2409 -0.1378
  119OSM    H3G12585   2.946   1.669  10.525 -1.1943  1.8374  0.4753
  119OSM    C4F12586   2.950   1.547  10.347  0.4971 -0.4272 -0.2343
  119OSM    H4F12587   3.038   1.482  10.367  0.6489 -0.3360 -0.5955
  119OSM    H4G12588   2.962   1.575  10.240  2.0243  0.6645  0.1883
  119OSM    C5F12589   2.821   1.460  10.393 -0.3063 -0.2599 -0.0134
  119OSM    H5F12590   2.735   1.523  10.361  1.2030  0.7150 -2.4957
  119OSM    H5G12591   2.804   1.451  10.502 -1.3755 -1.0295 -0.2284
  119OSM    C6F12592   2.822   1.322  10.326  0.1391  0.3189 -0.9541
  119OSM    H6F12593   2.863   1.330  10.224 -1.0442  0.9282 -1.4032
  119OSM    H6G12594   2.717   1.285  10.320  0.7776 -1.5939 -1.0299
  119OSM    C7F12595   2.897   1.215  10.404  0.0776  0.0900 -0.1769
  119OSM    H7F12596   2.878   1.232  10.512  0.9770  0.9881 -0.1509
  119OSM    H7G12597   3.005   1.233  10.387  0.7495 -1.4865  2.0400
  119OSM    C8F12598   2.870   1.074  10.357  0.1706  0.8372  0.7398
  119OSM    H8F12599   2.936   1.003  10.411  0.1087  0.6055  0.5129
  119OSM    H8G12600   2.897   1.066  10.250 -1.7644 -1.2673  0.3419
  119OSM    C9F12601   2.726   1.042  10.384  0.0432  0.3941 -0.9959
  119OSM    H9F12602   2.698   1.027  10.489 -1.5959  1.9095 -1.1546
  119OSM   C10F12603   2.634   1.009  10.296  0.1311 -0.2999  0.7338
  119OSM   H10F12604   2.530   0.991  10.328  0.3506 -0.4721  1.3646
  119OSM   C11F12605   2.659   1.004  10.143  0.5274 -0.4190 -0.3548
  119OSM   H11F12606   2.622   0.907  10.104  0.3037 -1.4477  2.2056
  119OSM   H11G12607   2.766   1.019  10.117  0.0902  0.6306 -1.6664
  119OSM   C12F12608   2.597   1.123  10.063  0.2148 -0.0740  0.1794
  119OSM   H12F12609   2.656   1.213  10.090  1.6103 -1.3825  1.6546
  119OSM   H12G12610   2.490   1.140  10.091  1.2321  2.4210  3.1771
  119OSM   C13F12611   2.619   1.102   9.911  1.2354 -0.1338  0.3168
  119OSM   H13F12612   2.543   1.167   9.862  0.5129  0.5774  2.2561
  119OSM   H13G12613   2.594   0.997   9.883  0.2806  0.4659 -1.2039
  119OSM   C14F12614   2.753   1.136   9.854  0.0484 -0.4442  0.6734
  119OSM   H14F12615   2.828   1.065   9.894 -0.6502 -1.3905  0.3336
  119OSM   H14G12616   2.779   1.239   9.887  1.0150  0.3093 -2.1339
  119OSM   C15F12617   2.751   1.152   9.699 -0.1028  0.1128  0.3577
  119OSM   H15F12618   2.842   1.206   9.663  0.9590 -0.9936  1.2922
  119OSM   H15G12619   2.658   1.207   9.676 -0.3284 -1.4840 -3.1611
  119OSM   C16F12620   2.746   1.029   9.607  0.2827 -0.1665  0.2720
  119OSM   H16F12621   2.650   0.977   9.632 -0.3584  1.0429  0.4116
  119OSM   H16G12622   2.822   0.949   9.622 -0.4464 -1.1174 -0.9069
  119OSM   C17F12623   2.752   1.062   9.461 -0.3429  0.1321 -0.3867
  119OSM   H17F12624   2.847   1.118   9.448  0.0162  0.3475  2.5110
  119OSM   H17G12625   2.667   1.131   9.438 -1.4991 -0.9597  0.4348
  119OSM   C18F12626   2.743   0.936   9.376  0.6657  0.6555 -0.0254
  119OSM   H18F12627   2.746   0.971   9.271 -0.6424  0.2920 -0.1999
  119OSM   H18G12628   2.642   0.893   9.391  0.3566  0.2389 -2.7361
  119OSM   H18H12629   2.827   0.864   9.392 -0.0111  0.0034  0.7184
  120OSM      N12630   2.714   4.216  11.005  0.5843  0.3198  0.7163
  120OSM    C1512631   2.635   4.345  11.007  0.0658 -0.4512  0.6538
  120OSM   H15A12632   2.702   4.423  11.038  1.3093 -1.6159  1.0138
  120OSM   H15B12633   2.546   4.336  11.067  1.4052 -0.7339  2.6708
  120OSM   H15C12634   2.596   4.370  10.909 -2.2604 -1.9162  1.1300
  120OSM    C1412635   2.771   4.196  11.144 -0.5289 -0.6355 -0.2524
  120OSM   H14A12636   2.688   4.152  11.198  1.0249 -2.5367  0.7281
  120OSM   H14B12637   2.809   4.287  11.186 -0.9990 -0.6423  0.1962
  120OSM   H14C12638   2.852   4.125  11.133  1.0705  1.3193 -1.5965
  120OSM    C1312639   2.624   4.112  10.961  0.0280 -0.7117  0.0227
  120OSM   H13A12640   2.580   4.139  10.866 -1.2625  2.8921  1.4477
  120OSM   H13B12641   2.543   4.098  11.032 -0.0331 -1.6299 -0.2163
  120OSM   H13C12642   2.664   4.015  10.936 -0.6917 -0.8071 -0.8104
  120OSM    C1212643   2.823   4.238  10.912 -0.3409 -0.1631 -0.1324
  120OSM   H12A12644   2.876   4.145  10.907  0.1636  0.1778 -1.5596
  120OSM   H12B12645   2.893   4.309  10.953  3.2370 -3.6179  0.2435
  120OSM    C1112646   2.791   4.266  10.761 -0.4243 -0.4506  0.1767
  120OSM   H11A12647   2.721   4.199  10.707 -0.2659  0.9245 -1.8196
  120OSM   H11B12648   2.887   4.246  10.710  0.7512  1.8572  1.3115
  120OSM      P12649   2.834   4.514  10.674  0.1444 -0.4479 -0.0921
  120OSM    O1312650   2.746   4.637  10.660 -0.3118  0.2397 -0.1833
  120OSM    O1412651   2.956   4.528  10.755 -0.0890  0.1608  0.0058
  120OSM    O1112652   2.863   4.463  10.534 -0.5151  0.1802  0.1930
  120OSM    O1212653   2.749   4.399  10.729  0.2341  0.2178  0.1208
  120OSM    C1S12654   2.768   4.408  10.451 -0.3586  0.6492 -0.5526
  120OSM    H1S12655   2.662   4.438  10.467 -0.6342  1.2553 -3.0644
  120OSM    H1T12656   2.780   4.298  10.457 -0.2381  0.6824 -0.1379
  120OSM     NF12657   2.688   4.403  10.218  0.2480 -0.0695  0.2413
  120OSM    HNF12658   2.711   4.328  10.156  0.4780  0.5182 -0.3986
  120OSM    C2S12659   2.790   4.447  10.305  0.4195  0.9263 -0.3772
  120OSM    H2S12660   2.798   4.558  10.304  0.8316  0.9238  0.8114
  120OSM    C3S12661   2.926   4.390  10.253  0.2214 -0.8130 -0.4311
  120OSM    H3S12662   2.905   4.281  10.241  1.6288 -1.2790  0.9489
  120OSM     O312663   3.028   4.396  10.351 -0.7156 -0.1777  0.3802
  120OSM    HO312664   2.985   4.411  10.436 -2.3648 -0.8643 -0.2862
  120OSM    C4S12665   2.968   4.455  10.118  0.6219 -0.3902 -0.3455
  120OSM    H4S12666   2.913   4.417  10.031 -0.9540  0.9628  0.0150
  120OSM    C5S12667   3.054   4.553  10.088  0.0743  0.2537 -0.3027
  120OSM    H5S12668   3.110   4.612  10.162  0.7150 -0.7987  0.0678
  120OSM    C6S12669   3.073   4.601   9.950  0.6711  0.5244 -0.2704
  120OSM    H6S12670   3.182   4.602   9.932  0.8747 -0.2960  0.7861
  120OSM    H6T12671   3.048   4.709   9.943  2.6059  1.0386  0.1812
  120OSM    C7S12672   2.999   4.523   9.840  0.1947  0.6726  0.2715
  120OSM    H7S12673   2.892   4.543   9.857  0.3830  1.6411  0.3596
  120OSM    H7T12674   3.009   4.412   9.842  0.5176  0.6619 -0.8417
  120OSM    C8S12675   3.031   4.568   9.700  0.5725 -0.1308 -0.1080
  120OSM    H8S12676   3.137   4.596   9.688 -0.1234  2.7949 -0.1119
  120OSM    H8T12677   2.974   4.662   9.683  0.2706 -0.3430 -0.2762
  120OSM    C9S12678   2.992   4.475   9.582 -0.3197 -0.2570  0.5738
  120OSM    H9S12679   2.883   4.459   9.595 -0.1256 -1.2708  1.1025
  120OSM    H9T12680   3.039   4.374   9.581  0.5448  0.0801 -2.0042
  120OSM   C10S12681   3.025   4.541   9.449  0.4188  0.2865 -0.1676
  120OSM   H10S12682   3.130   4.512   9.432  0.9387  2.1347 -0.3743
  120OSM   H10T12683   3.018   4.652   9.448 -1.5091  0.2657 -3.3824
  120OSM   C11S12684   2.949   4.468   9.337 -0.1092 -0.1628  0.7037
  120OSM   H11S12685   2.845   4.500   9.316 -0.2262 -1.5039 -1.0006
  120OSM   H11T12686   2.942   4.358   9.352 -1.9264 -0.0291  1.0408
  120OSM   C12S12687   3.011   4.476   9.198 -0.5234  0.1869  0.2524
  120OSM   H12S12688   3.121   4.461   9.188 -0.1208  2.2019  1.2010
  120OSM   H12T12689   3.000   4.579   9.158  1.7243  0.8149  1.1084
  120OSM   C13S12690   2.941   4.376   9.102  0.1569  0.7531  0.6529
  120OSM   H13S12691   2.831   4.394   9.097 -0.4725 -2.5615  0.4167
  120OSM   H13T12692   2.956   4.274   9.144 -1.9176  0.9685  2.0771
  120OSM   C14S12693   3.004   4.392   8.960  0.0386  0.2459 -0.4648
  120OSM   H14S12694   3.112   4.384   8.982 -0.1898  0.2385  0.7644
  120OSM   H14T12695   2.979   4.491   8.916  0.8144  0.7063  0.1128
  120OSM   C15S12696   2.980   4.278   8.862 -0.7400 -0.1712 -0.4573
  120OSM   H15S12697   3.005   4.179   8.908  1.0094 -1.6430 -4.1963
  120OSM   H15T12698   3.057   4.282   8.783 -0.4360  1.0223 -0.1183
  120OSM   C16S12699   2.841   4.262   8.798  0.2692 -0.2134  0.0362
  120OSM   H16S12700   2.804   4.365   8.778 -1.6053 -1.0700 -1.1414
  120OSM   H16T12701   2.778   4.229   8.883 -1.9796  0.5244 -1.2510
  120OSM   C17S12702   2.839   4.165   8.681  0.4029 -0.1393  0.4683
  120OSM   H17S12703   2.855   4.064   8.725 -0.2157  0.0501  1.1305
  120OSM   H17T12704   2.920   4.188   8.608  0.5333 -2.0956 -0.0688
  120OSM   C18S12705   2.708   4.169   8.594 -0.3765  0.0130 -0.5227
  120OSM   H18S12706   2.678   4.067   8.561 -0.1546  0.0149 -0.7325
  120OSM   H18T12707   2.727   4.225   8.500  2.5557  1.6380  0.8737
  120OSM   H18U12708   2.622   4.214   8.648  0.1846  1.0814 -0.4928
  120OSM    C1F12709   2.568   4.455  10.230  0.5296 -0.4771 -0.5328
  120OSM     OF12710   2.557   4.564  10.283  0.1726 -0.2436 -0.3374
  120OSM    C2F12711   2.459   4.363  10.184  1.1377 -0.2137 -0.1099
  120OSM    H2F12712   2.418   4.317  10.277  2.6602  0.4457  0.9302
  120OSM    H2G12713   2.486   4.275  10.122 -3.4584 -2.8435  1.0861
  120OSM    C3F12714   2.353   4.453  10.122 -0.5603 -0.0250 -0.5929
  120OSM    H3F12715   2.325   4.537  10.189  0.5396 -1.5713  1.9533
  120OSM    H3G12716   2.262   4.391  10.109 -1.5367  0.8229  1.5805
  120OSM    C4F12717   2.376   4.529   9.983 -0.9573  0.1624 -0.5301
  120OSM    H4F12718   2.446   4.613  10.002 -1.7455  0.4775  1.2182
  120OSM    H4G12719   2.279   4.571   9.949 -2.5376 -2.5339  0.3449
  120OSM    C5F12720   2.439   4.433   9.883  0.6609 -0.7104 -0.5378
  120OSM    H5F12721   2.388   4.335   9.879 -0.3325 -0.3376  1.5047
  120OSM    H5G12722   2.547   4.416   9.905  1.1639  1.8090 -0.6625
  120OSM    C6F12723   2.441   4.484   9.738  0.0511 -0.1433  0.0036
  120OSM    H6F12724   2.453   4.594   9.733  0.6064 -0.2475 -1.4519
  120OSM    H6G12725   2.347   4.483   9.677  0.5633  1.8029 -0.8794
  120OSM    C7F12726   2.541   4.401   9.657 -0.1340  0.0525 -0.2675
  120OSM    H7F12727   2.546   4.294   9.686  1.3211  0.4659  1.1367
  120OSM    H7G12728   2.643   4.435   9.684  0.2611 -0.0058 -1.6108
  120OSM    C8F12729   2.536   4.415   9.505 -0.3866  0.0196 -0.0225
  120OSM    H8F12730   2.639   4.377   9.487 -0.4229 -0.1044  0.0283
  120OSM    H8G12731   2.530   4.524   9.490 -0.7095  0.5786  3.3132
  120OSM    C9F12732   2.417   4.350   9.446  0.1549  0.2368 -0.0023
  120OSM    H9F12733   2.328   4.404   9.482  0.6321  0.8770  0.2569
  120OSM   C10F12734   2.416   4.247   9.358  0.1605 -0.2112 -0.4457
  120OSM   H10F12735   2.322   4.209   9.316  0.9182  0.3723 -2.8087
  120OSM   C11F12736   2.541   4.189   9.305  0.6468 -0.5191  0.0697
  120OSM   H11F12737   2.538   4.079   9.319  1.6255 -0.9289 -2.4252
  120OSM   H11G12738   2.633   4.238   9.344 -0.8873  1.5364  1.2937
  120OSM   C12F12739   2.551   4.219   9.153  0.0294  0.2686  0.7863
  120OSM   H12F12740   2.652   4.213   9.106 -0.2064  1.0626  0.1479
  120OSM   H12G12741   2.527   4.326   9.139  0.1513  0.6475  3.1559
  120OSM   C13F12742   2.470   4.126   9.062  0.0784 -0.3625 -0.3938
  120OSM   H13F12743   2.372   4.107   9.111  1.6092  0.9256  3.5632
  120OSM   H13G12744   2.520   4.027   9.059 -0.6034 -0.9084  2.9553
  120OSM   C14F12745   2.471   4.164   8.916 -0.4040  0.0036 -0.2881
  120OSM   H14F12746   2.577   4.163   8.883 -0.2318 -0.4974  0.2747
  120OSM   H14G12747   2.423   4.264   8.903 -0.9368 -0.3239 -0.8694
  120OSM   C15F12748   2.404   4.062   8.834 -0.5150  0.1223 -0.1364
  120OSM   H15F12749   2.430   3.963   8.877  0.1703 -0.3529 -1.5690
  120OSM   H15G12750   2.451   4.068   8.733 -0.0383 -1.5194 -0.0301
  120OSM   C16F12751   2.251   4.080   8.832 -0.8449  0.0503 -0.0310
  120OSM   H16F12752   2.234   4.181   8.789  1.8137 -0.1820 -1.8694
  120OSM   H16G12753   2.218   4.071   8.937  2.3621  2.5876  1.3768
  120OSM   C17F12754   2.179   3.983   8.739 -0.0056 -0.1463 -0.3028
  120OSM   H17F12755   2.210   3.887   8.786  1.3998  1.2125  1.7256
  120OSM   H17G12756   2.222   3.983   8.637 -1.4681 -0.0890 -0.9388
  120OSM   C18F12757   2.024   3.993   8.738  0.8385  0.5819  0.6707
  120OSM   H18F12758   1.979   3.986   8.839  1.6699  1.5618  1.1253
  120OSM   H18G12759   1.987   3.906   8.680  0.5012  0.4285  1.1129
  120OSM   H18H12760   1.991   4.087   8.689 -1.4451 -0.7373 -0.4986
  121OSM      N12761   1.432   2.994  11.021 -0.2684  0.9011  0.1433
  121OSM    C1512762   1.354   3.104  10.952  0.1759 -0.6536  0.9713
  121OSM   H15A12763   1.261   3.137  10.996 -1.2577 -0.9107 -1.6885
  121OSM   H15B12764   1.343   3.089  10.846 -0.0389  1.2651  0.6737
  121OSM   H15C12765   1.411   3.196  10.951 -1.0156  0.1930 -2.5084
  121OSM    C1412766   1.574   2.997  10.980 -0.7493  0.1151  0.1243
  121OSM   H14A12767   1.581   3.001  10.872 -1.1663 -0.0782  0.0897
  121OSM   H14B12768   1.624   2.906  11.008  2.5941  1.9837  0.7588
  121OSM   H14C12769   1.630   3.065  11.042 -0.1617 -2.8147  3.0758
  121OSM    C1312770   1.418   3.019  11.170  0.1294 -0.3527 -0.6889
  121OSM   H13A12771   1.314   3.044  11.188  0.3571 -0.2972  0.6227
  121OSM   H13B12772   1.483   3.101  11.197 -2.0412  1.2629 -0.0854
  121OSM   H13C12773   1.436   2.925  11.220 -0.2912  0.2571  0.6621
  121OSM    C1212774   1.358   2.861  10.987  0.2365 -0.7088 -0.4321
  121OSM   H12A12775   1.261   2.870  11.034  0.4112  0.7060 -0.3020
  121OSM   H12B12776   1.406   2.778  11.035  0.6215  0.4186  1.2175
  121OSM    C1112777   1.349   2.825  10.835  0.0112 -0.2077  0.2321
  121OSM   H11A12778   1.305   2.912  10.783  0.8503  0.8496  1.2210
  121OSM   H11B12779   1.275   2.748  10.806 -2.3136  1.6519  0.9565
  121OSM      P12780   1.566   2.662  10.827 -0.1326 -0.3176  0.2013
  121OSM    O1312781   1.674   2.700  10.917 -0.1666 -0.3115 -0.1665
  121OSM    O1412782   1.474   2.551  10.857 -0.3609 -0.3194  0.7730
  121OSM    O1112783   1.623   2.623  10.687 -0.2116 -0.9239 -0.1990
  121OSM    O1212784   1.486   2.800  10.799  0.9408  0.2522 -0.0994
  121OSM    C1S12785   1.533   2.604  10.577 -0.5838 -0.5449 -0.1418
  121OSM    H1S12786   1.457   2.685  10.568  0.5907  0.6307  0.1274
  121OSM    H1T12787   1.487   2.503  10.584  1.5146 -1.5095  0.5816
  121OSM     NF12788   1.508   2.605  10.336 -0.3764  0.1252 -0.1849
  121OSM    HNF12789   1.470   2.519  10.303 -0.8225  0.0686  0.4595
  121OSM    C2S12790   1.612   2.596  10.439 -0.2599 -1.3660  0.2615
  121OSM    H2S12791   1.691   2.672  10.423  0.2908 -2.4034 -2.5693
  121OSM    C3S12792   1.699   2.465  10.440  0.8426 -0.1427  0.5843
  121OSM    H3S12793   1.627   2.381  10.453  0.0043  0.8399  3.0468
  121OSM     O312794   1.782   2.459  10.556  0.1867 -0.6430 -0.3494
  121OSM    HO312795   1.767   2.549  10.585 -0.6663 -0.6400 -0.7484
  121OSM    C4S12796   1.780   2.456  10.319 -1.0120  0.9117 -0.4659
  121OSM    H4S12797   1.880   2.500  10.329 -1.1791  1.4825 -1.2172
  121OSM    C5S12798   1.732   2.407  10.208 -0.9412 -0.2519  0.3680
  121OSM    H5S12799   1.625   2.388  10.194 -0.5015 -2.5682 -0.2567
  121OSM    C6S12800   1.806   2.390  10.078  0.5738  0.3238 -0.1609
  121OSM    H6S12801   1.756   2.441   9.994  1.9261  0.8645 -0.6694
  121OSM    H6T12802   1.799   2.279  10.066 -1.9337  0.2528  1.1674
  121OSM    C7S12803   1.956   2.414  10.080  0.4123 -0.1655 -0.3665
  121OSM    H7S12804   2.001   2.368  10.170 -0.9737 -0.8176  0.0241
  121OSM    H7T12805   1.958   2.525  10.081  0.4644 -0.1536  1.6695
  121OSM    C8S12806   2.025   2.354   9.956 -0.3356 -0.0798 -0.3479
  121OSM    H8S12807   1.997   2.246   9.955  0.7082 -0.3667  0.5408
  121OSM    H8T12808   2.136   2.354   9.956 -0.3014  2.1770 -1.1909
  121OSM    C9S12809   1.973   2.401   9.816 -0.3199  0.0542 -0.0887
  121OSM    H9S12810   1.990   2.510   9.819  0.2344 -0.0374  0.5107
  121OSM    H9T12811   1.863   2.388   9.823  0.0099 -2.6999  1.6757
  121OSM   C10S12812   2.048   2.337   9.700  0.1585 -0.3890 -0.6887
  121OSM   H10S12813   2.003   2.238   9.682 -0.8955  0.0247 -0.4115
  121OSM   H10T12814   2.159   2.326   9.706  0.3982  1.8664  0.3391
  121OSM   C11S12815   2.031   2.417   9.570  0.3866 -0.2203  0.0616
  121OSM   H11S12816   2.062   2.521   9.592 -1.4457  0.2463  0.6148
  121OSM   H11T12817   1.923   2.439   9.555  0.1620  1.7440  3.5044
  121OSM   C12S12818   2.091   2.338   9.452  0.1975 -0.5492 -0.1328
  121OSM   H12S12819   2.045   2.237   9.455  0.4021 -0.6187  1.7034
  121OSM   H12T12820   2.199   2.316   9.462  0.8361  1.8931 -0.9355
  121OSM   C13S12821   2.063   2.399   9.315  0.1950  0.0256  0.2904
  121OSM   H13S12822   2.094   2.505   9.304 -1.1432  0.4668  0.5224
  121OSM   H13T12823   1.953   2.403   9.303  0.1409  2.7214  0.8572
  121OSM   C14S12824   2.114   2.338   9.183  0.3960  0.5372  0.0646
  121OSM   H14S12825   2.058   2.246   9.158  0.7641  0.8121 -1.9038
  121OSM   H14T12826   2.222   2.315   9.193  0.7258  1.9708  0.0906
  121OSM   C15S12827   2.083   2.423   9.058 -0.3529  0.2565  0.7963
  121OSM   H15S12828   2.139   2.391   8.968 -0.7573  0.0037  0.6306
  121OSM   H15T12829   2.133   2.522   9.065  0.3901  0.0882 -1.4902
  121OSM   C16S12830   1.930   2.431   9.025 -0.5238 -0.0922  0.4612
  121OSM   H16S12831   1.877   2.465   9.117 -0.7544  0.3327  0.1727
  121OSM   H16T12832   1.891   2.333   8.990 -0.5373  0.5805 -1.4999
  121OSM   C17S12833   1.919   2.559   8.946  0.6372  0.0960  0.1712
  121OSM   H17S12834   1.956   2.536   8.844  2.5467 -0.9811  1.0466
  121OSM   H17T12835   1.990   2.634   8.987  0.3583  0.6569 -0.3537
  121OSM   C18S12836   1.773   2.612   8.933 -0.3485 -0.5451  0.1311
  121OSM   H18S12837   1.695   2.534   8.922  1.6411 -3.0287  2.1622
  121OSM   H18T12838   1.782   2.683   8.849  0.2900  0.2981  0.8831
  121OSM   H18U12839   1.754   2.675   9.023  1.6376  0.8576 -0.3503
  121OSM    C1F12840   1.455   2.718  10.299 -0.1470  1.0352 -0.0167
  121OSM     OF12841   1.506   2.824  10.335  0.1263  0.1568 -0.1931
  121OSM    C2F12842   1.342   2.715  10.200  0.3799 -0.8397  0.7380
  121OSM    H2F12843   1.253   2.739  10.262 -0.5975  0.7032 -1.1773
  121OSM    H2G12844   1.326   2.616  10.152 -0.1261 -0.6792  0.5684
  121OSM    C3F12845   1.355   2.834  10.096  0.0684 -0.2035  0.2006
  121OSM    H3F12846   1.456   2.827  10.051 -0.3518 -0.1546 -0.7806
  121OSM    H3G12847   1.352   2.927  10.155 -0.1542 -1.4188  2.1931
  121OSM    C4F12848   1.250   2.835   9.991  0.3338 -0.0348 -0.2956
  121OSM    H4F12849   1.234   2.935   9.946  0.5509  0.0501 -0.1836
  121OSM    H4G12850   1.149   2.818  10.033  0.4104 -0.5716 -0.3219
  121OSM    C5F12851   1.293   2.724   9.891 -0.2074 -0.0354  0.0013
  121OSM    H5F12852   1.296   2.622   9.934  0.4842  0.6501  1.6507
  121OSM    H5G12853   1.389   2.747   9.840 -1.1622  2.4676 -0.8566
  121OSM    C6F12854   1.189   2.705   9.776  0.3210  0.5956 -0.2103
  121OSM    H6F12855   1.092   2.724   9.828 -1.7032 -2.5215 -2.4180
  121OSM    H6G12856   1.195   2.597   9.750 -0.1846  0.4505  0.2429
  121OSM    C7F12857   1.200   2.792   9.649 -0.3672  0.3185  1.1226
  121OSM    H7F12858   1.305   2.806   9.616 -0.8399  0.5965 -0.3250
  121OSM    H7G12859   1.158   2.893   9.668 -0.8656  0.1971  0.6888
  121OSM    C8F12860   1.123   2.742   9.522  0.1775 -0.3728 -0.0875
  121OSM    H8F12861   1.128   2.819   9.442  2.1224  0.2056  0.5243
  121OSM    H8G12862   1.021   2.742   9.564  0.5369  0.0195  0.8231
  121OSM    C9F12863   1.162   2.605   9.476  0.0510  0.2224  0.6163
  121OSM    H9F12864   1.237   2.551   9.535 -1.3168 -0.2668  1.9912
  121OSM   C10F12865   1.118   2.553   9.358 -0.7849 -0.4757  0.0362
  121OSM   H10F12866   1.149   2.453   9.323  0.5766  0.0026 -0.1755
  121OSM   C11F12867   1.013   2.628   9.266 -0.6075  0.2211 -0.4680
  121OSM   H11F12868   0.977   2.726   9.302  2.0963  0.3595  2.2664
  121OSM   H11G12869   0.924   2.562   9.253  0.4508 -1.5605  0.8757
  121OSM   C12F12870   1.067   2.661   9.130 -0.0127 -0.2986 -0.4117
  121OSM   H12F12871   1.158   2.600   9.109 -0.9755 -1.8634 -0.2327
  121OSM   H12G12872   1.081   2.770   9.116  1.6644 -0.4330 -0.0070
  121OSM   C13F12873   0.962   2.602   9.023 -0.7157 -1.1029 -0.7683
  121OSM   H13F12874   0.859   2.644   9.034 -1.5728 -3.3373  0.4246
  121OSM   H13G12875   0.957   2.492   9.037  3.2122 -1.3692 -0.4272
  121OSM   C14F12876   1.026   2.625   8.893 -0.1382  1.5690 -0.0547
  121OSM   H14F12877   1.116   2.560   8.891 -0.7827  0.6724 -0.9515
  121OSM   H14G12878   1.056   2.732   8.887  0.8509  1.2759 -0.6640
  121OSM   C15F12879   0.944   2.580   8.770 -0.0789 -0.1731 -0.3093
  121OSM   H15F12880   0.879   2.497   8.807  0.5941  0.2233  1.9115
  121OSM   H15G12881   1.020   2.535   8.702  1.1268 -0.3884  1.1413
  121OSM   C16F12882   0.861   2.689   8.705  0.6137 -0.0781  0.6798
  121OSM   H16F12883   0.892   2.794   8.723  1.2667 -0.1372 -0.0381
  121OSM   H16G12884   0.762   2.675   8.754 -0.3809  0.0231 -1.2131
  121OSM   C17F12885   0.847   2.666   8.549  0.0529 -0.0666 -0.6329
  121OSM   H17F12886   0.951   2.679   8.514 -0.2226  2.2488 -0.7924
  121OSM   H17G12887   0.778   2.747   8.515  0.1337  1.1714  1.9138
  121OSM   C18F12888   0.786   2.535   8.499 -0.1759  0.0016  0.5234
  121OSM   H18F12889   0.786   2.532   8.388 -0.0272  0.4134  0.5071
  121OSM   H18G12890   0.686   2.504   8.536  0.5075 -0.5253  1.9863
  121OSM   H18H12891   0.854   2.452   8.527  4.2700  2.5289 -1.5884
  122OSM      N12892   2.328   5.464  10.777 -0.3949  0.0803  0.7600
  122OSM    C1512893   2.453   5.386  10.830 -0.6438  0.5388 -0.5426
  122OSM   H15A12894   2.511   5.449  10.896  1.1313 -2.5799  1.1049
  122OSM   H15B12895   2.522   5.375  10.748 -1.5078  1.4262 -1.4227
  122OSM   H15C12896   2.438   5.293  10.883 -0.0695 -0.0110 -1.3180
  122OSM    C1412897   2.246   5.517  10.889  0.2516 -0.2278  0.1218
  122OSM   H14A12898   2.305   5.577  10.956  0.0005 -0.9699  1.0429
  122OSM   H14B12899   2.206   5.434  10.946  0.1768  0.4267  1.0444
  122OSM   H14C12900   2.162   5.573  10.850  1.9286  0.3515 -2.9222
  122OSM    C1312901   2.384   5.570  10.688  0.5775 -0.4220  0.4299
  122OSM   H13A12902   2.423   5.643  10.758 -0.8347  0.2092  0.5989
  122OSM   H13B12903   2.300   5.617  10.637  2.6500  0.6176 -2.2615
  122OSM   H13C12904   2.453   5.539  10.612 -0.9676  2.5528 -2.4359
  122OSM    C1212905   2.259   5.356  10.696 -0.1988 -0.0474  0.8485
  122OSM   H12A12906   2.336   5.300  10.645 -0.1936 -0.0658  0.8756
  122OSM   H12B12907   2.200   5.401  10.617 -0.6472  2.8800  2.6812
  122OSM    C1112908   2.175   5.254  10.776  0.1156 -0.0124 -0.4354
  122OSM   H11A12909   2.211   5.241  10.880  0.5156 -0.1939 -0.5933
  122OSM   H11B12910   2.182   5.149  10.738 -1.8327 -1.1926  2.1743
  122OSM      P12911   1.928   5.208  10.713  0.0177 -0.5234  0.2668
  122OSM    O1312912   1.920   5.077  10.783  0.1074 -0.0963  0.3517
  122OSM    O1412913   1.805   5.289  10.712 -0.5207  0.9161  0.8051
  122OSM    O1112914   1.968   5.181  10.573 -0.2149 -0.1196  0.5907
  122OSM    O1212915   2.035   5.299  10.780 -0.4909  0.0007  0.1198
  122OSM    C1S12916   1.967   5.289  10.475  0.4529 -0.0793  0.1540
  122OSM    H1S12917   2.000   5.388  10.514 -1.3309  0.9121 -0.7099
  122OSM    H1T12918   1.864   5.308  10.436  0.8463  0.5610 -0.6003
  122OSM     NF12919   2.083   5.369  10.271 -0.3085  0.4260 -0.1141
  122OSM    HNF12920   2.019   5.406  10.205 -1.0267 -0.8913 -0.1852
  122OSM    C2S12921   2.053   5.251  10.350 -0.6746 -0.7226 -0.1484
  122OSM    H2S12922   2.148   5.211  10.390  0.7978  0.3521 -2.3932
  122OSM    C3S12923   1.990   5.137  10.270 -0.3603 -0.4731  0.2364
  122OSM    H3S12924   1.909   5.171  10.201 -1.2081 -1.8425  0.5146
  122OSM     O312925   1.931   5.031  10.347  0.5765 -0.0785 -0.0290
  122OSM    HO312926   1.952   5.057  10.437  0.8592  1.6536 -0.5465
  122OSM    C4S12927   2.089   5.094  10.172 -0.5032 -0.4749  0.0996
  122OSM    H4S12928   2.114   5.175  10.103  1.2565 -2.8491 -2.2512
  122OSM    C5S12929   2.160   4.983  10.170 -0.8428  0.1815  0.0358
  122OSM    H5S12930   2.125   4.911  10.246 -3.6329  2.2725  0.9132
  122OSM    C6S12931   2.270   4.947  10.071 -0.3607 -0.0698  1.0411
  122OSM    H6S12932   2.341   4.869  10.107 -0.0423 -0.9014 -1.2301
  122OSM    H6T12933   2.331   5.037  10.048 -0.5764  0.0555  0.9520
  122OSM    C7S12934   2.226   4.910   9.923 -0.5054 -0.1423 -0.2198
  122OSM    H7S12935   2.166   4.992   9.879  1.1370  1.1099 -0.2210
  122OSM    H7T12936   2.160   4.820   9.925 -0.5709 -0.0992 -0.4483
  122OSM    C8S12937   2.352   4.891   9.837  0.4516  0.4471  0.6309
  122OSM    H8S12938   2.435   4.838   9.889 -0.4675  0.0878  1.7667
  122OSM    H8T12939   2.390   4.992   9.813 -2.4027  1.3581 -0.4720
  122OSM    C9S12940   2.325   4.818   9.706 -0.0535 -0.5414 -0.0392
  122OSM    H9S12941   2.266   4.732   9.743 -0.1871 -1.1698 -1.6092
  122OSM    H9T12942   2.419   4.783   9.658  0.0887  1.7992 -1.6764
  122OSM   C10S12943   2.251   4.915   9.614  0.2852  0.0698 -0.0613
  122OSM   H10S12944   2.321   4.995   9.582  0.6977 -0.1233  0.3580
  122OSM   H10T12945   2.178   4.973   9.675  0.4148 -1.3274  1.4948
  122OSM   C11S12946   2.185   4.844   9.493 -0.3183  0.1233 -0.1214
  122OSM   H11S12947   2.123   4.913   9.431  0.1322 -0.3306 -1.0971
  122OSM   H11T12948   2.111   4.767   9.525 -0.7890  1.5157  2.3820
  122OSM   C12S12949   2.292   4.776   9.402  0.4587 -1.1410 -0.4715
  122OSM   H12S12950   2.326   4.687   9.460  0.2259  0.0367  1.5568
  122OSM   H12T12951   2.369   4.854   9.387 -0.8223  0.5289  1.2025
  122OSM   C13S12952   2.231   4.746   9.272  0.4670  0.1947 -0.0515
  122OSM   H13S12953   2.185   4.830   9.215  1.4115  1.6458  1.2458
  122OSM   H13T12954   2.148   4.673   9.282  0.0065  0.9760  2.6046
  122OSM   C14S12955   2.333   4.692   9.180  0.0678  0.3774  0.3615
  122OSM   H14S12956   2.370   4.594   9.216  0.2292  0.5982  0.8108
  122OSM   H14T12957   2.423   4.755   9.166  1.2287 -0.7823  2.2275
  122OSM   C15S12958   2.278   4.674   9.035  0.7963  0.1827 -0.3522
  122OSM   H15S12959   2.287   4.771   8.982 -1.7877 -0.0001 -1.2892
  122OSM   H15T12960   2.169   4.650   9.040  0.4659  0.2783 -4.1482
  122OSM   C16S12961   2.347   4.566   8.945  0.2058 -0.0975 -0.4042
  122OSM   H16S12962   2.315   4.464   8.976  1.0698 -0.0051  0.8643
  122OSM   H16T12963   2.454   4.591   8.963 -0.9455  3.7245  2.5601
  122OSM   C17S12964   2.313   4.603   8.797 -0.0951  0.4879 -0.4827
  122OSM   H17S12965   2.402   4.577   8.735 -0.6710  0.0431 -1.1350
  122OSM   H17T12966   2.284   4.710   8.795 -0.3528  0.4217 -0.3333
  122OSM   C18S12967   2.201   4.519   8.738 -0.4383  0.3245  0.1052
  122OSM   H18S12968   2.182   4.553   8.633 -1.0423 -3.6317 -1.2378
  122OSM   H18T12969   2.107   4.525   8.796  0.5951 -1.0775  2.0391
  122OSM   H18U12970   2.240   4.416   8.745  1.1521  0.9517  1.2018
  122OSM    C1F12971   2.183   5.447  10.304 -0.3296 -0.0462 -0.4033
  122OSM     OF12972   2.252   5.423  10.405  0.9847 -0.2804  0.2315
  122OSM    C2F12973   2.213   5.571  10.219  0.1512  0.1416 -0.5568
  122OSM    H2F12974   2.199   5.665  10.276 -0.3196 -0.3078  0.0696
  122OSM    H2G12975   2.148   5.573  10.129 -1.7292  0.2547  0.7491
  122OSM    C3F12976   2.365   5.556  10.179  0.3571 -0.1938 -0.4895
  122OSM    H3F12977   2.430   5.535  10.267 -3.2632 -2.0474  1.9972
  122OSM    H3G12978   2.401   5.656  10.149 -0.8202  1.4331  2.9660
  122OSM    C4F12979   2.395   5.461  10.063 -0.5624  0.0213 -0.6099
  122OSM    H4F12980   2.352   5.359  10.072  0.5926 -0.5141 -0.9998
  122OSM    H4G12981   2.505   5.451  10.050  0.1808  1.8776  2.9176
  122OSM    C5F12982   2.329   5.508   9.931 -0.1573  0.5550 -0.7595
  122OSM    H5F12983   2.379   5.601   9.896  0.9814 -0.1081 -0.9732
  122OSM    H5G12984   2.221   5.526   9.948 -0.4117 -1.0418 -0.5246
  122OSM    C6F12985   2.352   5.404   9.819  0.2022  0.8377 -0.1484
  122OSM    H6F12986   2.288   5.318   9.847  2.4229 -1.3362 -1.3927
  122OSM    H6G12987   2.460   5.378   9.824 -0.2960 -1.3952 -0.0559
  122OSM    C7F12988   2.331   5.447   9.671  0.0863 -0.0463  0.1950
  122OSM    H7F12989   2.416   5.514   9.646 -2.9634  3.5492 -1.4494
  122OSM    H7G12990   2.238   5.506   9.661 -1.2071 -1.7122  1.8407
  122OSM    C8F12991   2.326   5.327   9.567  0.4737  0.4447  0.6980
  122OSM    H8F12992   2.306   5.379   9.471  0.4634 -1.4026 -0.3569
  122OSM    H8G12993   2.236   5.266   9.591 -0.8893  2.2711  0.3903
  122OSM    C9F12994   2.452   5.250   9.543  0.6110  0.0611  0.4339
  122OSM    H9F12995   2.515   5.245   9.633  0.1816 -1.3712  0.6822
  122OSM   C10F12996   2.472   5.185   9.425  1.1065 -0.3369 -0.2019
  122OSM   H10F12997   2.555   5.113   9.411 -0.6245 -2.0649 -2.4415
  122OSM   C11F12998   2.377   5.189   9.315 -0.8326  0.1437 -0.3212
  122OSM   H11F12999   2.309   5.277   9.311 -0.3127  0.4965 -1.8078
  122OSM   H11G13000   2.299   5.111   9.323 -2.1607  1.5356  1.1850
  122OSM   C12F13001   2.449   5.172   9.182  0.4085 -0.1699  0.3920
  122OSM   H12F13002   2.505   5.076   9.180 -0.5803 -0.8302 -3.5199
  122OSM   H12G13003   2.530   5.245   9.163  1.3605 -1.5296 -1.0403
  122OSM   C13F13004   2.349   5.156   9.057 -0.4194 -0.2307 -0.2313
  122OSM   H13F13005   2.288   5.249   9.062 -0.9322 -0.5774 -0.0814
  122OSM   H13G13006   2.293   5.065   9.086 -1.1772  0.4449  0.4886
  122OSM   C14F13007   2.414   5.132   8.920 -0.6439  0.0111  1.3265
  122OSM   H14F13008   2.420   5.021   8.923 -5.7701 -0.4944  1.9670
  122OSM   H14G13009   2.504   5.196   8.907 -0.2630 -1.1335 -4.1933
  122OSM   C15F13010   2.324   5.169   8.802  0.0066  0.4428 -0.1767
  122OSM   H15F13011   2.297   5.276   8.812 -2.0547  0.1652 -2.2035
  122OSM   H15G13012   2.235   5.105   8.788 -1.5270  2.5468 -0.4692
  122OSM   C16F13013   2.407   5.157   8.661  0.8199 -0.7713 -0.2477
  122OSM   H16F13014   2.459   5.059   8.650 -0.8098 -1.7203  0.0859
  122OSM   H16G13015   2.484   5.237   8.664  1.4981 -1.3646 -0.9914
  122OSM   C17F13016   2.330   5.187   8.538  0.6858  0.2891 -0.1608
  122OSM   H17F13017   2.406   5.197   8.457  1.4151 -0.3026  0.4346
  122OSM   H17G13018   2.292   5.291   8.543  0.7617  0.3104 -0.0155
  122OSM   C18F13019   2.220   5.082   8.519 -1.1935 -0.6473 -0.9188
  122OSM   H18F13020   2.172   5.077   8.418 -1.3570 -0.2106 -0.8682
  122OSM   H18G13021   2.139   5.098   8.594 -1.4983 -2.3170 -0.8701
  122OSM   H18H13022   2.273   4.986   8.530  0.8413  0.6108  1.2473
  123OSM      N13023   5.950   3.077   6.088 -0.2537 -0.2121  0.0982
  123OSM    C1513024   5.868   3.190   6.131 -0.6662 -0.0095 -0.9878
  123OSM   H15A13025   5.896   3.237   6.225 -3.3751 -0.2730  0.0392
  123OSM   H15B13026   5.764   3.160   6.134  0.1130 -2.9079  1.2129
  123OSM   H15C13027   5.869   3.275   6.065  0.7656 -2.3285 -4.2102
  123OSM    C1413028   6.090   3.130   6.067  0.4031  0.7517 -0.1235
  123OSM   H14A13029   6.139   3.187   6.144 -0.2080  0.3731  0.5549
  123OSM   H14B13030   6.094   3.196   5.982 -2.2168  1.5878  0.3381
  123OSM   H14C13031   6.154   3.050   6.032 -0.9081  0.1667 -1.2579
  123OSM    C1313032   5.960   2.980   6.202  0.6038  0.1337 -0.3762
  123OSM   H13A13033   5.868   2.932   6.232  1.2415 -0.7018  0.2882
  123OSM   H13B13034   5.989   3.026   6.295 -1.0771 -0.7208  0.6132
  123OSM   H13C13035   6.030   2.900   6.180 -0.8324 -1.3667  0.3107
  123OSM    C1213036   5.893   3.005   5.966 -0.2331 -0.4152  0.0193
  123OSM   H12A13037   5.961   2.924   5.945 -0.2048 -0.2607 -0.5022
  123OSM   H12B13038   5.897   3.066   5.877  0.9417  1.3430  1.1911
  123OSM    C1113039   5.745   2.957   5.987 -0.0976 -0.1815 -0.4300
  123OSM   H11A13040   5.734   2.922   6.092 -1.6776  2.8612  0.5223
  123OSM   H11B13041   5.715   2.873   5.920 -1.4800 -1.3024  1.4556
  123OSM      P13042   5.514   3.054   5.994  0.1793  0.0145 -0.4621
  123OSM    O1313043   5.443   3.186   5.980  0.9225  0.3062 -0.0961
  123OSM    O1413044   5.458   2.951   5.901  0.0481 -0.2184 -0.1251
  123OSM    O1113045   5.500   3.019   6.147  0.3253 -0.2426 -0.3459
  123OSM    O1213046   5.666   3.074   5.959  0.1917 -0.5116 -0.2731
  123OSM    C1S13047   5.569   3.089   6.257  0.5232 -0.5199  1.4472
  123OSM    H1S13048   5.580   3.197   6.230  1.5032 -0.9565 -0.0344
  123OSM    H1T13049   5.674   3.056   6.271  2.3195  4.5879  2.2923
  123OSM     NF13050   5.613   3.116   6.499  0.5612 -0.3384  0.2811
  123OSM    HNF13051   5.641   3.054   6.571  0.7441  1.8576  2.2128
  123OSM    C2S13052   5.512   3.072   6.399  0.4034  0.0732  0.0638
  123OSM    H2S13053   5.423   3.136   6.411  0.1152 -0.6453  2.1544
  123OSM    C3S13054   5.464   2.920   6.435  0.4324  0.4459  0.3104
  123OSM    H3S13055   5.553   2.853   6.439  0.0395 -0.4126 -2.9085
  123OSM     O313056   5.390   2.851   6.331 -0.4316 -0.4103  0.0002
  123OSM    HO313057   5.403   2.908   6.255  0.9305 -0.0270  0.4935
  123OSM    C4S13058   5.394   2.923   6.568 -0.5380  0.6405  0.1986
  123OSM    H4S13059   5.455   2.869   6.642 -0.3469 -0.4870 -0.7519
  123OSM    C5S13060   5.267   2.941   6.599  1.2747 -0.2537 -0.0120
  123OSM    H5S13061   5.199   2.962   6.515  0.5080 -1.6892  0.2145
  123OSM    C6S13062   5.203   2.934   6.738  0.3419  0.8288 -0.0219
  123OSM    H6S13063   5.129   2.851   6.737  1.4649 -0.2326 -2.1345
  123OSM    H6T13064   5.155   3.032   6.761  0.0946  0.1998  2.3318
  123OSM    C7S13065   5.313   2.914   6.843 -0.0085 -0.1645 -0.6573
  123OSM    H7S13066   5.390   2.988   6.816 -0.3622  0.3411 -0.3012
  123OSM    H7T13067   5.354   2.812   6.831  0.6422  0.3495 -3.2662
  123OSM    C8S13068   5.255   2.934   6.980  0.3134 -0.2879  0.1000
  123OSM    H8S13069   5.171   2.864   6.997  1.0171 -0.6978  2.2339
  123OSM    H8T13070   5.230   3.042   6.994  1.2424  0.0951 -1.0806
  123OSM    C9S13071   5.353   2.880   7.090 -0.7774  0.0814 -0.7565
  123OSM    H9S13072   5.449   2.937   7.092 -0.4758 -0.4280 -0.3442
  123OSM    H9T13073   5.387   2.779   7.059 -0.4772  0.5095 -1.8649
  123OSM   C10S13074   5.288   2.864   7.228  0.4497  0.1529  0.1087
  123OSM   H10S13075   5.214   2.780   7.228  1.4635 -0.7644  0.1639
  123OSM   H10T13076   5.236   2.960   7.250  2.0754  0.8522  1.0453
  123OSM   C11S13077   5.390   2.850   7.351  0.2166  0.3819  0.2180
  123OSM   H11S13078   5.450   2.944   7.348 -0.1113  0.5724 -0.5054
  123OSM   H11T13079   5.464   2.774   7.318 -0.9355  0.1704 -2.0492
  123OSM   C12S13080   5.313   2.833   7.486 -0.2709 -0.0396 -0.3583
  123OSM   H12S13081   5.246   2.744   7.484 -0.5315  0.1617 -1.2039
  123OSM   H12T13082   5.256   2.927   7.499 -1.2045 -0.5727 -0.5374
  123OSM   C13S13083   5.412   2.806   7.603  0.3234  0.2357  0.2951
  123OSM   H13S13084   5.510   2.855   7.583  1.5364 -1.8829  0.7676
  123OSM   H13T13085   5.437   2.699   7.615  1.6679  0.7082  2.2180
  123OSM   C14S13086   5.350   2.835   7.737 -0.3619  0.0479 -0.0684
  123OSM   H14S13087   5.248   2.791   7.731  0.5198 -2.5459  1.9704
  123OSM   H14T13088   5.348   2.946   7.748 -0.6054 -0.0968  1.5207
  123OSM   C15S13089   5.442   2.784   7.849  0.7096 -0.3460 -0.6524
  123OSM   H15S13090   5.537   2.840   7.855  0.4400 -0.0016  0.9531
  123OSM   H15T13091   5.463   2.677   7.827  1.2189 -0.2063 -0.8576
  123OSM   C16S13092   5.373   2.802   7.983 -0.3468  0.1476  1.0122
  123OSM   H16S13093   5.269   2.761   7.986  0.2554 -1.9933 -2.0973
  123OSM   H16T13094   5.371   2.908   8.015  0.2729  1.0095 -1.6081
  123OSM   C17S13095   5.429   2.739   8.112 -0.3282  0.1849  0.3656
  123OSM   H17S13096   5.379   2.794   8.195 -0.3657  1.1316 -0.2820
  123OSM   H17T13097   5.538   2.760   8.116 -0.3285  0.1684  0.4692
  123OSM   C18S13098   5.404   2.587   8.141 -0.6180  0.2488  0.0183
  123OSM   H18S13099   5.295   2.566   8.147 -0.8311  1.0362 -0.9760
  123OSM   H18T13100   5.469   2.545   8.221 -2.5139  0.3501  1.6903
  123OSM   H18U13101   5.434   2.538   8.046 -0.3218 -0.1065  0.2934
  123OSM    C1F13102   5.654   3.245   6.501 -0.2232 -0.5383  0.2700
  123OSM     OF13103   5.609   3.331   6.421  0.3154  0.0803 -0.9205
  123OSM    C2F13104   5.761   3.276   6.603 -0.5645 -0.9216 -0.2482
  123OSM    H2F13105   5.831   3.348   6.553  0.1219 -1.7234 -0.4649
  123OSM    H2G13106   5.804   3.180   6.637  1.0642  0.3369  1.4869
  123OSM    C3F13107   5.706   3.334   6.733  0.9080  0.0702 -0.4621
  123OSM    H3F13108   5.627   3.271   6.780 -0.7351  2.1555 -0.3084
  123OSM    H3G13109   5.636   3.413   6.700  0.6413  0.0572  0.0598
  123OSM    C4F13110   5.812   3.393   6.831 -0.0259 -1.4601 -0.1805
  123OSM    H4F13111   5.864   3.474   6.775 -4.2304 -0.1177 -2.5704
  123OSM    H4G13112   5.888   3.313   6.843  2.6804  1.0964  1.2750
  123OSM    C5F13113   5.767   3.451   6.961 -0.0632 -0.4229  0.8124
  123OSM    H5F13114   5.698   3.386   7.019 -0.4995 -0.9396 -0.2630
  123OSM    H5G13115   5.708   3.544   6.950  0.7864 -0.1385 -2.0055
  123OSM    C6F13116   5.885   3.484   7.039 -0.4294  0.1690  0.0708
  123OSM    H6F13117   5.937   3.563   6.981 -0.4411 -0.5530 -0.9578
  123OSM    H6G13118   5.950   3.394   7.047  0.9618  1.1294  0.0807
  123OSM    C7F13119   5.855   3.530   7.183 -0.2622  0.4568 -0.1893
  123OSM    H7F13120   5.781   3.457   7.221  0.1433 -0.6587 -1.4676
  123OSM    H7G13121   5.807   3.630   7.184 -1.1402  0.1552 -3.1088
  123OSM    C8F13122   5.979   3.540   7.276 -0.0316  0.0421 -0.1021
  123OSM    H8F13123   6.051   3.611   7.230 -0.1177  0.1453 -0.0794
  123OSM    H8G13124   6.031   3.442   7.281  0.6106  0.4241  2.4898
  123OSM    C9F13125   5.938   3.594   7.414 -0.9328 -0.3219 -0.9504
  123OSM    H9F13126   5.868   3.679   7.414  0.8104  1.1972 -2.2989
  123OSM   C10F13127   5.973   3.550   7.538  0.5786 -0.1538  0.0211
  123OSM   H10F13128   5.927   3.593   7.628 -0.2424 -0.7950 -0.0814
  123OSM   C11F13129   6.072   3.441   7.574  0.2053  0.6018  0.0827
  123OSM   H11F13130   6.144   3.411   7.494 -1.2914  0.1789 -1.1401
  123OSM   H11G13131   6.012   3.352   7.602  2.1123 -1.2980 -1.4334
  123OSM   C12F13132   6.162   3.482   7.700  0.6804 -0.4096  0.1179
  123OSM   H12F13133   6.208   3.581   7.679  0.6225  0.1573  2.4433
  123OSM   H12G13134   6.248   3.413   7.711  1.1765  0.0677 -0.6474
  123OSM   C13F13135   6.086   3.491   7.831  0.3269  0.0202 -0.6324
  123OSM   H13F13136   6.047   3.390   7.856 -1.4287  0.5595 -1.0284
  123OSM   H13G13137   6.000   3.561   7.839  0.2074 -0.3302  2.2334
  123OSM   C14F13138   6.163   3.542   7.953 -0.1037 -0.5390 -0.7286
  123OSM   H14F13139   6.250   3.473   7.960 -0.6964 -1.5737 -2.6981
  123OSM   H14G13140   6.094   3.531   8.039 -2.3539 -1.6856 -2.5578
  123OSM   C15F13141   6.198   3.689   7.948 -0.3590  0.6031  0.0000
  123OSM   H15F13142   6.115   3.735   7.890  0.3852 -0.2104 -1.7742
  123OSM   H15G13143   6.297   3.710   7.903 -0.0877  1.2708  0.8751
  123OSM   C16F13144   6.197   3.768   8.073  0.0407  0.3045 -1.3826
  123OSM   H16F13145   6.257   3.859   8.051  0.8059 -0.5881 -3.2478
  123OSM   H16G13146   6.253   3.705   8.146  2.8121  2.3132 -1.5999
  123OSM   C17F13147   6.054   3.804   8.115 -0.4381 -0.0644 -0.2606
  123OSM   H17F13148   5.996   3.712   8.137  0.1600 -0.6069 -0.9291
  123OSM   H17G13149   6.014   3.860   8.028 -0.7545  1.1776  0.6601
  123OSM   C18F13150   6.049   3.892   8.243  0.1670 -0.4329  0.8623
  123OSM   H18F13151   6.116   3.856   8.324  2.3190  1.4824  0.0144
  123OSM   H18G13152   5.945   3.908   8.280 -1.1400  1.2722 -3.0948
  123OSM   H18H13153   6.080   3.993   8.209 -0.3904 -0.3622  0.5537
  124OSM      N13154   1.209   6.210   5.782 -0.2721  0.6110  0.1326
  124OSM    C1513155   1.180   6.068   5.818  0.0806  0.3539  0.6363
  124OSM   H15A13156   1.129   6.009   5.743  4.0649 -2.5657 -0.1432
  124OSM   H15B13157   1.113   6.076   5.903  0.7926  0.1534  1.2292
  124OSM   H15C13158   1.270   6.019   5.852  0.7815  0.9824 -0.2578
  124OSM    C1413159   1.309   6.209   5.673  0.2322 -0.2732  0.0802
  124OSM   H14A13160   1.397   6.150   5.691 -0.4877 -1.7225 -0.9232
  124OSM   H14B13161   1.342   6.305   5.637  2.5851 -1.6861 -1.8403
  124OSM   H14C13162   1.256   6.169   5.587 -4.2323  3.6586  0.5963
  124OSM    C1313163   1.087   6.278   5.739  0.7740 -0.4791 -0.2434
  124OSM   H13A13164   1.020   6.280   5.823 -0.9117  1.1484 -1.5512
  124OSM   H13B13165   1.042   6.235   5.651 -2.0471  0.5463  0.5847
  124OSM   H13C13166   1.109   6.381   5.716 -1.1100  0.6694  2.5772
  124OSM    C1213167   1.268   6.288   5.896  0.2871 -0.8357 -0.2473
  124OSM   H12A13168   1.289   6.387   5.860 -2.0295 -0.4052 -0.5867
  124OSM   H12B13169   1.362   6.247   5.930 -0.5156 -1.4406  1.3600
  124OSM    C1113170   1.182   6.310   6.023  0.5467 -0.4516  0.3272
  124OSM   H11A13171   1.090   6.369   6.001  1.1832  0.5697  0.3054
  124OSM   H11B13172   1.243   6.370   6.093  1.6490 -0.4407 -0.6158
  124OSM      P13173   1.240   6.100   6.174 -0.2935  0.3240  0.1155
  124OSM    O1313174   1.174   5.971   6.208  0.1851 -0.7004 -0.4950
  124OSM    O1413175   1.377   6.100   6.115 -0.0100 -0.8975  0.1775
  124OSM    O1113176   1.240   6.191   6.301  0.7103  0.6940  0.0587
  124OSM    O1213177   1.144   6.183   6.076 -0.3952  0.4296 -0.4715
  124OSM    C1S13178   1.112   6.234   6.366 -0.7119 -0.1475 -0.0109
  124OSM    H1S13179   1.032   6.158   6.380  0.5737 -1.4040  0.6858
  124OSM    H1T13180   1.055   6.295   6.292 -0.3512  1.1321  0.7441
  124OSM     NF13181   1.043   6.286   6.604  0.4073 -0.1392  0.7738
  124OSM    HNF13182   0.991   6.368   6.629  0.0927  1.1176 -3.3547
  124OSM    C2S13183   1.144   6.314   6.496  0.2485  0.2323 -0.9306
  124OSM    H2S13184   1.244   6.274   6.520 -1.2580 -4.0665 -1.0009
  124OSM    C3S13185   1.160   6.465   6.447 -0.4347 -0.6824 -0.2298
  124OSM    H3S13186   1.065   6.502   6.403  0.6770  0.8208 -1.4844
  124OSM     O313187   1.260   6.494   6.349  0.1208 -0.3995  0.0670
  124OSM    HO313188   1.284   6.406   6.321  1.7375 -0.5627  1.7986
  124OSM    C4S13189   1.184   6.559   6.561  0.3256 -0.2983 -0.4155
  124OSM    H4S13190   1.089   6.590   6.607  2.0564  0.6144  2.8460
  124OSM    C5S13191   1.300   6.595   6.621 -0.8271 -0.2278  0.2899
  124OSM    H5S13192   1.390   6.564   6.566 -0.8035  1.0174 -0.4180
  124OSM    C6S13193   1.317   6.678   6.744 -0.0465 -0.3562  0.2505
  124OSM    H6S13194   1.366   6.616   6.822 -1.0760 -2.1862 -0.5004
  124OSM    H6T13195   1.221   6.720   6.782 -0.6392 -0.7733 -0.7408
  124OSM    C7S13196   1.409   6.802   6.719  0.2339  0.7072 -0.5251
  124OSM    H7S13197   1.346   6.872   6.660 -2.8645 -0.1322  1.5678
  124OSM    H7T13198   1.500   6.777   6.659 -1.4580 -0.2028 -2.8894
  124OSM    C8S13199   1.450   6.890   6.845 -0.1150  0.3900  0.8436
  124OSM    H8S13200   1.498   6.977   6.795 -0.1415 -0.7141 -1.2346
  124OSM    H8T13201   1.529   6.832   6.897  1.4616  0.1816 -1.6219
  124OSM    C9S13202   1.343   6.945   6.944 -0.0110  0.4388  1.2973
  124OSM    H9S13203   1.310   6.854   6.998  0.0124 -2.0409 -2.4722
  124OSM    H9T13204   1.256   6.974   6.882 -1.7138 -4.6090  0.8485
  124OSM   C10S13205   1.390   7.056   7.027  0.1504  0.3551 -0.5293
  124OSM   H10S13206   1.421   7.144   6.966  1.3492  0.1629 -0.2351
  124OSM   H10T13207   1.473   7.023   7.093 -1.2352  1.3404  1.8400
  124OSM   C11S13208   1.281   7.103   7.129 -1.1478 -0.0322 -0.2060
  124OSM   H11S13209   1.185   7.090   7.076 -0.8182  0.4837 -0.9423
  124OSM   H11T13210   1.294   7.210   7.157 -0.9952 -0.3580  1.0211
  124OSM   C12S13211   1.275   7.020   7.262  0.4484 -0.4797 -0.3350
  124OSM   H12S13212   1.376   7.035   7.308  1.0143  1.9632 -2.1338
  124OSM   H12T13213   1.262   6.912   7.240 -1.6696 -0.5121  0.8029
  124OSM   C13S13214   1.160   7.065   7.351 -0.2487  0.5315 -0.8687
  124OSM   H13S13215   1.058   7.029   7.324 -1.3946 -0.1084  3.4780
  124OSM   H13T13216   1.169   7.176   7.355  0.3718  0.5791 -2.5854
  124OSM   C14S13217   1.184   7.000   7.486  0.4029 -0.4438 -0.5211
  124OSM   H14S13218   1.272   7.048   7.534  0.7194 -1.6488  0.1644
  124OSM   H14T13219   1.204   6.891   7.474 -1.1156 -1.0811  1.9582
  124OSM   C15S13220   1.059   7.019   7.575  0.7844 -0.2753  0.0811
  124OSM   H15S13221   0.969   6.960   7.545 -0.0015 -0.0821  1.9594
  124OSM   H15T13222   1.031   7.126   7.577  0.0985 -0.4449 -0.2117
  124OSM   C16S13223   1.077   6.964   7.720  0.4642  0.3281  0.2470
  124OSM   H16S13224   1.181   6.985   7.756  0.6116 -2.0698  1.3896
  124OSM   H16T13225   1.092   6.855   7.712 -0.3212  0.2870 -0.8709
  124OSM   C17S13226   0.964   7.003   7.821 -0.0483  0.1246  0.2208
  124OSM   H17S13227   0.871   6.953   7.786  0.1359 -0.5926  0.7525
  124OSM   H17T13228   0.944   7.112   7.821  1.1592  0.3766  1.3936
  124OSM   C18S13229   0.982   6.962   7.967  0.8384 -0.5932  0.1416
  124OSM   H18S13230   0.944   6.857   7.974 -0.2700 -0.1148  2.2522
  124OSM   H18T13231   0.915   7.029   8.026 -0.5606 -0.8676 -1.0595
  124OSM   H18U13232   1.087   6.971   8.000  0.1664  1.8444  1.9196
  124OSM    C1F13233   1.038   6.166   6.661 -0.0240 -0.1946 -0.0167
  124OSM     OF13234   1.138   6.091   6.661 -0.1358  0.3333  0.4463
  124OSM    C2F13235   0.914   6.129   6.736 -0.4312  0.1883 -0.0921
  124OSM    H2F13236   0.844   6.098   6.655  1.2778 -0.9792 -1.1840
  124OSM    H2G13237   0.874   6.219   6.788  0.3052 -0.1453  1.0892
  124OSM    C3F13238   0.946   6.024   6.839 -0.5253 -0.0159 -0.3658
  124OSM    H3F13239   1.024   6.056   6.912 -0.4218 -0.0779 -0.4478
  124OSM    H3G13240   0.985   5.931   6.792 -0.3562 -0.5689  0.8244
  124OSM    C4F13241   0.810   5.984   6.905  0.5973 -0.1699  0.3303
  124OSM    H4F13242   0.735   5.969   6.825 -0.6279  1.4920  1.1061
  124OSM    H4G13243   0.786   6.069   6.972 -0.1846 -0.5262  0.5127
  124OSM    C5F13244   0.825   5.861   6.992  0.3518 -0.4743 -0.5754
  124OSM    H5F13245   0.907   5.798   6.950 -0.8955 -1.0608 -2.2671
  124OSM    H5G13246   0.735   5.797   6.984  0.8184 -1.3575  0.8288
  124OSM    C6F13247   0.847   5.895   7.145 -0.1985  0.4436 -0.0591
  124OSM    H6F13248   0.764   5.966   7.169 -0.6418  0.2143 -0.8760
  124OSM    H6G13249   0.948   5.937   7.161 -0.5657  0.3723  2.9793
  124OSM    C7F13250   0.839   5.777   7.241 -0.2996 -0.2873  0.4684
  124OSM    H7F13251   0.917   5.702   7.217 -0.7254 -0.4130 -0.6156
  124OSM    H7G13252   0.739   5.731   7.224 -0.5290  1.1522 -2.9302
  124OSM    C8F13253   0.851   5.819   7.388  0.2782 -0.3457  0.0324
  124OSM    H8F13254   0.779   5.902   7.409 -1.6650 -2.1065  0.6434
  124OSM    H8G13255   0.958   5.842   7.406  0.3246 -0.4632 -0.0927
  124OSM    C9F13256   0.813   5.698   7.476 -0.4850 -0.2640  0.0117
  124OSM    H9F13257   0.763   5.618   7.420 -0.5363 -0.6692  0.6320
  124OSM   C10F13258   0.813   5.700   7.613 -0.6949  0.7273  0.5931
  124OSM   H10F13259   0.772   5.611   7.663 -0.9457 -0.6088 -1.8369
  124OSM   C11F13260   0.861   5.801   7.711  0.8031  0.0095 -0.5562
  124OSM   H11F13261   0.776   5.864   7.746  0.1224 -0.6224 -1.0464
  124OSM   H11G13262   0.929   5.880   7.672 -0.5205  0.7748 -1.4137
  124OSM   C12F13263   0.932   5.732   7.830 -0.3160 -0.1436  0.0461
  124OSM   H12F13264   1.030   5.697   7.792 -1.0057 -1.5861 -0.4738
  124OSM   H12G13265   0.886   5.633   7.853  0.7334 -1.0290 -1.4873
  124OSM   C13F13266   0.942   5.813   7.963 -0.0267  0.2175  0.4888
  124OSM   H13F13267   1.017   5.778   8.036  0.2445 -0.4364 -0.0973
  124OSM   H13G13268   0.847   5.812   8.020  2.0870  0.3613  4.3550
  124OSM   C14F13269   0.972   5.958   7.927  0.1897  0.2653  0.1785
  124OSM   H14F13270   0.880   5.996   7.878  0.3668 -0.2081 -0.5397
  124OSM   H14G13271   1.058   5.958   7.857  0.1010 -1.4098  0.0290
  124OSM   C15F13272   0.997   6.047   8.054 -0.0934 -0.1277 -0.0829
  124OSM   H15F13273   1.060   5.977   8.113 -1.7860  0.0935  2.0814
  124OSM   H15G13274   0.905   6.064   8.113  0.5459  1.8130  0.4162
  124OSM   C16F13275   1.079   6.171   8.029 -0.2439  0.0167 -0.0522
  124OSM   H16F13276   1.084   6.232   8.122 -0.3472 -0.4392  0.2586
  124OSM   H16G13277   1.028   6.226   7.947  0.4616 -1.5058 -1.5639
  124OSM   C17F13278   1.224   6.151   7.981 -0.1344 -0.1427 -0.1295
  124OSM   H17F13279   1.214   6.109   7.878 -0.8169 -2.2956  0.7491
  124OSM   H17G13280   1.281   6.069   8.031  1.5777  1.1040  0.0553
  124OSM   C18F13281   1.313   6.268   7.976 -0.3961 -0.2049 -0.0983
  124OSM   H18F13282   1.316   6.313   8.077 -1.1888 -0.6076  0.1139
  124OSM   H18G13283   1.273   6.341   7.903 -1.4362 -0.7879 -0.1304
  124OSM   H18H13284   1.415   6.238   7.944  0.3190 -1.4962  3.0594
  125OSM      N13285   0.335   6.554   6.105  0.1421 -0.3088  0.5834
  125OSM    C1513286   0.346   6.662   6.207 -0.6793 -0.1507 -0.1903
  125OSM   H15A13287   0.257   6.652   6.267 -0.3063  0.7367  0.5331
  125OSM   H15B13288   0.344   6.762   6.165  1.8011  0.0333 -0.0483
  125OSM   H15C13289   0.433   6.646   6.270  0.4356 -1.4909 -1.9729
  125OSM    C1413290   0.335   6.424   6.179 -0.5502 -0.2706 -0.0185
  125OSM   H14A13291   0.438   6.403   6.206 -0.5843 -0.5637 -0.1123
  125OSM   H14B13292   0.304   6.337   6.124  1.5547 -1.6471  0.8387
  125OSM   H14C13293   0.275   6.430   6.268  0.6493  0.5182  0.7717
  125OSM    C1313294   0.201   6.566   6.035  0.2347 -0.2130 -0.0146
  125OSM   H13A13295   0.209   6.648   5.965  2.4851 -0.7265 -0.4246
  125OSM   H13B13296   0.118   6.578   6.104  1.1748  1.7815  0.8623
  125OSM   H13C13297   0.171   6.478   5.981 -0.2525  0.6307 -1.1741
  125OSM    C1213298   0.436   6.553   5.999 -0.0690  0.3166  0.3909
  125OSM   H12A13299   0.427   6.635   5.930  0.2949  0.8685  0.9830
  125OSM   H12B13300   0.427   6.460   5.945 -1.0197 -0.0889  1.1975
  125OSM    C1113301   0.588   6.549   6.042 -0.0465  0.5169  0.1938
  125OSM   H11A13302   0.608   6.652   6.078  0.9901  1.1947 -2.1535
  125OSM   H11B13303   0.653   6.532   5.954  0.7702  1.1237  0.6682
  125OSM      P13304   0.768   6.450   6.196 -0.0273 -0.0828 -0.2890
  125OSM    O1313305   0.792   6.326   6.272 -0.1030 -0.8035 -0.0494
  125OSM    O1413306   0.863   6.476   6.091  0.0004 -0.3956 -0.0645
  125OSM    O1113307   0.769   6.570   6.292 -0.2744 -1.0818 -0.2330
  125OSM    O1213308   0.616   6.454   6.147  0.5438 -0.0852 -0.0113
  125OSM    C1S13309   0.677   6.582   6.403 -1.0254 -0.4177  1.3028
  125OSM    H1S13310   0.653   6.482   6.446  0.7737 -0.9904  1.0808
  125OSM    H1T13311   0.588   6.633   6.361  1.3532  1.8586 -1.4173
  125OSM     NF13312   0.683   6.628   6.656 -0.0307 -0.0156  0.4804
  125OSM    HNF13313   0.638   6.703   6.703  2.5145  3.3204 -1.9141
  125OSM    C2S13314   0.748   6.656   6.523 -0.1022  0.7267  0.5023
  125OSM    H2S13315   0.845   6.603   6.516  1.2234  3.1412 -0.2799
  125OSM    C3S13316   0.753   6.796   6.485 -0.4779 -0.2139 -0.0325
  125OSM    H3S13317   0.653   6.843   6.488 -0.6079 -0.2276 -2.4120
  125OSM     O313318   0.809   6.827   6.356 -0.3052  0.1369 -0.0786
  125OSM    HO313319   0.798   6.749   6.302 -0.0762 -1.1936  1.7262
  125OSM    C4S13320   0.836   6.856   6.589 -0.1947  0.0700 -0.3977
  125OSM    H4S13321   0.938   6.815   6.602 -0.4705 -0.6918 -0.5917
  125OSM    C5S13322   0.806   6.955   6.675 -0.7636 -1.2107 -0.0812
  125OSM    H5S13323   0.707   7.003   6.677  0.0326  0.5208  1.3943
  125OSM    C6S13324   0.905   7.011   6.772 -0.4838  0.4333 -0.3048
  125OSM    H6S13325   0.925   7.116   6.743  0.0431  1.0635  2.0786
  125OSM    H6T13326   1.000   6.954   6.771 -1.4379 -1.2510  0.4271
  125OSM    C7S13327   0.857   7.015   6.915 -0.3363  0.3899 -0.1904
  125OSM    H7S13328   0.761   7.071   6.920 -1.5532 -1.4278 -1.8940
  125OSM    H7T13329   0.935   7.059   6.981 -0.5592 -0.7898  0.8975
  125OSM    C8S13330   0.817   6.878   6.977 -0.0621  0.0198  0.2452
  125OSM    H8S13331   0.726   6.843   6.924  0.3435 -0.9015  0.1470
  125OSM    H8T13332   0.792   6.893   7.084  0.4451 -0.3011  0.4136
  125OSM    C9S13333   0.933   6.774   6.969  0.1689  0.5794 -0.0666
  125OSM    H9S13334   1.005   6.787   7.053 -0.8470  1.4383  0.7181
  125OSM    H9T13335   0.987   6.770   6.873  0.9022 -3.3167  0.3574
  125OSM   C10S13336   0.887   6.632   6.984  0.4105 -0.7027 -0.2120
  125OSM   H10S13337   0.832   6.610   6.889  2.1756 -1.0636 -1.1969
  125OSM   H10T13338   0.820   6.629   7.073 -0.5805 -1.1048 -0.9397
  125OSM   C11S13339   0.999   6.528   6.977  0.3135  0.1522 -0.0230
  125OSM   H11S13340   1.092   6.588   6.987 -0.2437  0.7571  1.9868
  125OSM   H11T13341   1.012   6.474   6.880  3.2309 -1.3054  1.0622
  125OSM   C12S13342   0.990   6.417   7.085 -0.5816  0.0985  0.3678
  125OSM   H12S13343   0.903   6.350   7.067  0.0289 -0.9696  1.2462
  125OSM   H12T13344   0.972   6.467   7.182 -0.4958 -1.6564  1.3282
  125OSM   C13S13345   1.117   6.340   7.062  0.5310  0.9874  0.1631
  125OSM   H13S13346   1.202   6.412   7.069  1.1021  0.3382  0.0432
  125OSM   H13T13347   1.110   6.290   6.963 -0.6306 -1.0407  1.2249
  125OSM   C14S13348   1.129   6.229   7.169 -0.2511 -0.0825 -0.0950
  125OSM   H14S13349   1.219   6.170   7.140  1.2050  0.7109  2.5050
  125OSM   H14T13350   1.044   6.159   7.153  0.1309 -0.7002  0.5343
  125OSM   C15S13351   1.113   6.276   7.318  0.5999 -0.0011  0.8622
  125OSM   H15S13352   1.006   6.303   7.327 -0.4952 -3.2519 -0.9357
  125OSM   H15T13353   1.166   6.372   7.340  0.6935 -0.0345  0.7844
  125OSM   C16S13354   1.142   6.168   7.422  0.2774 -0.0512 -0.2776
  125OSM   H16S13355   1.251   6.146   7.424  0.1964 -0.4172  0.5493
  125OSM   H16T13356   1.090   6.073   7.398 -0.9615  0.2930  0.9305
  125OSM   C17S13357   1.119   6.219   7.574  0.6259 -0.4084 -0.0416
  125OSM   H17S13358   1.177   6.314   7.568  0.0997 -0.1109 -0.4423
  125OSM   H17T13359   1.173   6.151   7.644  0.5462 -0.0675  0.3521
  125OSM   C18S13360   0.974   6.237   7.620 -0.3054  0.6191 -0.3183
  125OSM   H18S13361   0.962   6.235   7.731 -1.7594 -0.0020 -0.4593
  125OSM   H18T13362   0.911   6.153   7.584 -1.0145  1.3991 -0.9513
  125OSM   H18U13363   0.933   6.337   7.593  1.9222  1.8681  0.6212
  125OSM    C1F13364   0.681   6.506   6.709 -0.6659 -0.0423 -0.1933
  125OSM     OF13365   0.749   6.413   6.666 -0.0682  0.7254 -0.1490
  125OSM    C2F13366   0.596   6.489   6.829 -0.1132  0.1436  0.3783
  125OSM    H2F13367   0.490   6.510   6.801  0.4837 -0.2067 -2.4919
  125OSM    H2G13368   0.623   6.572   6.898 -3.4605 -0.2108  2.3361
  125OSM    C3F13369   0.617   6.363   6.910  0.6798  0.4624 -0.1504
  125OSM    H3F13370   0.723   6.361   6.944  0.5554  0.0688  0.2109
  125OSM    H3G13371   0.584   6.268   6.862  2.0544 -1.2409  2.0767
  125OSM    C4F13372   0.537   6.372   7.046  0.3814 -0.4764  0.0708
  125OSM    H4F13373   0.427   6.378   7.027  0.5668  0.7236 -0.6949
  125OSM    H4G13374   0.566   6.472   7.085  1.0696 -0.0518 -1.4658
  125OSM    C5F13375   0.564   6.254   7.142 -0.3065 -0.3606  0.2180
  125OSM    H5F13376   0.675   6.255   7.153 -0.2693 -0.7155 -0.1154
  125OSM    H5G13377   0.538   6.151   7.109  0.9347 -0.4810 -0.4444
  125OSM    C6F13378   0.509   6.278   7.278 -0.1034  0.4995  0.2370
  125OSM    H6F13379   0.398   6.274   7.274 -0.2578 -0.5861  3.0219
  125OSM    H6G13380   0.557   6.372   7.311  2.7926 -0.7734 -0.0704
  125OSM    C7F13381   0.560   6.170   7.385 -0.3669  0.7649  0.6937
  125OSM    H7F13382   0.669   6.178   7.368 -0.6520  0.6032 -1.4739
  125OSM    H7G13383   0.514   6.070   7.367  2.7054 -0.5464 -0.4762
  125OSM    C8F13384   0.532   6.191   7.533  0.6379  0.1247 -0.8438
  125OSM    H8F13385   0.422   6.210   7.534  0.6150 -0.0043  0.2351
  125OSM    H8G13386   0.567   6.284   7.582 -2.7887  0.0467  2.1714
  125OSM    C9F13387   0.560   6.078   7.629 -0.0785  0.5565  0.2026
  125OSM    H9F13388   0.585   5.982   7.581  0.2182  0.2881  0.8741
  125OSM   C10F13389   0.563   6.082   7.758  0.1697  0.4270  0.2321
  125OSM   H10F13390   0.570   5.983   7.805  1.6939 -0.6245 -2.0642
  125OSM   C11F13391   0.539   6.203   7.848 -0.3819 -0.4366  1.0724
  125OSM   H11F13392   0.464   6.173   7.924 -0.3774  1.1385  1.7479
  125OSM   H11G13393   0.487   6.282   7.788 -0.0282 -0.8604  0.1892
  125OSM   C12F13394   0.678   6.253   7.905  0.3332 -0.7288  0.0968
  125OSM   H12F13395   0.751   6.282   7.826  0.4016 -0.7304  0.1600
  125OSM   H12G13396   0.717   6.172   7.969  0.1341 -0.6734  0.2924
  125OSM   C13F13397   0.638   6.378   7.990 -0.5077  0.6197  0.1358
  125OSM   H13F13398   0.584   6.332   8.075  1.1207 -1.9113 -0.0753
  125OSM   H13G13399   0.580   6.451   7.930 -0.2982 -0.2248 -1.1532
  125OSM   C14F13400   0.753   6.450   8.059 -0.1946 -0.2678  0.6118
  125OSM   H14F13401   0.811   6.385   8.128 -1.4693 -2.9831 -0.7155
  125OSM   H14G13402   0.716   6.540   8.114 -1.5307  0.2410 -1.0287
  125OSM   C15F13403   0.851   6.501   7.955  0.3405 -0.3014  0.0578
  125OSM   H15F13404   0.919   6.420   7.921 -0.6800 -0.3898 -1.9244
  125OSM   H15G13405   0.926   6.561   8.010  0.6705 -0.2537 -0.4302
  125OSM   C16F13406   0.783   6.572   7.829 -0.7622  0.1077 -0.3672
  125OSM   H16F13407   0.714   6.652   7.862 -3.4774 -2.7374  1.4418
  125OSM   H16G13408   0.732   6.493   7.769 -0.7688 -2.1173  2.3199
  125OSM   C17F13409   0.890   6.626   7.730  0.2916  0.2653  0.4326
  125OSM   H17F13410   0.943   6.542   7.680 -0.3241 -0.0418  0.2768
  125OSM   H17G13411   0.967   6.686   7.783  0.0520  1.7996 -0.8900
  125OSM   C18F13412   0.822   6.707   7.620 -0.0422 -0.3544  0.0333
  125OSM   H18F13413   0.726   6.659   7.593 -0.4337  1.2007 -1.4984
  125OSM   H18G13414   0.889   6.724   7.533 -0.2918  1.0240  0.0942
  125OSM   H18H13415   0.803   6.808   7.663  1.3869  0.0484 -0.2151
  126OSM      N13416   6.064   1.400   6.540  0.0254  0.0726 -0.1259
  126OSM    C1513417   5.988   1.516   6.593  0.2097  0.3995 -0.4410
  126OSM   H15A13418   6.014   1.614   6.555  0.4385 -0.3660 -2.3785
  126OSM   H15B13419   6.010   1.528   6.698 -0.5373  3.4925 -0.5501
  126OSM   H15C13420   5.881   1.498   6.592 -0.0492  1.3352  2.4104
  126OSM    C1413421   6.012   1.274   6.605  0.1485  0.3078 -0.2380
  126OSM   H14A13422   5.910   1.258   6.576 -0.2317  1.7340  0.2364
  126OSM   H14B13423   6.000   1.278   6.712  0.3781 -2.0907 -0.0740
  126OSM   H14C13424   6.070   1.190   6.568 -1.6006 -1.3255  0.5576
  126OSM    C1313425   6.036   1.388   6.394 -0.3316  0.8076 -0.0990
  126OSM   H13A13426   6.056   1.483   6.346 -1.0795  1.7367  1.3475
  126OSM   H13B13427   5.935   1.357   6.370 -1.1208  0.7921  2.8298
  126OSM   H13C13428   6.097   1.310   6.352 -1.1136 -1.0560  2.0062
  126OSM    C1213429   6.210   1.419   6.578 -0.0202  0.4311  0.5994
  126OSM   H12A13430   6.227   1.419   6.684  2.1096  2.7659  0.3503
  126OSM   H12B13431   6.257   1.510   6.544 -1.1777  1.9248  2.7984
  126OSM    C1113432   6.310   1.312   6.515  0.6506  0.1338 -0.5520
  126OSM   H11A13433   6.409   1.343   6.556  0.2923  0.8889 -0.2368
  126OSM   H11B13434   6.304   1.321   6.404 -2.0480  0.0824 -0.4788
  126OSM      P13435   6.377   1.060   6.529 -0.4671  0.2784  0.0568
  126OSM    O1313436   6.320   0.928   6.563 -0.3249 -0.0810 -0.1537
  126OSM    O1413437   6.431   1.083   6.396  0.3261 -0.4560  0.3968
  126OSM    O1113438   6.487   1.091   6.633  0.0071 -0.8723  0.1114
  126OSM    O1213439   6.271   1.175   6.553  0.4001 -0.0265 -0.2327
  126OSM    C1S13440   6.452   1.122   6.768 -1.2153  0.1624 -0.2197
  126OSM    H1S13441   6.398   1.036   6.812 -1.4999  0.3882 -0.1247
  126OSM    H1T13442   6.397   1.219   6.770 -1.5117  0.0053 -0.6170
  126OSM     NF13443   6.552   1.130   7.003 -0.1785 -0.3694 -0.6034
  126OSM    HNF13444   6.550   1.222   7.043  1.7786  0.5123 -2.3189
  126OSM    C2S13445   6.578   1.131   6.857  1.0569 -0.2562  1.0886
  126OSM    H2S13446   6.648   1.046   6.844  1.1898  0.0283 -0.2797
  126OSM    C3S13447   6.660   1.258   6.808  0.3085  0.6680 -0.4770
  126OSM    H3S13448   6.601   1.349   6.832  0.3997  0.5417  0.2452
  126OSM     O313449   6.693   1.271   6.669 -0.0810 -0.2013 -0.7529
  126OSM    HO313450   6.663   1.189   6.632  1.8477 -1.2023 -0.2336
  126OSM    C4S13451   6.780   1.265   6.893 -0.5333 -0.4271 -0.0639
  126OSM    H4S13452   6.781   1.348   6.965  1.6245 -0.6081  0.1555
  126OSM    C5S13453   6.902   1.203   6.885 -0.4411 -0.2496  0.3346
  126OSM    H5S13454   6.926   1.137   6.801  0.8690  2.6754 -1.7362
  126OSM    C6S13455   7.033   1.244   6.961 -0.0664  0.6330 -0.1763
  126OSM    H6S13456   7.107   1.290   6.893  1.3900 -0.8582  0.3494
  126OSM    H6T13457   7.096   1.160   6.999  0.3066  0.5933 -0.8678
  126OSM    C7S13458   7.021   1.340   7.079  0.0495 -0.0023  0.0751
  126OSM    H7S13459   6.960   1.289   7.157 -1.6363  1.6114 -0.1091
  126OSM    H7T13460   6.976   1.440   7.058  0.9910 -0.0150 -2.2305
  126OSM    C8S13461   7.160   1.375   7.136 -0.1028 -0.8834 -0.7756
  126OSM    H8S13462   7.204   1.453   7.069 -0.2824  0.1716  0.2955
  126OSM    H8T13463   7.229   1.289   7.144  1.8522  0.7443  3.0976
  126OSM    C9S13464   7.146   1.445   7.273 -0.0220  0.0039  0.7382
  126OSM    H9S13465   7.066   1.392   7.329 -0.9355  0.0591 -0.4551
  126OSM    H9T13466   7.112   1.549   7.257  0.1040 -0.3569 -2.5979
  126OSM   C10S13467   7.283   1.452   7.344 -0.3480  0.1497 -0.1110
  126OSM   H10S13468   7.338   1.525   7.281 -2.2656 -0.4287 -2.6633
  126OSM   H10T13469   7.314   1.346   7.357 -1.1732  0.0685  1.3494
  126OSM   C11S13470   7.256   1.508   7.487 -0.2174 -0.6006 -0.2656
  126OSM   H11S13471   7.222   1.418   7.543  0.3509 -0.7496 -0.1469
  126OSM   H11T13472   7.173   1.581   7.478  0.5043  0.0703 -1.9003
  126OSM   C12S13473   7.379   1.579   7.554 -0.3832  0.6002 -0.5309
  126OSM   H12S13474   7.375   1.684   7.520  0.2814  0.4505 -1.1017
  126OSM   H12T13475   7.470   1.523   7.523 -0.6836 -0.6661  0.7774
  126OSM   C13S13476   7.364   1.583   7.703  0.2789  0.6661  0.0056
  126OSM   H13S13477   7.379   1.484   7.752 -2.2512  0.2330  0.0361
  126OSM   H13T13478   7.260   1.616   7.724 -0.6360 -1.3883 -1.0225
  126OSM   C14S13479   7.454   1.687   7.769  0.0344 -0.4366 -0.6368
  126OSM   H14S13480   7.438   1.777   7.705 -1.6325 -0.3717 -0.1624
  126OSM   H14T13481   7.563   1.665   7.765  0.2724  0.4914  0.2167
  126OSM   C15S13482   7.407   1.729   7.909  0.2130  0.0205 -0.1159
  126OSM   H15S13483   7.422   1.651   7.986 -0.2765 -0.5986 -0.6346
  126OSM   H15T13484   7.297   1.742   7.903  0.1532  0.2756  1.2441
  126OSM   C16S13485   7.471   1.853   7.973  0.8869  0.1896 -0.2542
  126OSM   H16S13486   7.472   1.934   7.896 -1.3620  2.2714  1.7418
  126OSM   H16T13487   7.578   1.835   8.000  0.6523 -0.8564 -0.0078
  126OSM   C17S13488   7.376   1.904   8.080  0.1622 -0.3250 -0.3380
  126OSM   H17S13489   7.275   1.909   8.035  1.1068 -2.4413 -2.9810
  126OSM   H17T13490   7.408   2.006   8.112  4.9520 -2.3967  2.5149
  126OSM   C18S13491   7.379   1.818   8.209 -0.0974 -0.0243  0.0821
  126OSM   H18S13492   7.340   1.719   8.177 -1.7524  0.4978  0.4040
  126OSM   H18T13493   7.307   1.855   8.285  1.1751  0.4489  1.0952
  126OSM   H18U13494   7.481   1.806   8.252  0.0761  1.4445  0.1295
  126OSM    C1F13495   6.535   1.010   7.063  0.2218  0.5375 -0.3460
  126OSM     OF13496   6.516   0.903   7.002  0.0299 -0.0271  0.1353
  126OSM    C2F13497   6.528   1.002   7.213 -0.2334  0.7632  0.2124
  126OSM    H2F13498   6.434   1.049   7.248  0.3971  3.5686 -1.5598
  126OSM    H2G13499   6.617   1.061   7.243  1.5646 -0.9754 -1.4215
  126OSM    C3F13500   6.542   0.857   7.277  0.4212 -0.3721 -0.0274
  126OSM    H3F13501   6.646   0.823   7.259  1.3099 -0.3264  3.9517
  126OSM    H3G13502   6.468   0.786   7.235  0.9309 -0.4841 -0.7458
  126OSM    C4F13503   6.523   0.856   7.431  0.4134  0.7091  0.2080
  126OSM    H4F13504   6.487   0.754   7.456 -1.3904  1.2497 -0.0599
  126OSM    H4G13505   6.436   0.920   7.458 -0.6353 -0.9871  1.0503
  126OSM    C5F13506   6.654   0.885   7.514  0.1120 -0.2172  0.5533
  126OSM    H5F13507   6.676   0.987   7.477  1.7829 -1.4981 -2.3219
  126OSM    H5G13508   6.742   0.826   7.481 -0.2587 -0.3412 -0.2600
  126OSM    C6F13509   6.635   0.887   7.663  0.0602 -0.5282 -0.5238
  126OSM    H6F13510   6.619   0.783   7.698 -0.6463  0.4399  2.3051
  126OSM    H6G13511   6.539   0.938   7.688  0.6407  0.9848 -1.2623
  126OSM    C7F13512   6.760   0.936   7.739 -0.6344  0.4902  0.8767
  126OSM    H7F13513   6.787   1.035   7.698 -1.1408  0.9624  1.6509
  126OSM    H7G13514   6.840   0.870   7.698 -2.0231 -0.4993 -0.3277
  126OSM    C8F13515   6.756   0.920   7.894 -0.0312 -0.2974  0.8396
  126OSM    H8F13516   6.752   0.810   7.912 -0.4844 -0.7384 -1.5436
  126OSM    H8G13517   6.657   0.955   7.928 -1.3096 -1.6392 -1.2151
  126OSM    C9F13518   6.881   0.978   7.963  0.1095 -0.3537 -0.2096
  126OSM    H9F13519   6.977   0.929   7.940 -0.4390 -2.7622  2.1530
  126OSM   C10F13520   6.872   1.055   8.078  0.4557 -0.0431 -0.5850
  126OSM   H10F13521   6.964   1.075   8.134  0.0686 -0.4145  0.2099
  126OSM   C11F13522   6.753   1.089   8.160 -0.5185 -0.1752 -0.0450
  126OSM   H11F13523   6.683   1.003   8.153 -1.0721  0.4120 -2.8612
  126OSM   H11G13524   6.703   1.184   8.131 -0.9637  0.3143  2.1248
  126OSM   C12F13525   6.795   1.108   8.306 -0.5766 -0.1380 -0.3780
  126OSM   H12F13526   6.711   1.154   8.362  0.1988 -1.0690  1.6495
  126OSM   H12G13527   6.888   1.168   8.318 -0.6218  0.2081 -1.6549
  126OSM   C13F13528   6.833   0.976   8.375  0.0564  0.8028  0.2567
  126OSM   H13F13529   6.930   0.940   8.336 -1.0820 -1.9676 -0.2489
  126OSM   H13G13530   6.754   0.905   8.342 -0.5826  2.0331 -0.9461
  126OSM   C14F13531   6.842   0.986   8.533 -0.0156 -0.9212  0.2110
  126OSM   H14F13532   6.735   0.996   8.563 -0.7808  0.9949 -2.6760
  126OSM   H14G13533   6.896   1.080   8.557  1.3515 -1.6491  0.0707
  126OSM   C15F13534   6.921   0.873   8.593  0.7936  0.6747 -0.5247
  126OSM   H15F13535   6.989   0.909   8.674 -0.0175  0.5225  0.2329
  126OSM   H15G13536   6.988   0.832   8.514  1.9352  0.3613  0.5653
  126OSM   C16F13537   6.832   0.747   8.625 -1.0241 -0.4970 -0.1532
  126OSM   H16F13538   6.775   0.724   8.532 -1.0786  2.5913 -0.9931
  126OSM   H16G13539   6.747   0.762   8.695 -0.3229  1.2567  0.3684
  126OSM   C17F13540   6.923   0.635   8.671  0.9963  0.5390  0.0949
  126OSM   H17F13541   6.995   0.611   8.590  0.8110  1.7494 -0.4569
  126OSM   H17G13542   6.852   0.551   8.683  0.2634  0.7319 -2.2582
  126OSM   C18F13543   7.006   0.651   8.799 -0.5526  0.3386  0.2701
  126OSM   H18F13544   7.041   0.757   8.802  0.1246  0.1872 -1.1893
  126OSM   H18G13545   7.093   0.582   8.799 -2.9418 -2.9452 -1.0316
  126OSM   H18H13546   6.934   0.625   8.879 -0.7555 -2.4392 -0.7240
  127OSM      N13547   6.657   5.951   6.485 -0.0514  0.7109 -0.0024
  127OSM    C1513548   6.556   5.977   6.595 -0.2720 -0.1636 -0.1538
  127OSM   H15A13549   6.469   6.024   6.553  0.6872  3.3707  1.4796
  127OSM   H15B13550   6.588   6.047   6.671 -0.2058 -0.9338  0.5417
  127OSM   H15C13551   6.530   5.884   6.643 -1.4875  0.4553  0.4069
  127OSM    C1413552   6.733   6.085   6.467  0.3502  0.1145  0.3499
  127OSM   H14A13553   6.764   6.112   6.566  0.2552 -0.7787  0.6325
  127OSM   H14B13554   6.665   6.160   6.431  0.3689 -0.8820 -1.9424
  127OSM   H14C13555   6.827   6.084   6.413 -1.6640  0.3863 -3.5184
  127OSM    C1313556   6.755   5.849   6.537  0.2170  0.4190 -0.1851
  127OSM   H13A13557   6.777   5.870   6.641  1.0856 -0.5076 -0.1534
  127OSM   H13B13558   6.842   5.835   6.474 -1.3536 -1.1052 -2.1642
  127OSM   H13C13559   6.703   5.754   6.540  0.8300  0.0904  1.8963
  127OSM    C1213560   6.590   5.917   6.351 -0.3630  1.0616  0.4165
  127OSM   H12A13561   6.530   5.828   6.366  0.3251  0.2148 -1.4458
  127OSM   H12B13562   6.664   5.877   6.283 -0.0849 -0.7273  1.6994
  127OSM    C1113563   6.499   6.020   6.276  0.3518  0.6054 -0.2656
  127OSM   H11A13564   6.494   5.989   6.170  1.3072 -0.5930  0.0163
  127OSM   H11B13565   6.552   6.117   6.281  0.0689  0.7308  0.5905
  127OSM      P13566   6.295   6.163   6.374  0.1643 -0.4390  0.5141
  127OSM    O1313567   6.382   6.258   6.435 -0.2353  0.0712 -0.4521
  127OSM    O1413568   6.235   6.205   6.238 -0.0702  0.3057 -0.6031
  127OSM    O1113569   6.179   6.121   6.465  0.1955  0.2379 -0.1110
  127OSM    O1213570   6.373   6.026   6.342 -0.1677  0.1443 -0.6564
  127OSM    C1S13571   6.132   5.989   6.477  0.0583 -0.2838 -0.0148
  127OSM    H1S13572   6.219   5.923   6.500  1.2015  1.3691  0.6051
  127OSM    H1T13573   6.097   5.962   6.375  1.1702  3.2308 -1.4821
  127OSM     NF13574   5.972   5.843   6.594  0.0115 -0.0837 -0.1314
  127OSM    HNF13575   5.873   5.848   6.581 -0.4192  0.9344  2.8791
  127OSM    C2S13576   6.035   5.972   6.594 -0.5320 -0.0550  0.4846
  127OSM    H2S13577   6.091   5.974   6.689 -2.1549 -2.8036  1.6043
  127OSM    C3S13578   5.933   6.084   6.599 -0.0572 -0.0302 -0.0850
  127OSM    H3S13579   5.867   6.076   6.510 -0.4944  0.4873  0.1839
  127OSM     O313580   5.984   6.213   6.595 -0.0329  0.6212 -0.3251
  127OSM    HO313581   6.061   6.195   6.542 -0.0642  1.9459 -0.8467
  127OSM    C4S13582   5.850   6.064   6.720 -0.3274  0.4892 -0.0609
  127OSM    H4S13583   5.899   6.032   6.813 -1.2866  1.1272  0.6816
  127OSM    C5S13584   5.717   6.069   6.712  0.4600  0.4122  0.0628
  127OSM    H5S13585   5.666   6.067   6.614 -0.8125  0.4001  0.6948
  127OSM    C6S13586   5.621   6.044   6.828 -0.0305  0.2924  0.2053
  127OSM    H6S13587   5.560   5.954   6.806  0.9106 -0.4500  0.5523
  127OSM    H6T13588   5.563   6.138   6.846  0.3228  0.3447  1.1233
  127OSM    C7S13589   5.676   6.015   6.972  0.0290  0.1566  0.3843
  127OSM    H7S13590   5.752   6.090   7.000 -0.9162  2.1619 -2.1000
  127OSM    H7T13591   5.722   5.915   6.987 -0.4986  0.4078  5.5754
  127OSM    C8S13592   5.571   6.033   7.093 -0.3751  0.1748 -0.0608
  127OSM    H8S13593   5.486   5.962   7.084  2.4513 -3.5859  0.7065
  127OSM    H8T13594   5.529   6.136   7.093 -0.1092  0.3030  1.3903
  127OSM    C9S13595   5.627   5.999   7.233 -0.0258 -0.0283  0.5349
  127OSM    H9S13596   5.725   6.049   7.247 -0.9722  2.0002  0.2290
  127OSM    H9T13597   5.642   5.889   7.239  1.0259  0.1155  0.6457
  127OSM   C10S13598   5.538   6.029   7.355  0.3238 -0.0818 -0.1651
  127OSM   H10S13599   5.449   5.963   7.351  0.3819 -0.1649 -0.0766
  127OSM   H10T13600   5.503   6.135   7.348  0.2593 -0.1385 -0.7918
  127OSM   C11S13601   5.597   6.011   7.499  0.0000 -1.3259  0.3762
  127OSM   H11S13602   5.704   6.038   7.483 -0.2568 -0.8115 -0.5731
  127OSM   H11T13603   5.589   5.902   7.515 -2.7029 -1.2137  0.1895
  127OSM   C12S13604   5.541   6.104   7.604 -0.7057  0.2597  0.2761
  127OSM   H12S13605   5.443   6.065   7.638 -1.1990  1.5537  0.4221
  127OSM   H12T13606   5.511   6.204   7.563 -0.3643  0.5131  0.6375
  127OSM   C13S13607   5.621   6.109   7.731 -0.7586  0.2231 -0.1400
  127OSM   H13S13608   5.725   6.136   7.702  0.0004 -0.9775  1.2909
  127OSM   H13T13609   5.625   6.005   7.771 -1.5366  0.3721  0.3462
  127OSM   C14S13610   5.574   6.204   7.837 -0.0179  0.1127 -0.3715
  127OSM   H14S13611   5.463   6.196   7.837 -0.1289  1.0038 -1.9448
  127OSM   H14T13612   5.594   6.306   7.796  0.0087  1.0148  1.7899
  127OSM   C15S13613   5.641   6.174   7.968  0.1735  0.8091 -0.0611
  127OSM   H15S13614   5.751   6.174   7.953  0.3738 -0.3483  1.1566
  127OSM   H15T13615   5.626   6.073   8.010  3.8437 -0.0034 -0.3136
  127OSM   C16S13616   5.603   6.258   8.085  0.3136 -0.6168 -0.2624
  127OSM   H16S13617   5.492   6.255   8.090  0.1867  1.3474 -1.1224
  127OSM   H16T13618   5.622   6.364   8.060 -2.1844  0.2585  1.1791
  127OSM   C17S13619   5.659   6.215   8.218  0.9073 -0.5509 -0.1355
  127OSM   H17S13620   5.654   6.104   8.221  1.7951 -0.5741  0.9354
  127OSM   H17T13621   5.612   6.268   8.304  3.3100  0.1748  0.8232
  127OSM   C18S13622   5.815   6.239   8.225  0.6741 -0.3498  0.0791
  127OSM   H18S13623   5.860   6.151   8.275 -0.8314 -2.2329 -1.7007
  127OSM   H18T13624   5.829   6.331   8.286 -0.6525 -0.6450  0.8467
  127OSM   H18U13625   5.860   6.257   8.125  2.0746  0.2708  0.7909
  127OSM    C1F13626   6.047   5.734   6.626 -0.2955 -0.7726 -0.8440
  127OSM     OF13627   6.167   5.752   6.664  0.7052  0.0266 -0.4475
  127OSM    C2F13628   5.990   5.597   6.626 -0.7565 -0.0392  0.3303
  127OSM    H2F13629   6.020   5.530   6.543 -1.8077 -0.5496  0.3387
  127OSM    H2G13630   5.879   5.606   6.615 -1.0614 -1.1275  2.0812
  127OSM    C3F13631   5.997   5.534   6.766 -0.0353 -0.8400  0.9518
  127OSM    H3F13632   6.102   5.528   6.802  0.0990 -0.0354  0.7024
  127OSM    H3G13633   5.949   5.434   6.757 -3.5435  0.8211 -0.7368
  127OSM    C4F13634   5.916   5.620   6.867 -0.1586  0.2242 -0.1617
  127OSM    H4F13635   5.822   5.664   6.827 -2.7099 -3.6675  0.9323
  127OSM    H4G13636   5.984   5.702   6.897 -1.5653  0.5230  2.5307
  127OSM    C5F13637   5.875   5.540   7.002  0.0442 -0.6923 -0.1756
  127OSM    H5F13638   5.959   5.478   7.041  0.6696  0.1455 -0.1786
  127OSM    H5G13639   5.793   5.470   6.975  0.6961 -2.4215  1.9501
  127OSM    C6F13640   5.825   5.630   7.120  0.0478 -0.1800 -0.9674
  127OSM    H6F13641   5.726   5.665   7.082 -0.4540  0.9028  1.1637
  127OSM    H6G13642   5.881   5.725   7.132 -1.9935  0.8691  0.8999
  127OSM    C7F13643   5.815   5.550   7.247 -0.3856 -0.1602 -0.0543
  127OSM    H7F13644   5.909   5.500   7.281 -0.2947  0.4135  0.5689
  127OSM    H7G13645   5.758   5.458   7.222  1.5239 -0.7905 -2.4237
  127OSM    C8F13646   5.749   5.622   7.365  0.0351  0.1497  0.1784
  127OSM    H8F13647   5.716   5.542   7.434  2.0145 -1.5579 -0.7485
  127OSM    H8G13648   5.661   5.684   7.335  0.4894  0.3582 -0.7763
  127OSM    C9F13649   5.844   5.709   7.438  0.0974  0.6285  0.1153
  127OSM    H9F13650   5.892   5.785   7.374  0.8293 -1.2894 -1.7459
  127OSM   C10F13651   5.879   5.707   7.565  0.2171 -0.3605 -0.3801
  127OSM   H10F13652   5.943   5.783   7.611 -1.0140 -0.1427  1.0685
  127OSM   C11F13653   5.836   5.602   7.665  0.1962  0.0416  0.0735
  127OSM   H11F13654   5.925   5.542   7.695 -1.1339 -2.1129 -0.0318
  127OSM   H11G13655   5.767   5.522   7.628 -1.7292  0.9347  1.5942
  127OSM   C12F13656   5.759   5.663   7.785  0.8043  0.3349 -0.2879
  127OSM   H12F13657   5.720   5.579   7.846  1.5901  1.3101  1.6247
  127OSM   H12G13658   5.674   5.725   7.748 -1.3241 -1.7629  0.8277
  127OSM   C13F13659   5.831   5.741   7.894  0.9079 -0.3110  0.1060
  127OSM   H13F13660   5.766   5.755   7.983  0.0435 -1.3607 -0.3352
  127OSM   H13G13661   5.853   5.842   7.853 -3.5301  0.2052 -1.5208
  127OSM   C14F13662   5.950   5.673   7.948  0.5380  0.0054  0.1442
  127OSM   H14F13663   6.024   5.754   7.966  0.2056 -0.2114  2.9890
  127OSM   H14G13664   6.000   5.603   7.877  0.4587  0.1801 -0.0866
  127OSM   C15F13665   5.919   5.594   8.078  0.3730 -0.0286 -0.3221
  127OSM   H15F13666   5.836   5.523   8.058  0.9452 -0.4702 -1.2132
  127OSM   H15G13667   5.893   5.672   8.153 -2.0967  0.4744 -1.5925
  127OSM   C16F13668   6.043   5.513   8.124  0.5587  0.4309  0.0802
  127OSM   H16F13669   6.132   5.578   8.134  0.6240  0.3099  0.2884
  127OSM   H16G13670   6.055   5.439   8.042 -1.3668  0.1114  0.0279
  127OSM   C17F13671   6.028   5.457   8.265  0.5475 -0.2679 -0.0644
  127OSM   H17F13672   5.976   5.359   8.265  1.4798 -0.8487  2.3872
  127OSM   H17G13673   5.964   5.528   8.320  0.1164 -2.1269  1.9857
  127OSM   C18F13674   6.160   5.420   8.344  0.1509  0.0827 -0.1865
  127OSM   H18F13675   6.208   5.519   8.364 -2.6560  1.1160  2.0291
  127OSM   H18G13676   6.226   5.360   8.278  1.0668  2.8182 -1.9401
  127OSM   H18H13677   6.138   5.366   8.438  0.4583 -0.3586 -0.3669
  128OSM      N13678   2.989   2.306   6.027 -0.1094 -0.3314 -0.2431
  128OSM    C1513679   3.115   2.218   6.013  0.0784 -0.1466 -0.0006
  128OSM   H15A13680   3.198   2.274   6.053  0.3780  2.1200 -3.3701
  128OSM   H15B13681   3.143   2.206   5.909  2.9636  0.7652  0.6020
  128OSM   H15C13682   3.099   2.124   6.065  1.3756 -0.4534 -0.1291
  128OSM    C1413683   2.960   2.325   6.167  0.2219  0.1415  0.0751
  128OSM   H14A13684   3.016   2.403   6.217  0.3506 -0.1005  0.3084
  128OSM   H14B13685   2.978   2.241   6.232 -2.1165  0.8134  1.6933
  128OSM   H14C13686   2.858   2.353   6.186 -0.0918 -0.5781 -0.5284
  128OSM    C1313687   3.028   2.442   5.969  0.1675  1.0427  0.7073
  128OSM   H13A13688   3.039   2.438   5.861 -1.6581 -0.5703  0.5311
  128OSM   H13B13689   3.113   2.490   6.016  1.1976 -1.4520  1.5837
  128OSM   H13C13690   2.945   2.510   5.960 -0.8449 -0.0689  1.4741
  128OSM    C1213691   2.873   2.240   5.957  0.2772  0.5888  0.4468
  128OSM   H12A13692   2.857   2.142   6.000  3.5251  1.1374  3.4107
  128OSM   H12B13693   2.904   2.217   5.856  1.2949 -1.0801  1.0982
  128OSM    C1113694   2.746   2.324   5.951 -0.3002 -0.5684  0.1686
  128OSM   H11A13695   2.684   2.261   5.884  1.1497  0.0426 -1.8297
  128OSM   H11B13696   2.755   2.426   5.910  0.8654 -2.0955 -3.8598
  128OSM      P13697   2.526   2.358   6.084  0.0192  0.1867  0.4007
  128OSM    O1313698   2.507   2.498   6.036 -0.2835  0.5731  0.1054
  128OSM    O1413699   2.441   2.259   6.019  0.4909  0.2042 -0.2942
  128OSM    O1113700   2.494   2.354   6.239 -0.2126 -0.2836  0.0877
  128OSM    O1213701   2.680   2.319   6.076  0.5229 -0.1030  0.1588
  128OSM    C1S13702   2.592   2.355   6.343  0.0006 -0.3590 -0.5989
  128OSM    H1S13703   2.669   2.429   6.312  1.2776 -1.1616  0.5548
  128OSM    H1T13704   2.625   2.250   6.357  0.2631 -0.0600  1.2240
  128OSM     NF13705   2.627   2.404   6.588 -0.2062  0.0317  0.4202
  128OSM    HNF13706   2.618   2.337   6.661 -2.4417 -0.3326 -0.1310
  128OSM    C2S13707   2.531   2.406   6.481  0.5403  0.2745  0.9124
  128OSM    H2S13708   2.500   2.511   6.466 -1.8404 -0.3238  1.2263
  128OSM    C3S13709   2.399   2.331   6.519 -0.2464 -0.3759  0.5635
  128OSM    H3S13710   2.428   2.224   6.522 -0.4449 -0.4847 -0.7512
  128OSM     O313711   2.299   2.332   6.417 -0.1600 -0.3065  0.3088
  128OSM    HO313712   2.345   2.333   6.333  0.6024 -2.4369  0.6363
  128OSM    C4S13713   2.337   2.380   6.650 -0.5774  0.1246 -0.2540
  128OSM    H4S13714   2.320   2.489   6.642  0.2959  0.2089 -1.1894
  128OSM    C5S13715   2.316   2.306   6.766 -0.1875 -0.2863  0.2431
  128OSM    H5S13716   2.333   2.198   6.773 -1.5991 -0.5827 -0.5823
  128OSM    C6S13717   2.266   2.356   6.894  0.2202 -0.1788  0.0977
  128OSM    H6S13718   2.156   2.342   6.899  0.4626 -2.0328  1.0000
  128OSM    H6T13719   2.304   2.461   6.900  1.6549 -0.6238 -0.8711
  128OSM    C7S13720   2.323   2.270   7.012 -0.0465  0.0256 -0.1553
  128OSM    H7S13721   2.290   2.165   6.996 -1.5428  0.7021 -1.9226
  128OSM    H7T13722   2.265   2.296   7.104 -1.7020 -1.2673 -0.7964
  128OSM    C8S13723   2.476   2.271   7.026  0.1976 -0.1675  0.2603
  128OSM    H8S13724   2.496   2.381   7.031  0.4283 -0.2534  2.3234
  128OSM    H8T13725   2.526   2.241   6.932  0.4097  0.7341  0.0759
  128OSM    C9S13726   2.544   2.193   7.149 -0.1744 -0.5009  0.3846
  128OSM    H9S13727   2.651   2.223   7.139  0.0529  0.1766  3.8344
  128OSM    H9T13728   2.535   2.083   7.134 -1.3440 -0.3326 -0.2216
  128OSM   C10S13729   2.494   2.229   7.288  0.4566 -0.2191  0.0384
  128OSM   H10S13730   2.389   2.197   7.307  0.2871  0.4902  0.3419
  128OSM   H10T13731   2.488   2.338   7.311 -0.1061  0.1633 -1.7705
  128OSM   C11S13732   2.576   2.166   7.399  0.4417 -0.1458 -0.2738
  128OSM   H11S13733   2.677   2.208   7.414  0.3105 -0.0361  0.3608
  128OSM   H11T13734   2.584   2.060   7.367  2.0417  1.0067 -4.1730
  128OSM   C12S13735   2.513   2.179   7.541 -0.0476 -0.2439  0.6659
  128OSM   H12S13736   2.405   2.155   7.530  0.3060 -1.5714 -0.1932
  128OSM   H12T13737   2.522   2.274   7.596 -1.6756  0.2184  0.2032
  128OSM   C13S13738   2.556   2.070   7.637  0.7026  0.5860 -0.0133
  128OSM   H13S13739   2.649   2.101   7.688  0.2059  0.6573  0.8638
  128OSM   H13T13740   2.583   1.986   7.569 -0.7531  2.2462 -2.8559
  128OSM   C14S13741   2.466   2.027   7.749 -0.5072 -0.1323  0.8248
  128OSM   H14S13742   2.522   1.942   7.796 -1.5535 -1.9457 -1.0398
  128OSM   H14T13743   2.370   1.983   7.714 -0.6723  0.1836  0.8835
  128OSM   C15S13744   2.440   2.137   7.857 -0.5183  0.7218  0.7111
  128OSM   H15S13745   2.387   2.225   7.814  0.5866  1.4345  0.7717
  128OSM   H15T13746   2.540   2.175   7.887 -0.0964  0.1677  0.0361
  128OSM   C16S13747   2.382   2.081   7.984  0.2852 -0.2780 -0.1016
  128OSM   H16S13748   2.455   2.003   8.016  0.7034  0.1235 -0.0654
  128OSM   H16T13749   2.294   2.019   7.955  0.7322 -1.3285  0.7352
  128OSM   C17S13750   2.365   2.185   8.095 -0.0267  0.0775 -0.1136
  128OSM   H17S13751   2.306   2.273   8.063  0.0167  0.4779  0.8662
  128OSM   H17T13752   2.458   2.223   8.141 -1.2920 -0.1072  2.8147
  128OSM   C18S13753   2.294   2.134   8.217 -0.1551  0.1147  0.2581
  128OSM   H18S13754   2.325   2.028   8.233 -2.3845 -0.8029 -1.0439
  128OSM   H18T13755   2.185   2.135   8.195  0.3235  1.9714 -2.6161
  128OSM   H18U13756   2.321   2.193   8.307  1.0200 -0.8896  0.6071
  128OSM    C1F13757   2.739   2.479   6.580  0.1974 -0.1192 -0.3250
  128OSM     OF13758   2.742   2.583   6.505  0.2812  0.1171  0.2155
  128OSM    C2F13759   2.863   2.438   6.649 -1.1680  0.0634 -0.2426
  128OSM    H2F13760   2.943   2.404   6.580 -1.1721 -0.8823  0.1994
  128OSM    H2G13761   2.842   2.358   6.724 -0.8148 -0.6037 -0.8430
  128OSM    C3F13762   2.932   2.547   6.737 -0.0700  0.8437 -0.0034
  128OSM    H3F13763   2.853   2.590   6.802  0.9335  0.9806  1.1838
  128OSM    H3G13764   2.989   2.616   6.671  0.8811 -1.1136 -1.3332
  128OSM    C4F13765   3.045   2.487   6.826  0.9356 -0.4754  0.5880
  128OSM    H4F13766   3.138   2.549   6.831  0.5217  0.4488 -1.8319
  128OSM    H4G13767   3.087   2.397   6.777  4.5224  1.7380 -0.8543
  128OSM    C5F13768   2.998   2.450   6.969 -0.9945 -0.3584 -0.1453
  128OSM    H5F13769   2.902   2.395   6.971 -1.8739  1.1376  0.7533
  128OSM    H5G13770   2.985   2.541   7.031 -1.0444 -1.2407  1.1730
  128OSM    C6F13771   3.108   2.375   7.051 -0.5563 -0.1443  0.6134
  128OSM    H6F13772   3.198   2.439   7.058  0.2291 -0.9737 -1.2175
  128OSM    H6G13773   3.156   2.296   6.989 -0.8225  1.5222 -1.8871
  128OSM    C7F13774   3.067   2.336   7.191  0.3400  0.3813  0.5130
  128OSM    H7F13775   2.997   2.250   7.196 -1.3394  1.7762  3.2030
  128OSM    H7G13776   3.013   2.419   7.241 -1.2502  0.0615 -0.6073
  128OSM    C8F13777   3.179   2.296   7.280  0.0771 -1.0001 -0.5058
  128OSM    H8F13778   3.256   2.238   7.225  2.2673 -0.5290  1.8660
  128OSM    H8G13779   3.155   2.230   7.366  0.1633 -2.6059 -1.6746
  128OSM    C9F13780   3.242   2.424   7.330 -0.9653 -0.5541 -0.3650
  128OSM    H9F13781   3.260   2.494   7.247 -0.9382 -1.8574 -1.4845
  128OSM   C10F13782   3.286   2.453   7.448  0.0290  0.0347 -0.8201
  128OSM   H10F13783   3.338   2.546   7.478 -1.1324  0.6906 -0.8027
  128OSM   C11F13784   3.284   2.356   7.569  0.2077 -0.2886  0.6613
  128OSM   H11F13785   3.298   2.251   7.535 -1.2229 -0.1572 -0.4573
  128OSM   H11G13786   3.183   2.371   7.614 -0.1409  1.3495 -0.5726
  128OSM   C12F13787   3.387   2.392   7.672 -0.2702 -0.1064  0.0116
  128OSM   H12F13788   3.486   2.402   7.622 -0.6775  2.0490 -0.4956
  128OSM   H12G13789   3.405   2.305   7.739 -4.0289  0.5222  2.0791
  128OSM   C13F13790   3.369   2.522   7.757 -0.0156  0.3497  0.5717
  128OSM   H13F13791   3.358   2.607   7.687  0.8222 -0.8280 -1.0431
  128OSM   H13G13792   3.471   2.540   7.799 -0.2970  1.4683  0.8173
  128OSM   C14F13793   3.267   2.527   7.867  0.6230  0.3882  0.2970
  128OSM   H14F13794   3.180   2.478   7.818 -0.4096  1.7611  0.7094
  128OSM   H14G13795   3.236   2.632   7.885  0.2312 -0.0172  2.2053
  128OSM   C15F13796   3.313   2.447   7.990 -0.4087  0.4047 -0.4265
  128OSM   H15F13797   3.416   2.462   8.030 -0.4617 -0.1672 -0.0526
  128OSM   H15G13798   3.303   2.345   7.945 -0.5046  1.3837 -2.7721
  128OSM   C16F13799   3.219   2.468   8.114 -0.7208  0.0014 -0.1875
  128OSM   H16F13800   3.109   2.472   8.101 -0.6449  1.2168 -0.5672
  128OSM   H16G13801   3.240   2.571   8.148 -0.0724 -0.0069 -0.5361
  128OSM   C17F13802   3.253   2.362   8.222  0.3520 -0.1798  0.4257
  128OSM   H17F13803   3.362   2.346   8.238  0.2275  0.7962  2.6090
  128OSM   H17G13804   3.221   2.263   8.183  0.2958  1.3146 -3.8341
  128OSM   C18F13805   3.177   2.384   8.351  1.2223 -0.8895  0.1505
  128OSM   H18F13806   3.090   2.446   8.322  2.8228  1.0838 -0.7604
  128OSM   H18G13807   3.234   2.445   8.425 -0.4493 -2.8275  3.2724
  128OSM   H18H13808   3.139   2.299   8.410 -1.3982  0.2261  0.1838
  129OSM      N13809   1.317   4.771   6.284  0.7322  0.2427  0.3607
  129OSM    C1513810   1.192   4.821   6.206 -0.5234 -0.6869 -0.4482
  129OSM   H15A13811   1.100   4.807   6.263  1.2157 -2.0139  2.2469
  129OSM   H15B13812   1.182   4.765   6.114 -1.9092  2.0457 -2.0755
  129OSM   H15C13813   1.208   4.926   6.188  1.3713 -0.2091  3.0889
  129OSM    C1413814   1.435   4.826   6.214  0.1000  0.5317  0.2623
  129OSM   H14A13815   1.530   4.817   6.265  1.8342 -2.3512 -3.0142
  129OSM   H14B13816   1.427   4.929   6.184 -1.7904 -0.2813 -2.3860
  129OSM   H14C13817   1.448   4.769   6.123 -3.1197 -0.7392  0.4640
  129OSM    C1313818   1.309   4.850   6.419  0.2172 -0.4266  0.1747
  129OSM   H13A13819   1.310   4.957   6.402 -1.9167 -0.5767 -1.2414
  129OSM   H13B13820   1.403   4.843   6.473  1.3038  2.2355 -1.1897
  129OSM   H13C13821   1.222   4.822   6.477  0.7223 -0.4933  0.9129
  129OSM    C1213822   1.329   4.620   6.301  0.1804 -0.0395 -0.3673
  129OSM   H12A13823   1.244   4.574   6.350  1.5253 -0.8677  1.3019
  129OSM   H12B13824   1.415   4.600   6.364  0.1614  0.0978 -0.2968
  129OSM    C1113825   1.343   4.534   6.178 -0.1050 -0.6970  0.1890
  129OSM   H11A13826   1.362   4.428   6.206  1.6488 -0.5047 -0.1630
  129OSM   H11B13827   1.435   4.565   6.125  0.7031 -1.8261  0.8984
  129OSM      P13828   1.103   4.462   6.091  0.1380 -0.5744 -0.4783
  129OSM    O1313829   0.995   4.547   6.050 -0.0134  0.8691 -0.5666
  129OSM    O1413830   1.114   4.332   6.027  0.1554  0.5565 -0.6484
  129OSM    O1113831   1.087   4.435   6.246 -0.2133 -0.1064  0.3772
  129OSM    O1213832   1.236   4.547   6.077 -0.3333 -0.0254  0.5184
  129OSM    C1S13833   1.022   4.526   6.332  0.1066  1.0966  0.6260
  129OSM    H1S13834   0.926   4.564   6.291  0.1681  1.2457  0.6173
  129OSM    H1T13835   1.087   4.615   6.346  2.4596 -0.2948 -0.7628
  129OSM     NF13836   0.901   4.530   6.542 -0.7734  0.3283  0.2945
  129OSM    HNF13837   0.939   4.593   6.609  0.3406  2.0576 -1.8218
  129OSM    C2S13838   0.997   4.449   6.469  0.1860  0.1186  0.2619
  129OSM    H2S13839   0.943   4.352   6.458  1.0789 -0.3070 -0.4611
  129OSM    C3S13840   1.130   4.421   6.550  0.2345 -0.0573 -0.5979
  129OSM    H3S13841   1.165   4.520   6.586 -1.9929  1.4659 -2.3067
  129OSM     O313842   1.245   4.378   6.475  0.2301  0.1709 -0.4409
  129OSM    HO313843   1.206   4.362   6.389 -3.8894  1.4074  0.9572
  129OSM    C4S13844   1.100   4.334   6.664 -0.4894  0.0419 -0.5330
  129OSM    H4S13845   1.097   4.395   6.755  0.6867 -0.8297  0.1177
  129OSM    C5S13846   1.089   4.201   6.670 -0.9122  0.2491 -0.1334
  129OSM    H5S13847   1.107   4.145   6.577  1.0748  0.1591  0.2559
  129OSM    C6S13848   1.067   4.111   6.788 -0.1799 -0.1972 -0.1985
  129OSM    H6S13849   1.134   4.024   6.773  0.9537  0.5285  0.5006
  129OSM    H6T13850   0.961   4.084   6.807  0.1576 -0.8013  0.9168
  129OSM    C7S13851   1.123   4.178   6.925 -0.1518  0.4812 -0.9391
  129OSM    H7S13852   1.059   4.265   6.952  1.4103  0.8613  1.8074
  129OSM    H7T13853   1.226   4.212   6.902  0.4774 -1.2145 -0.7498
  129OSM    C8S13854   1.136   4.074   7.033  0.2151 -0.2176  0.1049
  129OSM    H8S13855   1.215   3.997   7.025  1.3194  0.7211  1.3698
  129OSM    H8T13856   1.035   4.030   7.041 -0.2048  0.7739  0.4771
  129OSM    C9S13857   1.148   4.144   7.169 -0.6116  0.3557  0.3402
  129OSM    H9S13858   1.073   4.224   7.190  1.2735  1.7898  2.0182
  129OSM    H9T13859   1.246   4.192   7.155  0.3674 -1.3605  0.9850
  129OSM   C10S13860   1.169   4.047   7.289  0.0823  0.1007  0.1693
  129OSM   H10S13861   1.241   3.966   7.263 -2.1929 -1.4347 -1.6647
  129OSM   H10T13862   1.079   3.991   7.321 -0.0466  1.3494  2.2037
  129OSM   C11S13863   1.221   4.116   7.420  0.7894  0.1496 -0.5293
  129OSM   H11S13864   1.245   4.044   7.501 -0.2244 -2.1734 -2.1945
  129OSM   H11T13865   1.141   4.186   7.455 -0.0206 -1.0818  0.1612
  129OSM   C12S13866   1.357   4.192   7.401  0.2585  0.0673 -0.2931
  129OSM   H12S13867   1.338   4.270   7.324  0.8003  1.8909  1.3368
  129OSM   H12T13868   1.436   4.118   7.375  0.7518  0.1715  0.8472
  129OSM   C13S13869   1.398   4.285   7.513  0.5421  0.6575 -0.7660
  129OSM   H13S13870   1.309   4.341   7.549 -0.6117 -1.4845 -0.0798
  129OSM   H13T13871   1.471   4.362   7.481  1.5260  0.0043 -0.1521
  129OSM   C14S13872   1.474   4.208   7.627 -0.2049 -0.3654  0.4414
  129OSM   H14S13873   1.571   4.174   7.586  0.4584  0.7374  1.0739
  129OSM   H14T13874   1.411   4.117   7.643  0.7852 -1.1155  0.2096
  129OSM   C15S13875   1.485   4.289   7.756  0.5311  0.1808 -0.7092
  129OSM   H15S13876   1.396   4.344   7.792  0.5853 -1.4914  2.3660
  129OSM   H15T13877   1.557   4.367   7.724  0.7748 -0.8206 -2.7931
  129OSM   C16S13878   1.559   4.219   7.873 -0.1294 -0.4467  0.4076
  129OSM   H16S13879   1.653   4.176   7.832 -0.2323 -0.1709 -0.1177
  129OSM   H16T13880   1.490   4.137   7.906  0.2471 -1.3621 -0.9848
  129OSM   C17S13881   1.611   4.307   7.993  0.1709 -0.4691  0.7195
  129OSM   H17S13882   1.676   4.386   7.950  1.3616 -1.4813  0.6074
  129OSM   H17T13883   1.678   4.252   8.062  0.3455  0.0469  0.9622
  129OSM   C18S13884   1.487   4.356   8.068 -0.2805 -0.3298 -0.4188
  129OSM   H18S13885   1.410   4.409   8.008  0.0460 -0.1440 -0.6725
  129OSM   H18T13886   1.519   4.430   8.144 -0.3352 -2.7179  2.0810
  129OSM   H18U13887   1.435   4.272   8.119  2.6614 -0.4009  2.8138
  129OSM    C1F13888   0.776   4.546   6.504 -0.5791 -0.9729  0.4922
  129OSM     OF13889   0.730   4.477   6.416  0.4170 -0.0125 -0.3546
  129OSM    C2F13890   0.704   4.673   6.553 -0.7036  0.2799 -0.6754
  129OSM    H2F13891   0.652   4.719   6.466 -0.3208  0.6142 -0.7306
  129OSM    H2G13892   0.774   4.751   6.590 -0.3141 -0.8562  1.1074
  129OSM    C3F13893   0.612   4.626   6.659  0.5852 -0.0795 -0.2031
  129OSM    H3F13894   0.543   4.553   6.610  0.2602  0.8877 -1.2374
  129OSM    H3G13895   0.543   4.709   6.681  0.0659 -0.3398 -0.8174
  129OSM    C4F13896   0.663   4.570   6.788  0.7502  0.4895 -0.3699
  129OSM    H4F13897   0.704   4.648   6.855  0.5916  0.5129 -0.2997
  129OSM    H4G13898   0.750   4.505   6.764  0.5733  0.7016 -1.6458
  129OSM    C5F13899   0.565   4.485   6.863  0.5886 -0.3321 -0.5268
  129OSM    H5F13900   0.484   4.448   6.797  0.2011 -0.3312 -0.0492
  129OSM    H5G13901   0.509   4.535   6.945 -0.4806 -2.8894  0.4209
  129OSM    C6F13902   0.628   4.370   6.938 -0.3784  0.6100  0.9260
  129OSM    H6F13903   0.676   4.314   6.855 -1.9722 -0.5821  0.7460
  129OSM    H6G13904   0.547   4.304   6.976  2.2524 -2.2393  1.9802
  129OSM    C7F13905   0.739   4.401   7.038 -0.1472 -0.4668 -0.3248
  129OSM    H7F13906   0.810   4.465   6.981 -0.3981  1.1510  1.1163
  129OSM    H7G13907   0.781   4.299   7.045  0.0624 -0.2908  1.1573
  129OSM    C8F13908   0.680   4.477   7.157 -0.0627 -0.5927  0.0731
  129OSM    H8F13909   0.625   4.410   7.226  0.3095 -0.7712  0.1966
  129OSM    H8G13910   0.604   4.550   7.121 -0.0128 -0.5540  0.0452
  129OSM    C9F13911   0.790   4.541   7.241 -0.3399  0.3824  0.2293
  129OSM    H9F13912   0.841   4.620   7.186 -1.5123  1.3879  0.5318
  129OSM   C10F13913   0.829   4.515   7.365  0.0687  0.1617 -0.2785
  129OSM   H10F13914   0.919   4.564   7.405  0.3448 -0.9714  0.5450
  129OSM   C11F13915   0.772   4.393   7.442  0.4378 -0.0965 -0.2752
  129OSM   H11F13916   0.776   4.305   7.375 -0.7089 -0.4710  0.1133
  129OSM   H11G13917   0.665   4.408   7.469  0.2348 -1.7069 -0.1094
  129OSM   C12F13918   0.858   4.344   7.560  0.4861  0.3021 -1.0741
  129OSM   H12F13919   0.959   4.323   7.519  1.1652 -0.7115  0.9435
  129OSM   H12G13920   0.819   4.250   7.604  1.9098  1.0799  2.2322
  129OSM   C13F13921   0.869   4.455   7.673 -0.4766  0.3613  0.0849
  129OSM   H13F13922   0.773   4.477   7.724 -1.3577  3.1190 -2.4776
  129OSM   H13G13923   0.892   4.555   7.631  1.5164  0.2125  0.7041
  129OSM   C14F13924   0.980   4.427   7.775 -0.0443  0.0520 -1.1278
  129OSM   H14F13925   1.084   4.435   7.736 -0.0483 -1.6132 -1.5568
  129OSM   H14G13926   0.951   4.328   7.815 -2.1329  1.8981  2.4187
  129OSM   C15F13927   0.974   4.521   7.892  0.6805 -0.1371 -0.3239
  129OSM   H15F13928   0.869   4.525   7.928  1.2266  1.7813  1.2228
  129OSM   H15G13929   0.987   4.622   7.848  2.1188  0.4317  1.3037
  129OSM   C16F13930   1.074   4.499   7.999 -0.1790  0.6867 -0.7875
  129OSM   H16F13931   1.177   4.507   7.957 -0.8526  0.6712 -2.4688
  129OSM   H16G13932   1.054   4.399   8.044  1.8148  0.3871 -0.4729
  129OSM   C17F13933   1.054   4.597   8.114  0.5687  0.6404  0.6177
  129OSM   H17F13934   0.959   4.563   8.160 -0.3963 -0.5235 -2.0411
  129OSM   H17G13935   1.035   4.696   8.067  1.0233  0.0272 -0.9010
  129OSM   C18F13936   1.166   4.603   8.214 -0.7380 -0.2775 -0.2324
  129OSM   H18F13937   1.175   4.507   8.270 -1.9137  0.4378  1.2333
  129OSM   H18G13938   1.145   4.685   8.285 -0.2083 -0.3401  0.0046
  129OSM   H18H13939   1.261   4.624   8.160  0.2831 -0.7944  1.2933
  130OSM      N13940   1.401   1.357   6.397  0.4818  0.1300 -0.4046
  130OSM    C1513941   1.475   1.231   6.400 -0.4514 -0.4020 -0.0361
  130OSM   H15A13942   1.427   1.140   6.368  1.8321 -0.9801 -2.0738
  130OSM   H15B13943   1.515   1.222   6.500 -0.5592  2.7981  0.4144
  130OSM   H15C13944   1.561   1.235   6.334  0.1611 -1.1545  0.7029
  130OSM    C1413945   1.272   1.335   6.467  0.8591 -0.9253 -0.0995
  130OSM   H14A13946   1.282   1.293   6.566 -2.4155 -0.9482  0.3369
  130OSM   H14B13947   1.205   1.275   6.407 -0.0151 -1.1901  1.1042
  130OSM   H14C13948   1.221   1.428   6.483  2.4243  0.1090 -0.8504
  130OSM    C1313949   1.474   1.466   6.465 -0.0052 -0.2552  0.2865
  130OSM   H13A13950   1.478   1.437   6.569 -1.0553 -0.3516  0.3108
  130OSM   H13B13951   1.434   1.566   6.466  0.9423  0.1449  0.8098
  130OSM   H13C13952   1.568   1.489   6.417 -1.5358 -0.1421 -2.9004
  130OSM    C1213953   1.378   1.402   6.251 -0.2646 -0.1291  0.1494
  130OSM   H12A13954   1.359   1.508   6.240  0.7388 -0.0862 -1.3785
  130OSM   H12B13955   1.289   1.358   6.208  0.3966 -2.7736  1.2802
  130OSM    C1113956   1.501   1.371   6.157 -0.1636 -0.1122 -0.4753
  130OSM   H11A13957   1.481   1.400   6.051 -2.1302 -1.5661 -0.5621
  130OSM   H11B13958   1.513   1.262   6.140  1.4018 -0.1961  0.9784
  130OSM      P13959   1.771   1.375   6.193 -0.4663 -0.3726  0.5754
  130OSM    O1313960   1.762   1.271   6.087 -0.7617 -0.1307 -0.1037
  130OSM    O1413961   1.875   1.480   6.173  0.2349 -0.5742 -0.1720
  130OSM    O1113962   1.788   1.311   6.335  0.0312 -0.0115  0.6564
  130OSM    O1213963   1.621   1.436   6.201 -0.3200  0.0363  0.2277
  130OSM    C1S13964   1.836   1.384   6.446  0.6758 -0.8811  0.5564
  130OSM    H1S13965   1.778   1.478   6.450  0.2436 -0.9426 -2.1562
  130OSM    H1T13966   1.939   1.424   6.434  0.0202  0.9197  0.6211
  130OSM     NF13967   1.875   1.399   6.699 -0.8710  0.2252 -0.0891
  130OSM    HNF13968   1.973   1.406   6.715 -0.7891  1.3964 -0.9445
  130OSM    C2S13969   1.835   1.311   6.584  0.0330  0.1388  0.2061
  130OSM    H2S13970   1.728   1.282   6.588 -0.6169  2.2998  0.0983
  130OSM    C3S13971   1.923   1.186   6.583 -0.3466  0.2376  0.1527
  130OSM    H3S13972   2.027   1.224   6.575  0.4313 -1.6177  1.0424
  130OSM     O313973   1.903   1.098   6.471 -0.3329 -0.3516  0.2671
  130OSM    HO313974   1.849   1.143   6.405 -1.6192 -2.2148 -0.0289
  130OSM    C4S13975   1.893   1.111   6.706  0.5618 -0.3526  0.1412
  130OSM    H4S13976   1.788   1.110   6.739 -0.4107  1.6930 -2.5068
  130OSM    C5S13977   1.991   1.059   6.785  0.0752  0.5000  0.4796
  130OSM    H5S13978   2.092   1.052   6.741 -0.7551 -0.6833 -1.3432
  130OSM    C6S13979   1.951   0.978   6.906 -0.2205  0.0321  0.4054
  130OSM    H6S13980   1.868   0.910   6.876 -0.1742  0.9603 -2.0569
  130OSM    H6T13981   1.911   1.048   6.982  1.5321  2.0430 -0.4141
  130OSM    C7S13982   2.057   0.894   6.980 -0.3531  0.3037 -0.4801
  130OSM    H7S13983   2.138   0.959   7.019 -0.1095 -0.6342  0.6157
  130OSM    H7T13984   2.104   0.823   6.907  1.9759  3.5903 -2.4774
  130OSM    C8S13985   2.000   0.830   7.107 -0.5480  0.8000 -0.9816
  130OSM    H8S13986   1.900   0.790   7.081 -0.6946 -0.6059  1.4506
  130OSM    H8T13987   1.995   0.916   7.178 -0.9429  0.4468 -0.5761
  130OSM    C9S13988   2.071   0.704   7.156  0.7402  0.0104 -0.1910
  130OSM    H9S13989   2.181   0.715   7.165  0.9227 -1.5199 -0.2285
  130OSM    H9T13990   2.051   0.631   7.074  0.9737 -0.1799 -0.0780
  130OSM   C10S13991   2.012   0.652   7.296 -1.2356 -0.4214  0.8586
  130OSM   H10S13992   2.005   0.544   7.272  0.5231 -0.0348 -1.9843
  130OSM   H10T13993   1.909   0.693   7.290 -1.1047 -0.2350 -0.4259
  130OSM   C11S13994   2.108   0.692   7.405 -0.3110 -0.5413  0.2341
  130OSM   H11S13995   2.215   0.691   7.377 -0.0529 -0.1636  1.1578
  130OSM   H11T13996   2.090   0.631   7.497 -0.4077 -1.3872 -0.3339
  130OSM   C12S13997   2.091   0.834   7.464  0.5221  0.1237 -0.7364
  130OSM   H12S13998   1.987   0.865   7.437 -0.0031 -0.9323 -0.0021
  130OSM   H12T13999   2.154   0.910   7.414  4.0790 -0.7281  2.0415
  130OSM   C13S14000   2.113   0.843   7.618 -0.2564  0.1999  0.3865
  130OSM   H13S14001   2.043   0.771   7.666  2.0004 -2.3917  0.0454
  130OSM   H13T14002   2.094   0.948   7.649 -0.1817  1.1697 -2.5360
  130OSM   C14S14003   2.264   0.809   7.648 -0.5142 -0.8964 -0.7425
  130OSM   H14S14004   2.329   0.888   7.605 -0.4152 -1.4611 -1.6423
  130OSM   H14T14005   2.293   0.713   7.600  1.5654 -0.8875  0.3810
  130OSM   C15S14006   2.284   0.799   7.802 -0.1667 -0.0731  0.0032
  130OSM   H15S14007   2.213   0.726   7.847 -0.8163 -1.4194 -2.9363
  130OSM   H15T14008   2.245   0.894   7.844  0.7239 -0.2660  1.3067
  130OSM   C16S14009   2.426   0.800   7.862 -0.0867 -0.0025  0.2757
  130OSM   H16S14010   2.492   0.878   7.819  1.9985 -2.6627 -1.6100
  130OSM   H16T14011   2.469   0.703   7.831 -1.8184 -0.8854  0.5080
  130OSM   C17S14012   2.413   0.809   8.015 -0.2054  0.1124 -0.0153
  130OSM   H17S14013   2.341   0.738   8.060  0.9957 -1.4204 -0.4132
  130OSM   H17T14014   2.378   0.913   8.032  0.4448  0.2506  0.5314
  130OSM   C18S14015   2.547   0.801   8.089  0.7865  0.7594 -0.3170
  130OSM   H18S14016   2.528   0.821   8.196 -0.3163 -0.5993 -0.2385
  130OSM   H18T14017   2.625   0.875   8.061  0.1897  1.2367 -0.7432
  130OSM   H18U14018   2.591   0.700   8.074  2.3271  0.7765  3.1601
  130OSM    C1F14019   1.804   1.499   6.740  0.3903  0.2234  0.0104
  130OSM     OF14020   1.702   1.541   6.681 -0.2797  0.2570 -0.5129
  130OSM    C2F14021   1.859   1.573   6.857 -0.4256 -0.1655 -0.7857
  130OSM    H2F14022   1.926   1.656   6.825 -1.3750  0.4748 -1.1673
  130OSM    H2G14023   1.925   1.512   6.923 -1.9770 -0.9471  0.0846
  130OSM    C3F14024   1.744   1.642   6.944  0.6164  0.4640 -0.0427
  130OSM    H3F14025   1.701   1.548   6.985  0.4707  1.5390  2.4063
  130OSM    H3G14026   1.680   1.696   6.871  0.2140 -0.8287 -0.6830
  130OSM    C4F14027   1.791   1.718   7.071 -0.2551 -0.2420  0.4874
  130OSM    H4F14028   1.855   1.806   7.045 -0.4452 -0.1900  0.1943
  130OSM    H4G14029   1.863   1.648   7.119  0.4747 -1.3549 -2.0460
  130OSM    C5F14030   1.668   1.747   7.156  0.6059  0.9539 -0.1275
  130OSM    H5F14031   1.600   1.660   7.148  1.4075  0.4719 -2.4103
  130OSM    H5G14032   1.626   1.836   7.105  0.9504  1.5591  0.6227
  130OSM    C6F14033   1.700   1.788   7.296  0.1097 -0.1842 -0.1900
  130OSM    H6F14034   1.778   1.867   7.304  0.9748 -1.0565  0.1804
  130OSM    H6G14035   1.739   1.695   7.344  1.4649  0.2442 -0.4028
  130OSM    C7F14036   1.580   1.842   7.382  0.2104  0.6433 -0.5951
  130OSM    H7F14037   1.625   1.880   7.476  2.0802  1.6519 -1.8410
  130OSM    H7G14038   1.511   1.757   7.397  0.2418  0.7813  0.3544
  130OSM    C8F14039   1.487   1.950   7.319 -0.3363  0.2253 -0.4350
  130OSM    H8F14040   1.404   1.962   7.392  0.1932 -1.1732  0.4258
  130OSM    H8G14041   1.452   1.921   7.217 -0.8819  1.1879 -0.5358
  130OSM    C9F14042   1.565   2.079   7.313 -0.1612 -0.6451 -0.0809
  130OSM    H9F14043   1.608   2.097   7.213 -1.7322  1.8006 -0.4011
  130OSM   C10F14044   1.571   2.171   7.412 -0.1280  0.3877 -0.3885
  130OSM   H10F14045   1.628   2.264   7.405  0.6729  0.1129  1.5659
  130OSM   C11F14046   1.496   2.158   7.548 -0.4951 -0.1970  0.1492
  130OSM   H11F14047   1.475   2.051   7.572 -0.3245 -0.2591  0.0226
  130OSM   H11G14048   1.402   2.217   7.537  0.9728  2.1420 -0.5704
  130OSM   C12F14049   1.561   2.224   7.659 -0.9537 -0.3326 -0.2251
  130OSM   H12F14050   1.587   2.328   7.630  1.9273 -0.4336  1.5156
  130OSM   H12G14051   1.658   2.175   7.682 -0.3610  0.7158 -0.4396
  130OSM   C13F14052   1.479   2.215   7.789  1.1825 -0.1166  0.1699
  130OSM   H13F14053   1.493   2.120   7.844 -0.3708 -0.8677 -0.6910
  130OSM   H13G14054   1.371   2.233   7.771  1.5511  0.5271 -1.6443
  130OSM   C14F14055   1.514   2.328   7.880  0.3246 -0.2688 -0.2918
  130OSM   H14F14056   1.514   2.420   7.818 -1.6361  0.9106  1.3247
  130OSM   H14G14057   1.618   2.315   7.915 -0.7526 -1.7579  2.7036
  130OSM   C15F14058   1.419   2.341   8.000  0.2211 -0.2597 -0.0879
  130OSM   H15F14059   1.387   2.238   8.025  0.0169 -0.0191  0.6759
  130OSM   H15G14060   1.326   2.400   7.981 -0.1868 -0.5439  0.9163
  130OSM   C16F14061   1.485   2.386   8.125 -0.0877  0.5557  0.1750
  130OSM   H16F14062   1.568   2.313   8.136 -1.8767 -1.9456 -1.7391
  130OSM   H16G14063   1.416   2.365   8.209  0.4062 -0.2103  0.3966
  130OSM   C17F14064   1.534   2.531   8.129 -0.5214 -0.5609 -1.1397
  130OSM   H17F14065   1.459   2.609   8.106  0.5533  0.7404 -0.4053
  130OSM   H17G14066   1.606   2.540   8.045  0.1340  3.5134 -0.3708
  130OSM   C18F14067   1.610   2.565   8.265  0.5664  0.3582  0.2115
  130OSM   H18F14068   1.544   2.540   8.351  0.2391  0.9821  0.1457
  130OSM   H18G14069   1.614   2.676   8.270  0.8363  0.3026  1.6275
  130OSM   H18H14070   1.711   2.520   8.270  0.5097  0.3588  2.9785
  131OSM      N14071   5.805   5.754   5.954  0.6213 -0.1889  0.4447
  131OSM    C1514072   5.878   5.831   6.061  0.1747  0.4031 -0.0641
  131OSM   H15A14073   5.955   5.886   6.010 -0.3058  0.3708 -0.8458
  131OSM   H15B14074   5.922   5.760   6.129 -1.3168  0.7614  1.3309
  131OSM   H15C14075   5.817   5.902   6.115  0.1490 -0.2081  0.7253
  131OSM    C1414076   5.898   5.672   5.882  0.0712 -0.2217 -0.0999
  131OSM   H14A14077   5.943   5.593   5.940 -0.4729 -0.0063  0.6197
  131OSM   H14B14078   5.978   5.728   5.837  0.8327  0.1994  1.7299
  131OSM   H14C14079   5.840   5.619   5.807  0.8152  0.8014 -1.4446
  131OSM    C1314080   5.710   5.663   6.031  0.1853 -0.7269 -0.0463
  131OSM   H13A14081   5.632   5.722   6.077  0.3294 -0.7408  0.2229
  131OSM   H13B14082   5.746   5.604   6.114 -0.1639 -0.1727  0.5116
  131OSM   H13C14083   5.679   5.588   5.961 -0.2526  0.1010 -0.7643
  131OSM    C1214084   5.726   5.850   5.867  0.2715  0.6384  0.4003
  131OSM   H12A14085   5.659   5.798   5.801  2.1625 -0.9874 -0.3303
  131OSM   H12B14086   5.793   5.900   5.799 -0.0259 -1.6709 -1.7360
  131OSM    C1114087   5.642   5.968   5.933 -0.0500  0.2336  0.0189
  131OSM   H11A14088   5.580   6.014   5.854  0.3982  1.6285  0.4581
  131OSM   H11B14089   5.715   6.050   5.950 -0.2218  0.5999 -0.9416
  131OSM      P14090   5.413   5.882   6.028 -0.2456  0.0377  0.2885
  131OSM    O1314091   5.350   5.985   5.942  0.1716  0.4626 -0.3210
  131OSM    O1414092   5.410   5.744   5.979  0.1762  0.4729  0.0168
  131OSM    O1114093   5.360   5.883   6.179  0.8958 -0.0696  0.5935
  131OSM    O1214094   5.562   5.923   6.041  0.1538 -0.0651  0.4292
  131OSM    C1S14095   5.402   5.785   6.272  0.6306 -0.2432  0.5915
  131OSM    H1S14096   5.501   5.818   6.311  0.7020 -1.9467  1.9791
  131OSM    H1T14097   5.419   5.691   6.215  0.5436 -0.6705  1.2491
  131OSM     NF14098   5.347   5.698   6.501 -0.7350 -0.6705 -0.2156
  131OSM    HNF14099   5.334   5.601   6.519 -1.5299 -0.2412  1.8097
  131OSM    C2S14100   5.297   5.766   6.381  0.2976  0.0409  0.1543
  131OSM    H2S14101   5.249   5.862   6.411 -0.3478 -0.4202  0.6269
  131OSM    C3S14102   5.189   5.683   6.318  0.8387 -0.1761  0.0862
  131OSM    H3S14103   5.222   5.579   6.294  2.4567  0.4944 -0.7765
  131OSM     O314104   5.159   5.732   6.188  0.8736  0.2079 -0.2032
  131OSM    HO314105   5.231   5.795   6.184 -0.8032  2.2082 -0.3502
  131OSM    C4S14106   5.065   5.679   6.402  0.9113 -0.3300  0.6476
  131OSM    H4S14107   5.011   5.774   6.415 -0.3189 -1.1359  1.8116
  131OSM    C5S14108   5.012   5.575   6.466 -0.7009 -0.2236  0.1785
  131OSM    H5S14109   5.059   5.477   6.450  0.4963  0.6551 -2.1415
  131OSM    C6S14110   4.892   5.583   6.555 -0.4060 -0.0288 -0.1770
  131OSM    H6S14111   4.813   5.524   6.504 -1.5325  2.0142 -0.9006
  131OSM    H6T14112   4.854   5.688   6.553 -0.7004 -0.1405 -0.9121
  131OSM    C7S14113   4.903   5.534   6.705  0.1042  0.0503  0.4489
  131OSM    H7S14114   4.936   5.428   6.716  2.6237  0.6333 -0.8847
  131OSM    H7T14115   4.798   5.538   6.742 -0.4660 -2.1577 -0.7234
  131OSM    C8S14116   4.992   5.626   6.792  0.4459 -0.1586  0.0940
  131OSM    H8S14117   4.942   5.725   6.788 -2.5032 -1.5556 -1.1495
  131OSM    H8T14118   5.095   5.637   6.752  0.5177 -1.1786 -0.0462
  131OSM    C9S14119   5.024   5.580   6.938  0.3659  0.1145  0.0535
  131OSM    H9S14120   5.092   5.655   6.982 -1.0147  2.0727 -1.0061
  131OSM    H9T14121   5.063   5.477   6.922 -2.3927 -1.0367  0.1973
  131OSM   C10S14122   4.896   5.574   7.027 -0.3511 -0.5387  0.2040
  131OSM   H10S14123   4.842   5.480   7.004 -0.7966 -0.7295  1.8767
  131OSM   H10T14124   4.830   5.656   6.991 -0.3029 -0.6782 -0.2061
  131OSM   C11S14125   4.911   5.581   7.181 -0.1211 -0.5956  0.7597
  131OSM   H11S14126   4.957   5.681   7.197  0.1600 -0.5426 -0.3136
  131OSM   H11T14127   4.988   5.508   7.215 -0.1225 -1.6454 -1.3368
  131OSM   C12S14128   4.773   5.578   7.256  0.2013 -0.0571 -0.1209
  131OSM   H12S14129   4.719   5.482   7.240 -0.6318  0.0682  1.7464
  131OSM   H12T14130   4.712   5.655   7.203  0.4892 -0.3596 -0.9094
  131OSM   C13S14131   4.803   5.608   7.408  0.2844  0.2252  0.7379
  131OSM   H13S14132   4.703   5.610   7.458  0.8823  1.6539  1.9485
  131OSM   H13T14133   4.859   5.703   7.412  1.1831 -0.2786  0.5862
  131OSM   C14S14134   4.898   5.508   7.475  0.6299  0.2990 -0.6310
  131OSM   H14S14135   4.997   5.518   7.425  1.3787  0.0511  0.7609
  131OSM   H14T14136   4.869   5.402   7.458  0.6920  0.3085 -0.7996
  131OSM   C15S14137   4.886   5.521   7.626  0.1563 -0.1172 -0.3495
  131OSM   H15S14138   4.778   5.519   7.651  0.3564  0.3132  0.5774
  131OSM   H15T14139   4.919   5.625   7.646 -2.5315  1.0125 -1.2882
  131OSM   C16S14140   4.952   5.409   7.710 -0.6412 -0.7750  0.4951
  131OSM   H16S14141   5.057   5.394   7.676 -0.5286 -1.6990  1.1945
  131OSM   H16T14142   4.909   5.310   7.685 -0.4838 -0.6150 -0.4394
  131OSM   C17S14143   4.962   5.448   7.862 -0.3288 -0.1561  0.6650
  131OSM   H17S14144   4.861   5.446   7.908 -1.1856  2.1996 -0.9630
  131OSM   H17T14145   4.987   5.556   7.863 -2.1295  0.2915  1.2745
  131OSM   C18S14146   5.056   5.362   7.942  0.2033  1.0245  0.4053
  131OSM   H18S14147   5.158   5.384   7.902  0.1694  0.2494 -0.1341
  131OSM   H18T14148   5.037   5.253   7.934 -0.2548  1.2113 -1.5062
  131OSM   H18U14149   5.055   5.400   8.046  1.9684 -0.4008  0.9928
  131OSM    C1F14150   5.430   5.761   6.580 -0.0236  0.7836  0.1458
  131OSM     OF14151   5.456   5.873   6.556 -0.0102  0.1533  0.0117
  131OSM    C2F14152   5.487   5.688   6.691 -0.3085  0.5814  0.1310
  131OSM    H2F14153   5.593   5.719   6.706 -0.3045  1.4482 -1.4907
  131OSM    H2G14154   5.486   5.578   6.675  1.1711  0.6621 -0.7215
  131OSM    C3F14155   5.414   5.711   6.826  0.7588  0.0967 -0.7050
  131OSM    H3F14156   5.314   5.662   6.822  0.5594  0.3155  0.8828
  131OSM    H3G14157   5.381   5.813   6.852 -1.5628 -0.9815  0.9826
  131OSM    C4F14158   5.475   5.661   6.956 -0.3958 -0.1990 -0.6804
  131OSM    H4F14159   5.560   5.726   6.984  2.0306 -1.7035 -3.8966
  131OSM    H4G14160   5.527   5.567   6.929  0.4604  0.5164 -1.5908
  131OSM    C5F14161   5.366   5.638   7.063  0.2482  0.4468 -0.0656
  131OSM    H5F14162   5.320   5.538   7.050  0.7183  0.2906 -0.5801
  131OSM    H5G14163   5.296   5.721   7.041 -0.7120  0.2946  2.1574
  131OSM    C6F14164   5.419   5.646   7.205  0.4496  0.2985 -0.4041
  131OSM    H6F14165   5.496   5.727   7.209  0.5777  0.1569  0.2125
  131OSM    H6G14166   5.477   5.555   7.234  0.9906  0.6831 -0.2520
  131OSM    C7F14167   5.306   5.652   7.311  0.2635 -0.2963  0.2409
  131OSM    H7F14168   5.265   5.549   7.306 -0.4131  0.0187 -1.1093
  131OSM    H7G14169   5.224   5.714   7.267 -0.5191 -0.4541  1.4285
  131OSM    C8F14170   5.342   5.689   7.454 -1.5987 -0.0457  0.5331
  131OSM    H8F14171   5.341   5.800   7.447 -1.0214 -0.0840 -0.2111
  131OSM    H8G14172   5.447   5.664   7.480 -1.3238  1.5413  1.0344
  131OSM    C9F14173   5.248   5.627   7.554 -0.1104 -0.2262  0.1294
  131OSM    H9F14174   5.143   5.611   7.524  0.3036 -0.3626 -1.3344
  131OSM   C10F14175   5.275   5.621   7.683 -0.5303  0.1290  0.1367
  131OSM   H10F14176   5.209   5.565   7.751 -1.7103 -0.4085 -1.4090
  131OSM   C11F14177   5.411   5.666   7.746  0.8148  0.5702  0.2730
  131OSM   H11F14178   5.484   5.704   7.671  0.4005  0.5479 -0.1532
  131OSM   H11G14179   5.466   5.583   7.794  1.8300  0.8979 -0.2994
  131OSM   C12F14180   5.378   5.761   7.854 -0.1415 -0.4150  0.7493
  131OSM   H12F14181   5.305   5.838   7.823 -0.7509 -0.5701  1.7358
  131OSM   H12G14182   5.471   5.817   7.879 -1.0841  1.3807  0.3423
  131OSM   C13F14183   5.311   5.702   7.982  0.6108 -0.2645 -0.1672
  131OSM   H13F14184   5.394   5.647   8.031 -0.5255 -0.1443  2.0164
  131OSM   H13G14185   5.227   5.633   7.958 -0.7704  0.3814  2.3994
  131OSM   C14F14186   5.261   5.818   8.080 -0.1074  0.6758  0.8227
  131OSM   H14F14187   5.200   5.774   8.162  2.8500  0.0459  2.8684
  131OSM   H14G14188   5.200   5.882   8.014  1.4314  1.8292  0.4601
  131OSM   C15F14189   5.372   5.896   8.142  0.6369 -0.6392 -1.2949
  131OSM   H15F14190   5.335   5.993   8.182 -0.0195 -1.5632  0.4334
  131OSM   H15G14191   5.450   5.914   8.065  0.7650 -1.3334 -1.3367
  131OSM   C16F14192   5.428   5.833   8.273 -0.0484  0.5017 -0.8033
  131OSM   H16F14193   5.345   5.816   8.345  2.0815  3.3783  2.6095
  131OSM   H16G14194   5.483   5.920   8.314  0.1524 -0.0580  0.1468
  131OSM   C17F14195   5.526   5.715   8.250 -0.4376 -0.0259  0.2079
  131OSM   H17F14196   5.584   5.739   8.158  0.7486 -0.0131  0.9375
  131OSM   H17G14197   5.471   5.618   8.247  0.4773 -0.5434 -0.5605
  131OSM   C18F14198   5.629   5.696   8.366 -0.1185 -0.1172 -0.6792
  131OSM   H18F14199   5.679   5.788   8.403  1.7590 -1.6472  0.8270
  131OSM   H18G14200   5.704   5.628   8.319  1.3188 -1.1243  2.8038
  131OSM   H18H14201   5.590   5.650   8.459  0.7524  1.3124  0.4349
  132OSM      N14202   1.950   6.081   6.245 -0.1854 -0.5875  0.2690
  132OSM    C1514203   1.868   6.145   6.137 -0.0418  0.0111 -0.3002
  132OSM   H15A14204   1.835   6.067   6.071 -1.2172 -2.3119  2.8098
  132OSM   H15B14205   1.924   6.228   6.095 -1.8549  2.3400  1.5732
  132OSM   H15C14206   1.776   6.191   6.168 -0.1003  0.7585 -1.5028
  132OSM    C1414207   1.983   6.190   6.342  0.1555 -0.2338 -0.2194
  132OSM   H14A14208   1.893   6.244   6.369  1.4080  2.8468 -1.6612
  132OSM   H14B14209   2.038   6.270   6.294 -0.8121 -0.7100 -2.2101
  132OSM   H14C14210   2.045   6.158   6.425 -1.4911 -2.0937  0.3780
  132OSM    C1314211   1.875   5.972   6.313 -0.0153 -0.0555  0.5906
  132OSM   H13A14212   1.877   5.887   6.247 -3.3233  1.5243 -1.8308
  132OSM   H13B14213   1.775   6.006   6.336 -0.3725 -2.0332  2.2320
  132OSM   H13C14214   1.924   5.955   6.407 -0.2898  0.7712  0.9012
  132OSM    C1214215   2.083   6.027   6.190  0.4150 -0.1312 -0.7230
  132OSM   H12A14216   2.066   5.942   6.127 -1.7299 -1.8313  1.9361
  132OSM   H12B14217   2.149   5.989   6.267  0.1935 -1.4285 -1.1644
  132OSM    C1114218   2.175   6.133   6.115  0.0689  0.2175  0.1244
  132OSM   H11A14219   2.130   6.166   6.019 -0.2651  1.6932  0.7599
  132OSM   H11B14220   2.269   6.076   6.096  1.3740  1.5624  2.1005
  132OSM      P14221   2.313   6.349   6.158  0.0537 -0.1403 -0.3844
  132OSM    O1314222   2.408   6.285   6.062 -0.2163  0.0688 -0.1899
  132OSM    O1414223   2.243   6.471   6.113  0.3046 -0.1867  0.1875
  132OSM    O1114224   2.380   6.363   6.304 -0.4662  0.2449  0.2070
  132OSM    O1214225   2.196   6.250   6.193  0.0714  1.0530  0.3543
  132OSM    C1S14226   2.312   6.399   6.424  0.3737  0.0691  0.3651
  132OSM    H1S14227   2.253   6.310   6.456  0.0641 -0.3023 -1.1490
  132OSM    H1T14228   2.241   6.481   6.401 -0.8958 -1.5658 -1.9303
  132OSM     NF14229   2.309   6.472   6.657 -0.1011  0.5439  0.0913
  132OSM    HNF14230   2.287   6.568   6.667 -2.3036  0.0003  1.1320
  132OSM    C2S14231   2.398   6.441   6.545 -0.8308  0.1702 -0.0668
  132OSM    H2S14232   2.466   6.363   6.586  1.7536  2.3671  0.1461
  132OSM    C3S14233   2.485   6.562   6.499 -0.0084 -0.1202 -0.6441
  132OSM    H3S14234   2.411   6.637   6.463  1.1404  1.2011 -0.2964
  132OSM     O314235   2.583   6.529   6.404  0.0713 -0.4668 -0.0445
  132OSM    HO314236   2.567   6.441   6.371  2.3234 -0.2535 -1.9663
  132OSM    C4S14237   2.558   6.625   6.611 -0.0977  0.2075 -0.1765
  132OSM    H4S14238   2.504   6.715   6.645 -1.6650 -1.1877  1.2409
  132OSM    C5S14239   2.668   6.573   6.675 -0.0547 -0.1098  0.4203
  132OSM    H5S14240   2.712   6.474   6.654  1.5055  0.6275  0.0195
  132OSM    C6S14241   2.742   6.640   6.785 -0.4757  0.2681  0.2703
  132OSM    H6S14242   2.848   6.664   6.762  0.5271  0.4109  4.3706
  132OSM    H6T14243   2.752   6.566   6.867  1.9474  0.0789 -0.1439
  132OSM    C7S14244   2.670   6.759   6.847  0.0541  0.2895  0.2314
  132OSM    H7S14245   2.671   6.848   6.780  1.4211 -0.5801 -0.9604
  132OSM    H7T14246   2.730   6.793   6.934 -0.3079 -0.1315  0.6504
  132OSM    C8S14247   2.536   6.732   6.923  0.1757 -0.1178  0.2402
  132OSM    H8S14248   2.458   6.706   6.849  0.9824  1.2899 -1.1641
  132OSM    H8T14249   2.507   6.827   6.972 -2.1719 -0.7009  0.0614
  132OSM    C9S14250   2.539   6.626   7.042 -0.5488 -0.9418 -0.1564
  132OSM    H9S14251   2.644   6.638   7.076  0.3285  0.3219 -2.9875
  132OSM    H9T14252   2.518   6.522   7.010  0.7872 -1.1744 -0.3516
  132OSM   C10S14253   2.439   6.668   7.151 -0.0966  0.5000  0.5389
  132OSM   H10S14254   2.344   6.698   7.102  1.0743  0.7037 -1.7440
  132OSM   H10T14255   2.487   6.756   7.199  0.8653 -0.0889  0.6902
  132OSM   C11S14256   2.415   6.561   7.259 -0.1191  0.1325 -0.2876
  132OSM   H11S14257   2.516   6.524   7.289  0.2965  0.1308 -1.5910
  132OSM   H11T14258   2.380   6.474   7.198  1.3536  0.0167 -1.0189
  132OSM   C12S14259   2.321   6.598   7.371 -0.0211 -0.2872  0.1568
  132OSM   H12S14260   2.221   6.623   7.330  0.4196  0.1000 -0.6898
  132OSM   H12T14261   2.364   6.687   7.423 -0.1410 -0.8424  1.2528
  132OSM   C13S14262   2.320   6.486   7.480 -0.3429  0.3073 -1.0304
  132OSM   H13S14263   2.428   6.469   7.498 -0.2569 -0.5537 -2.2154
  132OSM   H13T14264   2.278   6.395   7.431 -0.9703  1.8464 -3.5422
  132OSM   C14S14265   2.252   6.530   7.615  0.2002 -0.9123 -0.1754
  132OSM   H14S14266   2.146   6.543   7.586  0.6418  1.5387 -0.9321
  132OSM   H14T14267   2.301   6.626   7.642 -0.5447 -0.8965  1.2320
  132OSM   C15S14268   2.263   6.428   7.727  0.0532  0.0124 -0.1145
  132OSM   H15S14269   2.373   6.419   7.736  0.3314  2.2392 -0.5612
  132OSM   H15T14270   2.220   6.335   7.684 -1.9699  1.1725 -0.7607
  132OSM   C16S14271   2.206   6.456   7.859 -0.2226  0.6603 -0.6929
  132OSM   H16S14272   2.099   6.483   7.845 -0.3408  0.7028  0.2433
  132OSM   H16T14273   2.260   6.537   7.912  1.5493 -1.6442  1.2242
  132OSM   C17S14274   2.217   6.345   7.961 -0.1995  0.4206 -0.3651
  132OSM   H17S14275   2.311   6.288   7.946 -0.7457 -1.0208  1.3805
  132OSM   H17T14276   2.137   6.277   7.925 -2.4005  2.2839  0.7087
  132OSM   C18S14277   2.199   6.378   8.109  0.3193  0.2471 -0.1925
  132OSM   H18S14278   2.112   6.447   8.115 -0.1328 -0.2715 -0.6577
  132OSM   H18T14279   2.285   6.424   8.163  0.2690  1.0401 -0.7705
  132OSM   H18U14280   2.162   6.288   8.163  1.1738  1.4486  2.5839
  132OSM    C1F14281   2.247   6.378   6.727 -0.5478  0.4572  0.0716
  132OSM     OF14282   2.242   6.257   6.701 -0.0525 -0.6640 -0.0159
  132OSM    C2F14283   2.171   6.432   6.842  0.1886 -0.4424 -0.0354
  132OSM    H2F14284   2.061   6.422   6.825  0.0297  0.6939  0.2082
  132OSM    H2G14285   2.194   6.541   6.841  0.3608 -0.4339 -2.5501
  132OSM    C3F14286   2.210   6.367   6.974  1.2427 -0.0195 -0.6115
  132OSM    H3F14287   2.315   6.397   6.993  1.2921 -0.3782 -0.3036
  132OSM    H3G14288   2.214   6.256   6.967 -1.4373 -0.2290  0.1702
  132OSM    C4F14289   2.127   6.414   7.095 -0.5412 -0.3312 -0.2651
  132OSM    H4F14290   2.121   6.524   7.076  1.6120 -0.4379 -1.8992
  132OSM    H4G14291   2.189   6.381   7.180 -0.0531  1.5220  0.1464
  132OSM    C5F14292   1.989   6.355   7.108 -0.4744  0.2311  0.4974
  132OSM    H5F14293   1.984   6.252   7.065  0.6225 -0.3414  1.6675
  132OSM    H5G14294   1.926   6.416   7.039 -1.3696  0.6349  1.6427
  132OSM    C6F14295   1.926   6.347   7.253  0.0679 -0.1420  0.1392
  132OSM    H6F14296   1.991   6.290   7.322 -0.9739 -0.7485  0.6587
  132OSM    H6G14297   1.825   6.300   7.253  0.0861 -0.1991  1.6025
  132OSM    C7F14298   1.911   6.488   7.314 -0.1214  1.1387 -0.3552
  132OSM    H7F14299   1.848   6.561   7.258 -1.0604 -0.5808 -1.6597
  132OSM    H7G14300   2.013   6.530   7.315  0.5174 -0.3213 -1.0868
  132OSM    C8F14301   1.856   6.475   7.462 -0.1948 -0.5060  0.0160
  132OSM    H8F14302   1.892   6.563   7.520  0.7446 -1.2713  0.6269
  132OSM    H8G14303   1.901   6.385   7.509  0.2795 -0.0456  0.4575
  132OSM    C9F14304   1.708   6.463   7.474 -0.5443  0.8460 -0.4971
  132OSM    H9F14305   1.649   6.546   7.433 -1.5302  2.2234  3.2808
  132OSM   C10F14306   1.632   6.380   7.539 -0.3555  0.3982 -0.3620
  132OSM   H10F14307   1.525   6.400   7.553  0.3841  2.5192  4.9472
  132OSM   C11F14308   1.676   6.265   7.632 -0.4130 -0.4614 -0.2373
  132OSM   H11F14309   1.779   6.230   7.606  0.3088 -0.0250  1.8733
  132OSM   H11G14310   1.613   6.175   7.615  0.7363 -0.9470 -2.3161
  132OSM   C12F14311   1.676   6.297   7.782  0.0482  0.0331 -0.1611
  132OSM   H12F14312   1.717   6.211   7.838  1.5876 -0.3512 -1.7878
  132OSM   H12G14313   1.578   6.335   7.818 -0.3678 -0.3834 -0.8307
  132OSM   C13F14314   1.789   6.404   7.813 -0.4758  0.1121 -0.5953
  132OSM   H13F14315   1.763   6.491   7.748  0.1822 -2.0295 -3.9719
  132OSM   H13G14316   1.881   6.372   7.759 -1.5058 -1.9026 -1.2448
  132OSM   C14F14317   1.791   6.438   7.960 -0.3812 -0.4572  0.5883
  132OSM   H14F14318   1.893   6.477   7.983 -0.7338 -0.7474  2.9043
  132OSM   H14G14319   1.784   6.341   8.014  1.1940 -1.1630 -0.3863
  132OSM   C15F14320   1.702   6.549   8.006  0.9947 -0.9110  0.5101
  132OSM   H15F14321   1.596   6.515   8.007  1.0303 -1.0228  0.4376
  132OSM   H15G14322   1.707   6.635   7.937 -0.5881 -1.5729 -0.4763
  132OSM   C16F14323   1.738   6.612   8.143 -0.0536  0.0462 -0.3945
  132OSM   H16F14324   1.647   6.673   8.160  0.4192  0.7412 -0.2824
  132OSM   H16G14325   1.826   6.680   8.138  1.5569 -1.9661 -1.0180
  132OSM   C17F14326   1.760   6.517   8.262  0.2592  0.3246 -0.3253
  132OSM   H17F14327   1.761   6.580   8.354 -1.7539 -1.1230  0.7655
  132OSM   H17G14328   1.859   6.469   8.245  0.2548  0.6948 -1.4138
  132OSM   C18F14329   1.662   6.394   8.272 -0.2342  0.2800  0.3754
  132OSM   H18F14330   1.658   6.337   8.177  0.4960  0.3096  0.3169
  132OSM   H18G14331   1.557   6.423   8.294  0.1860  0.8265  1.7719
  132OSM   H18H14332   1.690   6.322   8.352 -0.0111 -1.9667 -1.6446
  133OSM      N14333   2.605   4.749   6.024 -0.5434 -0.2400 -0.7253
  133OSM    C1514334   2.462   4.745   6.072 -0.1199  0.7684  0.1162
  133OSM   H15A14335   2.425   4.653   6.030  3.2233 -1.5653  1.7741
  133OSM   H15B14336   2.412   4.827   6.023  0.2542  0.0292 -1.5637
  133OSM   H15C14337   2.442   4.739   6.178  3.5654 -0.3247  0.9070
  133OSM    C1414338   2.685   4.671   6.120 -0.2080  0.1997  0.5041
  133OSM   H14A14339   2.660   4.696   6.222 -0.3407  1.7262  0.1178
  133OSM   H14B14340   2.790   4.682   6.094 -0.5813  0.8170 -0.8671
  133OSM   H14C14341   2.651   4.570   6.104  0.1678  0.1504 -0.0406
  133OSM    C1314342   2.623   4.698   5.885  0.0402 -0.4478 -0.3141
  133OSM   H13A14343   2.561   4.760   5.822  1.7343 -1.2032 -2.8875
  133OSM   H13B14344   2.596   4.593   5.880  0.6672 -0.6450  0.3231
  133OSM   H13C14345   2.721   4.703   5.841  0.0067 -3.1840 -0.9171
  133OSM    C1214346   2.657   4.895   6.013 -0.5900 -0.4568  0.2277
  133OSM   H12A14347   2.760   4.905   5.982 -1.2791 -0.1727 -2.1630
  133OSM   H12B14348   2.656   4.945   6.108  1.0884  3.2803 -1.5406
  133OSM    C1114349   2.571   4.981   5.921  0.5450 -0.4847 -0.3521
  133OSM   H11A14350   2.576   4.953   5.814  0.9012 -2.8069  0.2136
  133OSM   H11B14351   2.638   5.070   5.920  0.2350 -0.2472 -0.2423
  133OSM      P14352   2.426   5.141   6.076 -0.2255 -0.0242  0.0663
  133OSM    O1314353   2.478   5.264   6.001 -0.3877 -0.5162 -0.4980
  133OSM    O1414354   2.289   5.160   6.134 -0.0468  0.3261  0.0721
  133OSM    O1114355   2.523   5.101   6.195  0.1480 -0.0773 -0.2416
  133OSM    O1214356   2.442   5.015   5.975 -0.0628  0.6787  0.1038
  133OSM    C1S14357   2.567   5.207   6.287  0.0260  0.3149 -0.3807
  133OSM    H1S14358   2.570   5.310   6.247 -3.5525  0.9410  0.6285
  133OSM    H1T14359   2.667   5.176   6.324  0.2735 -0.4457 -1.6254
  133OSM     NF14360   2.500   5.343   6.474  0.1193 -0.0244 -0.0071
  133OSM    HNF14361   2.585   5.350   6.525  1.1482  0.5782 -1.7087
  133OSM    C2S14362   2.475   5.214   6.420 -0.3553  0.0705 -0.1986
  133OSM    H2S14363   2.373   5.191   6.385  0.8879 -0.9616 -3.4853
  133OSM    C3S14364   2.525   5.105   6.513  0.2122 -0.7591 -0.5087
  133OSM    H3S14365   2.632   5.116   6.542 -0.1203 -2.9172  2.0194
  133OSM     O314366   2.511   4.978   6.456 -0.5224 -0.4310  0.3158
  133OSM    HO314367   2.557   4.973   6.372  1.3372 -1.5439  1.3581
  133OSM    C4S14368   2.444   5.105   6.641  0.6494  0.5040 -0.5496
  133OSM    H4S14369   2.422   5.205   6.680  0.0933  0.2469 -0.1999
  133OSM    C5S14370   2.388   5.003   6.706  0.4593  0.7233 -0.2855
  133OSM    H5S14371   2.389   4.903   6.660  3.3480  0.4872  0.0782
  133OSM    C6S14372   2.299   5.009   6.833 -0.2730  0.2125 -0.3736
  133OSM    H6S14373   2.278   5.111   6.874 -2.8073 -0.3795 -0.0242
  133OSM    H6T14374   2.355   4.949   6.907  0.8497 -0.2858 -1.5960
  133OSM    C7S14375   2.158   4.949   6.827  0.0254 -0.4550  0.8132
  133OSM    H7S14376   2.169   4.846   6.788  0.9103 -1.1194  2.7040
  133OSM    H7T14377   2.101   5.004   6.749 -1.7168  0.1010  2.3880
  133OSM    C8S14378   2.088   4.955   6.961  0.2394 -0.1159 -0.2788
  133OSM    H8S14379   2.103   5.051   7.015  1.1713 -0.8306  0.7842
  133OSM    H8T14380   2.151   4.896   7.031  2.2268  2.0198 -0.1513
  133OSM    C9S14381   1.940   4.920   6.952  0.4337  0.2967  0.0899
  133OSM    H9S14382   1.941   4.830   6.888  0.4588  1.9349 -2.3522
  133OSM    H9T14383   1.879   4.998   6.901 -0.9951  0.2504  1.6191
  133OSM   C10S14384   1.880   4.885   7.088  0.2177  0.1688 -0.0954
  133OSM   H10S14385   1.853   4.977   7.144  0.3741 -1.3430  2.6181
  133OSM   H10T14386   1.950   4.827   7.151 -2.0910  0.7877  3.2530
  133OSM   C11S14387   1.746   4.817   7.079 -0.8326 -0.4435  0.1415
  133OSM   H11S14388   1.751   4.724   7.017 -0.1670  0.4589 -1.2000
  133OSM   H11T14389   1.685   4.887   7.017 -1.5819 -0.9617  0.2673
  133OSM   C12S14390   1.691   4.788   7.220  0.1251  0.4327 -0.7823
  133OSM   H12S14391   1.590   4.745   7.210 -0.2903  1.7135 -2.6001
  133OSM   H12T14392   1.674   4.882   7.277 -0.0495 -0.1703  0.1817
  133OSM   C13S14393   1.769   4.678   7.294 -0.3096  0.3117  0.0719
  133OSM   H13S14394   1.869   4.706   7.333 -0.1377 -0.0553 -0.0983
  133OSM   H13T14395   1.774   4.600   7.215  0.0245 -0.8151  1.1665
  133OSM   C14S14396   1.688   4.609   7.400  0.3302  0.0382  0.2785
  133OSM   H14S14397   1.758   4.537   7.445  0.8823 -0.6150 -1.5481
  133OSM   H14T14398   1.603   4.547   7.364  0.1341  0.9309 -0.8371
  133OSM   C15S14399   1.638   4.714   7.508  0.0457 -0.1580  0.3983
  133OSM   H15S14400   1.550   4.773   7.474 -0.3594 -0.2693  1.2367
  133OSM   H15T14401   1.729   4.775   7.526  0.3583 -1.3065  3.2192
  133OSM   C16S14402   1.595   4.651   7.640 -0.2662  0.3170  0.1326
  133OSM   H16S14403   1.680   4.603   7.694 -0.1381  1.6124  1.1150
  133OSM   H16T14404   1.519   4.571   7.625  0.4061 -0.1298 -1.0294
  133OSM   C17S14405   1.543   4.750   7.735  0.3990 -0.3123  0.1151
  133OSM   H17S14406   1.485   4.826   7.678  0.5874  2.9820  3.8740
  133OSM   H17T14407   1.631   4.803   7.775 -0.8004  1.1570  0.9131
  133OSM   C18S14408   1.456   4.675   7.848  1.5414  0.0204  0.0306
  133OSM   H18S14409   1.521   4.609   7.908  0.6966 -2.2701 -1.4551
  133OSM   H18T14410   1.356   4.637   7.817  1.3346  2.1406 -2.2649
  133OSM   H18U14411   1.419   4.754   7.918 -1.6971 -2.1499  0.9692
  133OSM    C1F14412   2.428   5.446   6.418 -0.2055  0.4622  0.0918
  133OSM     OF14413   2.339   5.427   6.335 -0.6809  0.1996 -0.1527
  133OSM    C2F14414   2.476   5.580   6.458  0.0783  0.7660  0.9700
  133OSM    H2F14415   2.450   5.640   6.368 -1.5660  3.3751  3.0701
  133OSM    H2G14416   2.585   5.568   6.476  0.5583 -0.4726 -2.0029
  133OSM    C3F14417   2.400   5.640   6.575 -1.1678 -0.2650 -0.2807
  133OSM    H3F14418   2.289   5.643   6.567 -1.1216 -0.4419 -1.0759
  133OSM    H3G14419   2.433   5.745   6.561 -1.2319 -0.5482 -3.4061
  133OSM    C4F14420   2.462   5.580   6.699  0.6153 -0.0246 -0.0881
  133OSM    H4F14421   2.570   5.572   6.675  0.5234  0.5437 -0.7314
  133OSM    H4G14422   2.430   5.476   6.722 -0.0010  0.1991  0.0716
  133OSM    C5F14423   2.439   5.655   6.829 -0.2480  0.2258  0.1328
  133OSM    H5F14424   2.404   5.757   6.800  0.7628  0.3016 -0.9268
  133OSM    H5G14425   2.541   5.656   6.872 -0.2481 -0.5462  0.1536
  133OSM    C6F14426   2.353   5.583   6.932 -1.1414 -0.1765  0.1093
  133OSM    H6F14427   2.407   5.488   6.952  2.1620  1.7968  1.2354
  133OSM    H6G14428   2.249   5.567   6.895 -0.8082 -1.3855 -0.3804
  133OSM    C7F14429   2.355   5.655   7.068  0.2547  0.5696 -0.2178
  133OSM    H7F14430   2.292   5.746   7.085 -0.4464 -0.6180  5.6757
  133OSM    H7G14431   2.460   5.674   7.098 -0.0785 -1.2133  2.3999
  133OSM    C8F14432   2.293   5.561   7.184 -0.2263 -0.3918 -0.3059
  133OSM    H8F14433   2.184   5.563   7.161 -0.5498 -0.4596  1.1286
  133OSM    H8G14434   2.302   5.607   7.285 -2.0165  1.3405 -0.8530
  133OSM    C9F14435   2.342   5.420   7.178  0.3400 -0.3480  0.1233
  133OSM    H9F14436   2.308   5.366   7.089  1.8162  1.7802 -1.8253
  133OSM   C10F14437   2.429   5.367   7.262 -0.4497  0.5194  0.7710
  133OSM   H10F14438   2.437   5.258   7.264 -2.3454  0.3035 -0.6220
  133OSM   C11F14439   2.499   5.431   7.380 -0.7982  0.9426 -0.1763
  133OSM   H11F14440   2.522   5.538   7.366  2.4548  0.2471 -1.0538
  133OSM   H11G14441   2.598   5.381   7.391  0.1283  2.5390 -0.9660
  133OSM   C12F14442   2.421   5.411   7.505 -0.3095  0.5813 -0.1092
  133OSM   H12F14443   2.390   5.305   7.519 -1.2078  0.6813 -1.2634
  133OSM   H12G14444   2.328   5.472   7.497 -1.1294 -0.6018  0.0488
  133OSM   C13F14445   2.493   5.464   7.634 -0.0508 -0.3001  0.1883
  133OSM   H13F14446   2.412   5.502   7.700 -1.3857  0.8849 -1.9800
  133OSM   H13G14447   2.571   5.542   7.615  1.0699 -1.4770 -0.1596
  133OSM   C14F14448   2.553   5.346   7.713  0.2028  0.0926  0.0878
  133OSM   H14F14449   2.630   5.286   7.660 -1.2651 -3.4791  1.6587
  133OSM   H14G14450   2.473   5.274   7.742  1.6657 -1.2916  0.8654
  133OSM   C15F14451   2.618   5.406   7.837 -0.1630  0.4629  0.0775
  133OSM   H15F14452   2.676   5.494   7.800 -0.1140  0.7275  0.7725
  133OSM   H15G14453   2.692   5.334   7.879 -2.5318 -3.1422 -1.4412
  133OSM   C16F14454   2.521   5.429   7.956 -0.6412 -0.4997 -0.1127
  133OSM   H16F14455   2.413   5.425   7.933 -0.6473 -1.2495  0.0163
  133OSM   H16G14456   2.544   5.536   7.976  1.3577 -1.0167  0.6477
  133OSM   C17F14457   2.554   5.345   8.083 -0.7115 -0.1098  0.2494
  133OSM   H17F14458   2.664   5.333   8.093 -0.1605  3.8595  0.6028
  133OSM   H17G14459   2.521   5.240   8.074  1.5842 -0.7452 -1.4754
  133OSM   C18F14460   2.494   5.412   8.207 -0.6119 -0.6449  0.1267
  133OSM   H18F14461   2.530   5.363   8.299 -0.5962 -0.9088 -0.0192
  133OSM   H18G14462   2.383   5.410   8.205 -0.9001  3.0625 -3.5416
  133OSM   H18H14463   2.524   5.518   8.225  1.4969 -1.7910  4.6545
  134OSM      N14464   2.125   1.155   6.144 -0.0858 -0.0604  0.5624
  134OSM    C1514465   2.176   1.250   6.040  0.3230  0.0005  0.3009
  134OSM   H15A14466   2.281   1.265   6.060  0.5546  0.7378 -1.2862
  134OSM   H15B14467   2.113   1.337   6.043 -0.5322 -0.5989  0.0857
  134OSM   H15C14468   2.169   1.208   5.941 -0.6162  0.2406  0.2568
  134OSM    C1414469   2.019   1.082   6.080  0.1679 -0.4622 -0.5904
  134OSM   H14A14470   2.056   1.016   6.003  1.7137 -1.1612  0.6908
  134OSM   H14B14471   1.948   1.153   6.039  0.6359  2.5758  3.2660
  134OSM   H14C14472   1.965   1.020   6.150  1.6287 -1.2446 -0.1283
  134OSM    C1314473   2.229   1.054   6.170  0.9613 -0.2472 -0.4874
  134OSM   H13A14474   2.319   1.109   6.194  1.6472 -1.9937  1.2494
  134OSM   H13B14475   2.245   0.997   6.080 -0.2439 -1.0685 -0.2047
  134OSM   H13C14476   2.198   0.991   6.253  1.0433 -0.1337 -0.3707
  134OSM    C1214477   2.092   1.236   6.269 -0.6094  0.0980  0.0232
  134OSM   H12A14478   2.028   1.181   6.338  0.8157 -0.7495  0.7136
  134OSM   H12B14479   2.046   1.332   6.248  0.7531  1.0522  1.2023
  134OSM    C1114480   2.205   1.272   6.369 -0.3792  0.0505 -0.3142
  134OSM   H11A14481   2.278   1.194   6.400 -0.4400  0.0791 -0.0989
  134OSM   H11B14482   2.156   1.301   6.464  0.7804  0.8851  0.0657
  134OSM      P14483   2.308   1.510   6.395  0.1633 -0.4476 -0.0837
  134OSM    O1314484   2.430   1.572   6.342 -0.0196 -0.9232 -0.1348
  134OSM    O1414485   2.180   1.593   6.389 -0.2771  0.1947 -0.5730
  134OSM    O1114486   2.323   1.463   6.543  0.4013 -0.0327 -0.1383
  134OSM    O1214487   2.280   1.379   6.315 -0.3467  0.0235  0.5242
  134OSM    C1S14488   2.424   1.378   6.593  0.1246  0.6299 -0.2061
  134OSM    H1S14489   2.521   1.430   6.579  0.8648 -0.6082  0.2372
  134OSM    H1T14490   2.430   1.287   6.529  0.9679  1.3813 -1.2463
  134OSM     NF14491   2.485   1.249   6.789 -0.7723 -0.4419  0.4943
  134OSM    HNF14492   2.454   1.167   6.836  2.6355 -1.3872  1.3939
  134OSM    C2S14493   2.398   1.353   6.741  0.7163 -0.2448 -0.4169
  134OSM    H2S14494   2.413   1.441   6.807  3.5905  0.1601 -1.4489
  134OSM    C3S14495   2.245   1.311   6.766 -0.6861  0.3107 -0.5274
  134OSM    H3S14496   2.220   1.218   6.711  1.0751 -1.0821  0.9312
  134OSM     O314497   2.143   1.395   6.711 -0.8552  0.2262  0.4421
  134OSM    HO314498   2.191   1.444   6.644 -1.1507  1.4105  1.0770
  134OSM    C4S14499   2.208   1.286   6.913  0.1475  0.4282  0.1696
  134OSM    H4S14500   2.197   1.179   6.934 -0.7800  0.7296  1.3538
  134OSM    C5S14501   2.201   1.382   7.008 -0.1753  0.6962 -0.4451
  134OSM    H5S14502   2.220   1.482   6.967 -0.0671  1.4595  1.3716
  134OSM    C6S14503   2.171   1.368   7.156  0.4829 -0.5905 -0.1515
  134OSM    H6S14504   2.081   1.428   7.179  1.6010  0.7251  0.9964
  134OSM    H6T14505   2.256   1.417   7.208 -0.6537  2.8149 -1.2667
  134OSM    C7S14506   2.141   1.231   7.215 -0.3104 -0.5593 -0.3945
  134OSM    H7S14507   2.232   1.168   7.199  0.2432  0.6316 -2.2023
  134OSM    H7T14508   2.059   1.175   7.166 -0.9423  0.3141 -0.3537
  134OSM    C8S14509   2.116   1.237   7.366 -0.9325  0.2468 -0.0325
  134OSM    H8S14510   2.073   1.139   7.396  1.1802 -0.5883  0.4562
  134OSM    H8T14511   2.051   1.321   7.398 -1.2899  0.3878 -1.0674
  134OSM    C9S14512   2.255   1.263   7.435  0.0497 -0.9164  0.0487
  134OSM    H9S14513   2.288   1.369   7.428  1.5884 -1.4149 -0.6395
  134OSM    H9T14514   2.329   1.199   7.381 -0.4632 -0.0105 -1.8237
  134OSM   C10S14515   2.244   1.230   7.584  0.0588  0.2569  0.3428
  134OSM   H10S14516   2.188   1.137   7.606 -0.2561  0.3541 -0.0427
  134OSM   H10T14517   2.176   1.310   7.621  0.0450  0.9559 -1.1305
  134OSM   C11S14518   2.376   1.231   7.654  0.1208 -0.4791 -0.1067
  134OSM   H11S14519   2.427   1.327   7.632 -1.1518  0.3049  0.2393
  134OSM   H11T14520   2.445   1.150   7.620  1.0092 -0.9200  2.5442
  134OSM   C12S14521   2.348   1.216   7.801 -0.2704  0.5033 -0.3448
  134OSM   H12S14522   2.335   1.108   7.823 -0.3167  0.7122  0.7062
  134OSM   H12T14523   2.254   1.272   7.821  0.4546  1.4155  0.6324
  134OSM   C13S14524   2.467   1.248   7.889  0.1713 -1.0786  0.1865
  134OSM   H13S14525   2.467   1.359   7.896  1.7432 -0.9431 -1.2502
  134OSM   H13T14526   2.563   1.234   7.835  0.6034  0.7149  0.4119
  134OSM   C14S14527   2.464   1.189   8.036 -0.4840  0.7944 -0.3241
  134OSM   H14S14528   2.487   1.081   8.021 -2.3337  0.2316  0.5926
  134OSM   H14T14529   2.362   1.198   8.080 -0.3313 -0.7194  0.4168
  134OSM   C15S14530   2.559   1.247   8.131 -0.0540 -0.3073  0.0106
  134OSM   H15S14531   2.552   1.357   8.134 -0.7923 -0.3743  1.2494
  134OSM   H15T14532   2.663   1.222   8.100  1.4397  1.7722  2.9038
  134OSM   C16S14533   2.545   1.189   8.271 -0.0667 -0.4316 -0.2839
  134OSM   H16S14534   2.617   1.239   8.339 -0.0323  0.3946 -0.9087
  134OSM   H16T14535   2.573   1.082   8.264 -0.8268 -0.7759  1.4893
  134OSM   C17S14536   2.403   1.210   8.347 -0.3287  0.1548  0.5558
  134OSM   H17S14537   2.322   1.164   8.286  0.8946 -0.3669 -0.7625
  134OSM   H17T14538   2.392   1.319   8.361  0.2809  0.0898  1.5920
  134OSM   C18S14539   2.415   1.144   8.481 -0.0307 -0.2124  0.1555
  134OSM   H18S14540   2.512   1.176   8.525  0.3314  3.3618 -2.6636
  134OSM   H18T14541   2.413   1.033   8.476  4.1237 -0.5365  1.7869
  134OSM   H18U14542   2.324   1.188   8.527  0.2689  0.6526 -0.0460
  134OSM    C1F14543   2.617   1.257   6.792 -0.1142  0.6383  0.5408
  134OSM     OF14544   2.683   1.346   6.738  0.0242  0.1794  0.4662
  134OSM    C2F14545   2.677   1.144   6.873  0.7088  0.5203 -0.1171
  134OSM    H2F14546   2.621   1.051   6.846  0.0907  1.3494 -1.8938
  134OSM    H2G14547   2.652   1.164   6.979 -0.1288 -1.4953  0.1115
  134OSM    C3F14548   2.834   1.132   6.868  0.1587 -0.2232 -0.2520
  134OSM    H3F14549   2.879   1.227   6.904 -0.8855  0.2810 -0.2045
  134OSM    H3G14550   2.850   1.119   6.759  1.0723  0.6719 -0.2374
  134OSM    C4F14551   2.895   1.010   6.931  0.1272 -0.4782  0.6676
  134OSM    H4F14552   2.999   0.995   6.894  1.0166 -1.4426  3.2836
  134OSM    H4G14553   2.841   0.916   6.908  1.7848 -1.3567  0.1638
  134OSM    C5F14554   2.922   1.017   7.085  0.2054 -0.1280 -0.3013
  134OSM    H5F14555   2.829   1.012   7.146  0.4805 -1.7927  0.0418
  134OSM    H5G14556   2.973   1.115   7.094 -0.6310  0.5206 -2.1182
  134OSM    C6F14557   2.998   0.894   7.133 -1.6307  0.2120  0.6573
  134OSM    H6F14558   3.090   0.885   7.071 -2.5668  0.3645 -0.8128
  134OSM    H6G14559   2.940   0.804   7.105  0.1471 -0.1951 -2.1035
  134OSM    C7F14560   3.041   0.903   7.280 -0.0902 -0.5535  0.2328
  134OSM    H7F14561   2.954   0.898   7.349 -0.0516  0.8144  0.4082
  134OSM    H7G14562   3.102   0.991   7.310 -0.0804 -0.9535  1.4799
  134OSM    C8F14563   3.122   0.771   7.300 -0.3269 -0.0558 -0.3340
  134OSM    H8F14564   3.218   0.779   7.245  1.1156 -1.1527  1.8962
  134OSM    H8G14565   3.067   0.682   7.261  0.3540 -0.2412 -0.9022
  134OSM    C9F14566   3.153   0.750   7.442 -0.4357  0.0710 -0.3403
  134OSM    H9F14567   3.182   0.839   7.500 -1.4607 -0.1776  0.5917
  134OSM   C10F14568   3.168   0.631   7.511 -0.4931 -0.3384  0.0329
  134OSM   H10F14569   3.174   0.636   7.621  0.1641  0.5134 -0.0313
  134OSM   C11F14570   3.149   0.487   7.456  0.0657 -0.2267  0.0360
  134OSM   H11F14571   3.081   0.494   7.368  1.6786 -0.0402 -1.2351
  134OSM   H11G14572   3.094   0.433   7.536 -2.6358  0.8407 -0.9898
  134OSM   C12F14573   3.286   0.428   7.426  0.0488 -0.3547  0.0610
  134OSM   H12F14574   3.346   0.428   7.519  1.7286 -1.0405 -0.9556
  134OSM   H12G14575   3.347   0.485   7.352 -1.4028 -0.1532 -1.0254
  134OSM   C13F14576   3.274   0.291   7.360 -0.1313  0.0830 -0.3718
  134OSM   H13F14577   3.207   0.231   7.425 -1.0694 -0.0376 -1.4123
  134OSM   H13G14578   3.368   0.235   7.343 -0.1928  0.0971 -0.7660
  134OSM   C14F14579   3.200   0.280   7.230  0.1399 -0.8380  0.4497
  134OSM   H14F14580   3.101   0.330   7.238 -0.2318 -1.3936 -0.5618
  134OSM   H14G14581   3.196   0.173   7.200  0.9541 -0.5085 -0.8964
  134OSM   C15F14582   3.284   0.355   7.116  0.4332  0.2149 -0.0248
  134OSM   H15F14583   3.385   0.310   7.112  1.0424  1.6022 -3.1831
  134OSM   H15G14584   3.293   0.462   7.148 -1.0362  0.6007 -0.8085
  134OSM   C16F14585   3.222   0.333   6.979  0.5030  0.1086  0.1845
  134OSM   H16F14586   3.245   0.227   6.956 -0.5472 -0.1937  0.4556
  134OSM   H16G14587   3.288   0.388   6.909  0.8920  0.9022  1.1352
  134OSM   C17F14588   3.075   0.375   6.965 -0.9946  0.9573 -0.2477
  134OSM   H17F14589   3.062   0.478   7.005  1.2626  1.2830 -0.1763
  134OSM   H17G14590   3.016   0.305   7.028  1.1874  0.5828  1.5168
  134OSM   C18F14591   3.037   0.383   6.819 -0.1387 -0.1179 -0.6814
  134OSM   H18F14592   2.933   0.421   6.810 -0.3953 -0.8960 -1.0742
  134OSM   H18G14593   3.039   0.284   6.768 -3.3580 -0.4642 -0.3896
  134OSM   H18H14594   3.111   0.437   6.755  0.3081 -1.0821 -1.0008
  135OSM      N14595   2.361   1.940   6.260 -0.1502 -0.1011 -0.1581
  135OSM    C1514596   2.324   1.862   6.139  0.6357  0.4726 -0.1255
  135OSM   H15A14597   2.402   1.797   6.101 -0.4468 -2.0796  1.6685
  135OSM   H15B14598   2.292   1.933   6.065 -0.0432  1.8573  1.4321
  135OSM   H15C14599   2.244   1.792   6.157 -0.3179  1.4857 -0.3447
  135OSM    C1414600   2.490   2.022   6.230  0.0869  0.0110 -0.0295
  135OSM   H14A14601   2.477   2.081   6.141 -0.4167  0.4055  0.3018
  135OSM   H14B14602   2.569   1.950   6.213  0.2461  0.7682 -2.9769
  135OSM   H14C14603   2.513   2.086   6.314  0.1952  0.9033 -0.7311
  135OSM    C1314604   2.253   2.039   6.281  0.3464 -0.0046 -0.1930
  135OSM   H13A14605   2.225   2.101   6.197  0.2288 -1.7285 -1.4898
  135OSM   H13B14606   2.296   2.110   6.350  1.8687 -1.2508  0.1890
  135OSM   H13C14607   2.165   1.997   6.327 -0.5194  1.6144 -0.3045
  135OSM    C1214608   2.391   1.857   6.383  0.6281 -1.0809  0.8009
  135OSM   H12A14609   2.460   1.780   6.352  0.9256  0.2723 -2.3725
  135OSM   H12B14610   2.299   1.808   6.412  1.5114 -2.1644  1.8341
  135OSM    C1114611   2.436   1.926   6.508 -0.1576 -0.6243  0.0619
  135OSM   H11A14612   2.411   1.862   6.595  0.0765  2.0100  2.2438
  135OSM   H11B14613   2.369   2.013   6.526  0.6015  0.0865 -0.4780
  135OSM      P14614   2.688   1.860   6.513 -0.1731  0.1233 -0.0230
  135OSM    O1314615   2.702   1.809   6.374  0.5375 -0.0988 -0.2077
  135OSM    O1414616   2.804   1.923   6.577  0.0227  0.8807 -0.1804
  135OSM    O1114617   2.631   1.748   6.614 -0.5954  0.0728  0.7865
  135OSM    O1214618   2.576   1.968   6.513  0.7540  0.3571 -0.5186
  135OSM    C1S14619   2.685   1.745   6.749  0.0541 -0.3661  0.5874
  135OSM    H1S14620   2.781   1.801   6.758  0.0033  0.9571 -4.2668
  135OSM    H1T14621   2.706   1.641   6.783 -2.6887 -0.8695  0.9550
  135OSM     NF14622   2.647   1.813   6.991  0.4473  0.1771 -0.5434
  135OSM    HNF14623   2.612   1.762   7.069  1.3514  1.1278  0.5327
  135OSM    C2S14624   2.579   1.795   6.863 -0.3325 -0.1967  0.2021
  135OSM    H2S14625   2.540   1.895   6.836  1.0839 -0.2465 -2.3801
  135OSM    C3S14626   2.457   1.710   6.878 -0.4200  0.4288  1.0145
  135OSM    H3S14627   2.476   1.610   6.921  1.5273  0.4066  0.1905
  135OSM     O314628   2.393   1.684   6.753 -0.2813  0.0061 -0.2502
  135OSM    HO314629   2.468   1.680   6.694  1.2921  0.5192  1.5946
  135OSM    C4S14630   2.365   1.778   6.975 -0.1006  0.2180 -0.1797
  135OSM    H4S14631   2.323   1.877   6.952 -0.4168  0.0835 -0.1967
  135OSM    C5S14632   2.310   1.734   7.093  0.7025 -0.9510 -0.1632
  135OSM    H5S14633   2.344   1.635   7.124  2.3443 -0.4169 -0.1551
  135OSM    C6S14634   2.210   1.822   7.164 -0.6882 -0.4184 -0.5227
  135OSM    H6S14635   2.112   1.772   7.174  0.0053 -1.7734 -0.2065
  135OSM    H6T14636   2.194   1.911   7.100 -0.8067  0.2100  0.3533
  135OSM    C7S14637   2.266   1.858   7.307  0.0263  1.0233 -0.6306
  135OSM    H7S14638   2.197   1.918   7.369  0.6042  0.8399  0.2112
  135OSM    H7T14639   2.363   1.909   7.293  0.5368  1.2114  2.7718
  135OSM    C8S14640   2.295   1.730   7.394  0.8923  0.8234 -0.3153
  135OSM    H8S14641   2.371   1.672   7.336 -1.3648 -2.3542 -0.4078
  135OSM    H8T14642   2.202   1.668   7.398  0.4616  1.3980 -1.1323
  135OSM    C9S14643   2.344   1.754   7.532  0.3119  0.1221  0.3079
  135OSM    H9S14644   2.286   1.837   7.577 -0.7183  0.2342 -1.1719
  135OSM    H9T14645   2.450   1.782   7.517 -0.2112  0.8157 -2.6844
  135OSM   C10S14646   2.329   1.626   7.619 -0.3188 -0.3384 -0.0848
  135OSM   H10S14647   2.384   1.544   7.569  0.9107  0.3478  0.1027
  135OSM   H10T14648   2.227   1.590   7.643  1.1606 -4.0377  1.3125
  135OSM   C11S14649   2.389   1.643   7.760 -0.1567  0.3479 -0.5254
  135OSM   H11S14650   2.358   1.562   7.828 -1.2777  2.1767  1.2399
  135OSM   H11T14651   2.354   1.737   7.806 -1.3168  0.5283 -1.7340
  135OSM   C12S14652   2.539   1.659   7.765 -0.3402  0.1613  0.0507
  135OSM   H12S14653   2.564   1.745   7.700 -0.4967 -1.2283 -1.9588
  135OSM   H12T14654   2.566   1.563   7.714 -1.0721  0.3470 -0.6951
  135OSM   C13S14655   2.582   1.690   7.910  0.7707  0.0845  0.0218
  135OSM   H13S14656   2.546   1.607   7.975  0.6969 -0.1760 -0.3448
  135OSM   H13T14657   2.526   1.781   7.941  0.5428  0.6661 -1.9463
  135OSM   C14S14658   2.726   1.722   7.919  0.1402  0.3555  0.2179
  135OSM   H14S14659   2.746   1.819   7.868 -2.0811 -0.9862 -3.6422
  135OSM   H14T14660   2.781   1.640   7.867  0.6073  0.3503  0.7091
  135OSM   C15S14661   2.785   1.727   8.056  0.0624 -0.3243  0.2023
  135OSM   H15S14662   2.706   1.766   8.125  1.6783  1.8461  0.9416
  135OSM   H15T14663   2.870   1.798   8.047 -0.3983  0.3008  0.6332
  135OSM   C16S14664   2.817   1.583   8.112 -0.9521  0.1766  0.0620
  135OSM   H16S14665   2.913   1.546   8.071  0.4587  2.4128  1.1862
  135OSM   H16T14666   2.741   1.511   8.074  0.0317  0.0956 -1.8445
  135OSM   C17S14667   2.811   1.568   8.264  0.6803  0.4419 -0.4377
  135OSM   H17S14668   2.711   1.604   8.296  0.8485 -0.1374  0.8277
  135OSM   H17T14669   2.878   1.647   8.304  1.5004 -0.6709  0.4624
  135OSM   C18S14670   2.856   1.427   8.313  0.1845 -0.6819 -0.4454
  135OSM   H18S14671   2.813   1.404   8.413  0.5520 -1.0130 -0.3627
  135OSM   H18T14672   2.966   1.418   8.325  0.2725 -0.9748 -1.4149
  135OSM   H18U14673   2.826   1.345   8.245 -1.5206 -0.0820 -0.4535
  135OSM    C1F14674   2.758   1.884   7.013 -0.7649 -0.3050  0.6445
  135OSM     OF14675   2.788   1.975   6.935 -0.3499 -0.2119  0.0414
  135OSM    C2F14676   2.833   1.856   7.137 -0.6486 -0.0033  0.2054
  135OSM    H2F14677   2.906   1.773   7.123  0.6569  1.5106 -3.2341
  135OSM    H2G14678   2.755   1.826   7.210 -0.6450  1.6778  0.9282
  135OSM    C3F14679   2.909   1.979   7.180 -0.0493  0.1751  0.3863
  135OSM    H3F14680   2.856   2.075   7.196  1.4125  0.8419  1.4288
  135OSM    H3G14681   2.983   1.998   7.100  1.5775  0.6226  1.9278
  135OSM    C4F14682   2.983   1.966   7.312  0.6189 -0.5287 -0.2816
  135OSM    H4F14683   3.020   2.062   7.353  1.1936  0.1546 -2.3085
  135OSM    H4G14684   3.073   1.902   7.300  0.6986 -0.1691 -1.7243
  135OSM    C5F14685   2.887   1.912   7.421 -0.2632 -0.2843  0.2397
  135OSM    H5F14686   2.832   1.819   7.396  0.8754 -1.1714  0.9414
  135OSM    H5G14687   2.819   1.998   7.440 -1.4363 -0.4526 -2.6925
  135OSM    C6F14688   2.962   1.895   7.554  0.3862 -0.3205  0.0626
  135OSM    H6F14689   3.039   1.815   7.545 -0.7432 -1.2094 -3.7043
  135OSM    H6G14690   2.892   1.873   7.637  0.7935  0.0107  0.4990
  135OSM    C7F14691   3.030   2.024   7.607  0.1553  0.5690 -0.4138
  135OSM    H7F14692   2.952   2.103   7.600 -1.7354 -1.2992 -1.4219
  135OSM    H7G14693   3.117   2.053   7.543 -0.4401  0.7968 -1.1331
  135OSM    C8F14694   3.087   1.990   7.750 -0.1645 -0.1861 -0.1234
  135OSM    H8F14695   3.173   1.926   7.721  0.4963  1.3695 -1.8324
  135OSM    H8G14696   3.014   1.926   7.803 -0.9040 -0.5305 -1.5159
  135OSM    C9F14697   3.125   2.113   7.825 -0.2396 -0.2620 -0.2126
  135OSM    H9F14698   3.220   2.155   7.789  0.2824 -0.3354  1.0371
  135OSM   C10F14699   3.056   2.164   7.932 -0.2748 -0.2152  0.3121
  135OSM   H10F14700   3.087   2.262   7.972 -2.3099  1.0385 -1.0249
  135OSM   C11F14701   2.919   2.121   7.978  0.1113  0.2806 -1.4041
  135OSM   H11F14702   2.916   2.017   8.017 -0.2274  0.4812 -0.8911
  135OSM   H11G14703   2.861   2.118   7.883 -0.8488  1.2539 -0.8617
  135OSM   C12F14704   2.849   2.203   8.094  0.4246  0.1559  0.0794
  135OSM   H12F14705   2.780   2.271   8.041  1.1998 -0.2848 -1.5549
  135OSM   H12G14706   2.927   2.258   8.151  0.3760 -2.6203  3.2069
  135OSM   C13F14707   2.762   2.114   8.188  0.1036  0.0708  0.0127
  135OSM   H13F14708   2.697   2.046   8.129  1.4346 -1.0831 -0.1771
  135OSM   H13G14709   2.691   2.171   8.252  0.0114 -0.0440  0.0136
  135OSM   C14F14710   2.846   2.044   8.289  0.0948 -0.2435 -0.4508
  135OSM   H14F14711   2.897   2.122   8.348 -1.0393  0.7938 -0.8013
  135OSM   H14G14712   2.924   1.979   8.243 -0.7013 -1.7711  0.2551
  135OSM   C15F14713   2.765   1.957   8.382 -0.4903  0.8113  0.3959
  135OSM   H15F14714   2.747   1.866   8.321 -1.7008  1.5417 -0.3831
  135OSM   H15G14715   2.661   1.986   8.404 -0.9410  0.0490 -0.6484
  135OSM   C16F14716   2.836   1.928   8.518  0.0235 -0.1821  0.3026
  135OSM   H16F14717   2.935   1.885   8.494  0.3886  0.9139 -0.2178
  135OSM   H16G14718   2.770   1.856   8.572 -1.1579  1.3585  0.9792
  135OSM   C17F14719   2.856   2.050   8.605  0.1601 -0.1208  0.1907
  135OSM   H17F14720   2.758   2.102   8.618  0.3081  0.5725 -1.2329
  135OSM   H17G14721   2.924   2.121   8.554  0.0785  0.2578  0.5949
  135OSM   C18F14722   2.923   2.023   8.743 -0.3886  0.3538  0.1205
  135OSM   H18F14723   3.000   1.944   8.728 -0.7610  0.1652 -0.8729
  135OSM   H18G14724   2.850   1.987   8.820  0.8879  0.3863  1.3859
  135OSM   H18H14725   2.971   2.114   8.784  1.5228 -1.4260  2.0802
  136OSM      N14726   1.799   2.714   6.169 -0.1681  0.0576 -0.0564
  136OSM    C1514727   1.774   2.790   6.044 -0.7871  0.1904 -0.1577
  136OSM   H15A14728   1.843   2.757   5.968  1.2510  0.4052  1.5044
  136OSM   H15B14729   1.790   2.897   6.056  0.7813 -0.0588  0.1205
  136OSM   H15C14730   1.674   2.766   6.013 -0.3920 -0.4787 -0.9538
  136OSM    C1414731   1.753   2.577   6.159 -0.3230  0.3601 -0.3977
  136OSM   H14A14732   1.721   2.553   6.058  1.4049 -0.3684 -0.8183
  136OSM   H14B14733   1.685   2.551   6.239  1.9416 -1.0677  1.1861
  136OSM   H14C14734   1.845   2.521   6.169  0.0583  1.2752  1.7475
  136OSM    C1314735   1.944   2.713   6.203  0.5984  0.2999  0.1528
  136OSM   H13A14736   1.970   2.817   6.218  1.8796  0.1486 -0.7866
  136OSM   H13B14737   2.008   2.674   6.125  1.2747 -2.5605  1.9943
  136OSM   H13C14738   1.971   2.654   6.289  1.8635 -1.1619 -1.1616
  136OSM    C1214739   1.730   2.789   6.289 -0.6258  0.7687  0.4290
  136OSM   H12A14740   1.776   2.746   6.376 -3.0041  1.3607  2.0770
  136OSM   H12B14741   1.626   2.762   6.289  0.0866 -2.3711  1.2173
  136OSM    C1114742   1.754   2.942   6.311  0.0301  0.1868 -0.4825
  136OSM   H11A14743   1.858   2.974   6.334  0.0873 -1.5055  2.1445
  136OSM   H11B14744   1.714   2.964   6.413  1.9189 -1.7751  0.7662
  136OSM      P14745   1.532   3.040   6.200  0.1441  0.2155  0.0495
  136OSM    O1314746   1.498   3.059   6.057 -0.6212 -0.1154 -0.0963
  136OSM    O1414747   1.465   2.926   6.269 -0.2936  0.1552 -0.5106
  136OSM    O1114748   1.499   3.171   6.285 -0.5262 -0.7300  1.0203
  136OSM    O1214749   1.688   3.015   6.214  0.2443 -0.3921 -0.0038
  136OSM    C1S14750   1.376   3.214   6.325 -0.3141  0.3525  0.1030
  136OSM    H1S14751   1.298   3.168   6.260 -1.0016  2.5230 -0.6739
  136OSM    H1T14752   1.358   3.323   6.323 -0.6125  0.2886 -0.7481
  136OSM     NF14753   1.222   3.253   6.513  0.0529  0.7294  0.1339
  136OSM    HNF14754   1.213   3.337   6.565 -0.7243  1.0411 -0.4797
  136OSM    C2S14755   1.357   3.206   6.475 -0.0878  0.3552 -0.1721
  136OSM    H2S14756   1.366   3.100   6.508 -1.1479  1.1319  3.0032
  136OSM    C3S14757   1.483   3.277   6.551  0.1072  0.4650  0.0489
  136OSM    H3S14758   1.470   3.384   6.528 -0.3215 -0.0460 -2.3636
  136OSM     O314759   1.617   3.243   6.500 -0.4253  0.4426  0.0017
  136OSM    HO314760   1.606   3.186   6.424  1.2932  1.2383 -0.9178
  136OSM    C4S14761   1.471   3.243   6.698 -0.5200  0.0898 -0.6405
  136OSM    H4S14762   1.399   3.314   6.741  2.0253  2.8218 -0.5661
  136OSM    C5S14763   1.538   3.151   6.771 -0.9563  0.0132  0.9482
  136OSM    H5S14764   1.583   3.070   6.713 -2.5821  0.7763 -1.5213
  136OSM    C6S14765   1.524   3.110   6.922 -0.4033  0.1740 -0.1330
  136OSM    H6S14766   1.624   3.135   6.963  0.5770 -2.7426 -0.4797
  136OSM    H6T14767   1.512   3.000   6.921  0.7662  0.0346 -0.1013
  136OSM    C7S14768   1.403   3.183   6.979  0.5129  0.4666  0.0755
  136OSM    H7S14769   1.319   3.152   6.914  1.9288 -0.4814 -1.3792
  136OSM    H7T14770   1.423   3.292   6.971  0.5258  0.5086  0.6420
  136OSM    C8S14771   1.384   3.125   7.127 -0.0040  0.1816  0.3426
  136OSM    H8S14772   1.373   3.015   7.119 -2.7411  0.4673 -1.3012
  136OSM    H8T14773   1.291   3.170   7.169 -0.0502  1.0880 -0.7009
  136OSM    C9S14774   1.508   3.153   7.217  0.5735  0.2094 -0.3898
  136OSM    H9S14775   1.506   3.262   7.240 -0.7539  0.6659 -2.4182
  136OSM    H9T14776   1.603   3.118   7.171 -0.5169 -2.1644 -0.9759
  136OSM   C10S14777   1.496   3.074   7.350  0.2207  0.3650  0.3001
  136OSM   H10S14778   1.526   2.968   7.339  2.0486  0.9569 -0.7598
  136OSM   H10T14779   1.387   3.068   7.373  0.2584  0.1444  0.4241
  136OSM   C11S14780   1.561   3.135   7.471  0.5665 -0.6008 -0.2549
  136OSM   H11S14781   1.510   3.232   7.487 -0.2166 -1.0984  0.4160
  136OSM   H11T14782   1.670   3.154   7.467  0.2234  1.4749 -0.4625
  136OSM   C12S14783   1.538   3.046   7.599 -0.5371  0.4504 -0.1008
  136OSM   H12S14784   1.625   2.977   7.595  0.6446  1.8365  0.7138
  136OSM   H12T14785   1.443   2.989   7.588  0.4185 -1.1370 -0.3391
  136OSM   C13S14786   1.543   3.124   7.728 -0.5088  0.2877  0.3523
  136OSM   H13S14787   1.465   3.203   7.737  2.7839  3.8412  0.0902
  136OSM   H13T14788   1.640   3.176   7.744 -0.8132  0.0855  3.7042
  136OSM   C14S14789   1.538   3.036   7.857 -0.2695  0.2037  0.9597
  136OSM   H14S14790   1.611   2.954   7.841  2.9741  3.0045  0.4124
  136OSM   H14T14791   1.433   3.001   7.871 -0.6898  1.3197  0.6993
  136OSM   C15S14792   1.586   3.101   7.984 -0.4069  0.4196  0.4773
  136OSM   H15S14793   1.519   3.184   8.014  0.5858  1.2983  0.3474
  136OSM   H15T14794   1.688   3.147   7.981 -0.6754  1.0770  1.1584
  136OSM   C16S14795   1.597   3.007   8.108  0.5974 -0.0349 -0.1220
  136OSM   H16S14796   1.676   2.932   8.082 -0.1403 -0.4718 -1.1668
  136OSM   H16T14797   1.501   2.953   8.122  1.0004 -0.2870  2.0995
  136OSM   C17S14798   1.647   3.063   8.237 -0.0886 -0.1567  0.1069
  136OSM   H17S14799   1.746   3.113   8.223 -0.7305  1.4372  0.9895
  136OSM   H17T14800   1.675   2.975   8.301 -0.1871 -0.4733 -0.2838
  136OSM   C18S14801   1.559   3.168   8.313 -0.5264  0.1731  0.0955
  136OSM   H18S14802   1.615   3.206   8.401 -1.4832  0.8003  0.4523
  136OSM   H18T14803   1.461   3.126   8.345 -0.4769  0.4597  0.6487
  136OSM   H18U14804   1.527   3.248   8.244 -2.3903 -0.2521  0.4223
  136OSM    C1F14805   1.110   3.176   6.488  0.4868 -0.1876  0.1042
  136OSM     OF14806   1.131   3.058   6.456 -0.5897 -0.4780 -0.1153
  136OSM    C2F14807   0.979   3.236   6.511 -0.2994 -0.5592  0.2033
  136OSM    H2F14808   0.903   3.158   6.489 -1.2362  0.0524  1.1365
  136OSM    H2G14809   0.959   3.331   6.456 -2.2896  0.6363  2.7816
  136OSM    C3F14810   0.958   3.282   6.661 -0.0255 -0.2237 -0.4269
  136OSM    H3F14811   1.026   3.368   6.677 -1.0530  0.0900  2.9720
  136OSM    H3G14812   1.004   3.204   6.725 -1.2787 -1.3479 -0.8309
  136OSM    C4F14813   0.816   3.313   6.681 -0.0279  0.3914  0.2980
  136OSM    H4F14814   0.759   3.223   6.712 -0.1751  0.5060  0.3660
  136OSM    H4G14815   0.767   3.343   6.586 -1.3962 -4.2430 -0.6887
  136OSM    C5F14816   0.791   3.412   6.790  0.0558 -0.3424 -0.4307
  136OSM    H5F14817   0.683   3.416   6.813  0.3750 -0.8038  1.2865
  136OSM    H5G14818   0.821   3.517   6.769  0.4020  0.2771  2.5902
  136OSM    C6F14819   0.860   3.373   6.917 -0.1984  0.3252  0.1586
  136OSM    H6F14820   0.969   3.369   6.900  0.0783  1.5061  1.5342
  136OSM    H6G14821   0.813   3.279   6.953  1.1368 -0.7626 -0.8492
  136OSM    C7F14822   0.841   3.467   7.033 -0.1522 -0.7731 -0.0934
  136OSM    H7F14823   0.743   3.491   7.079  1.4243  3.3997  1.5676
  136OSM    H7G14824   0.867   3.566   6.990  1.9412 -1.3639 -0.3010
  136OSM    C8F14825   0.940   3.433   7.150 -0.3771  0.5258 -0.8290
  136OSM    H8F14826   1.040   3.401   7.113  0.0171 -0.0090  0.6357
  136OSM    H8G14827   0.914   3.338   7.201  0.2563 -1.3121 -3.6545
  136OSM    C9F14828   0.950   3.537   7.258 -0.7292 -0.2202  0.9599
  136OSM    H9F14829   1.043   3.594   7.246  0.5507 -2.4933 -0.8718
  136OSM   C10F14830   0.867   3.562   7.356  0.7140 -0.5739 -1.0560
  136OSM   H10F14831   0.881   3.642   7.431  0.1302 -0.9651 -0.5179
  136OSM   C11F14832   0.742   3.487   7.390  0.6580  0.0451  0.2710
  136OSM   H11F14833   0.736   3.386   7.344 -2.2474  0.2145  0.0983
  136OSM   H11G14834   0.655   3.543   7.348 -1.7928 -3.0594  0.8335
  136OSM   C12F14835   0.734   3.451   7.543  0.0656 -0.3807 -0.4315
  136OSM   H12F14836   0.833   3.420   7.585  0.4333 -0.5262 -1.3731
  136OSM   H12G14837   0.665   3.364   7.552  1.0241 -0.9881  1.5434
  136OSM   C13F14838   0.688   3.564   7.633 -0.3773  0.1008 -0.1337
  136OSM   H13F14839   0.589   3.606   7.604 -0.7838 -1.9029 -1.8483
  136OSM   H13G14840   0.759   3.648   7.616  1.1623 -0.8410  1.3706
  136OSM   C14F14841   0.694   3.553   7.784  0.4501 -0.8662 -0.5072
  136OSM   H14F14842   0.793   3.505   7.802 -0.5182 -3.1399 -1.0092
  136OSM   H14G14843   0.616   3.487   7.826  0.8493 -0.8073  0.3602
  136OSM   C15F14844   0.674   3.680   7.867  0.4146 -0.2282 -0.2644
  136OSM   H15F14845   0.575   3.729   7.856  0.0243 -1.0015 -0.2088
  136OSM   H15G14846   0.750   3.754   7.834 -0.9710  1.7732  0.7871
  136OSM   C16F14847   0.689   3.649   8.022  0.2083 -0.1315 -0.2066
  136OSM   H16F14848   0.768   3.572   8.029  1.1211  0.8481  0.4564
  136OSM   H16G14849   0.592   3.602   8.049 -0.2006  0.0649 -1.2637
  136OSM   C17F14850   0.715   3.778   8.096 -0.2424 -0.1550 -0.3183
  136OSM   H17F14851   0.643   3.849   8.051 -0.4142  0.3306  0.6831
  136OSM   H17G14852   0.810   3.829   8.071 -0.1427 -0.5663 -0.7838
  136OSM   C18F14853   0.694   3.768   8.246  0.4534 -0.1920  0.1909
  136OSM   H18F14854   0.602   3.714   8.274  0.2324  0.9739  1.8355
  136OSM   H18G14855   0.700   3.869   8.292  1.5959  0.4379 -1.2509
  136OSM   H18H14856   0.776   3.709   8.292 -1.2765 -0.8279  2.6436
  137OSM      N14857   4.246   1.997   6.154  0.0068 -0.3650  0.7269
  137OSM    C1514858   4.230   2.130   6.219  0.5452 -0.1225  0.2577
  137OSM   H15A14859   4.327   2.177   6.231 -0.7446  3.4080 -1.6188
  137OSM   H15B14860   4.198   2.109   6.320 -0.9325  0.8606  0.0361
  137OSM   H15C14861   4.165   2.198   6.165  2.6863  0.5330 -1.6604
  137OSM    C1414862   4.105   1.943   6.135 -0.5118 -0.1054  0.1462
  137OSM   H14A14863   4.107   1.853   6.076 -0.9436  0.9339 -1.5194
  137OSM   H14B14864   4.048   2.011   6.074 -0.2510 -0.9162 -1.0591
  137OSM   H14C14865   4.063   1.917   6.231  1.5616  1.3868  1.5588
  137OSM    C1314866   4.314   2.004   6.015  0.7870  0.0515 -0.6336
  137OSM   H13A14867   4.407   2.057   6.026  0.6875  0.0389  0.3514
  137OSM   H13B14868   4.252   2.064   5.951 -0.2917  1.6913  1.7736
  137OSM   H13C14869   4.316   1.903   5.978 -0.1564 -1.3215  2.6915
  137OSM    C1214870   4.328   1.902   6.239  0.2549  0.3672  0.1663
  137OSM   H12A14871   4.433   1.927   6.230  0.5067 -0.2020  1.3282
  137OSM   H12B14872   4.306   1.804   6.198 -2.0347  2.2343 -3.6351
  137OSM    C1114873   4.284   1.881   6.390  0.5057  0.1349 -0.5806
  137OSM   H11A14874   4.283   1.981   6.438  1.6055 -0.8203  1.5762
  137OSM   H11B14875   4.359   1.823   6.448 -0.1359 -0.7383 -0.5909
  137OSM      P14876   4.126   1.675   6.408  0.1929 -0.0381 -0.2864
  137OSM    O1314877   3.987   1.655   6.440 -0.0106 -0.0611  0.1431
  137OSM    O1414878   4.191   1.605   6.297 -0.0591  0.1802  0.2756
  137OSM    O1114879   4.193   1.633   6.539  0.1072  0.6373 -0.5469
  137OSM    O1214880   4.155   1.826   6.399  0.5173  0.3397  0.5445
  137OSM    C1S14881   4.179   1.694   6.668  0.9989  0.5082 -0.4970
  137OSM    H1S14882   4.133   1.795   6.661 -1.6004 -0.4223  1.3159
  137OSM    H1T14883   4.279   1.707   6.715  0.1519  1.8784  1.0397
  137OSM     NF14884   4.056   1.684   6.882  0.0853  0.5886 -0.2302
  137OSM    HNF14885   4.103   1.646   6.961 -2.3968 -2.0383  0.1216
  137OSM    C2S14886   4.087   1.608   6.765  0.8808  0.4962  0.1129
  137OSM    H2S14887   3.986   1.592   6.722  0.4710 -2.3183  1.8377
  137OSM    C3S14888   4.142   1.465   6.785  0.1257  0.0037 -0.1204
  137OSM    H3S14889   4.240   1.486   6.834 -0.2309 -1.7956  1.5085
  137OSM     O314890   4.180   1.396   6.667  0.4522  0.6450  0.1598
  137OSM    HO314891   4.150   1.458   6.600  1.1588  2.0897  1.1276
  137OSM    C4S14892   4.057   1.376   6.859  0.2149 -0.2336  0.0530
  137OSM    H4S14893   3.951   1.367   6.831 -0.0718 -3.7109  1.7675
  137OSM    C5S14894   4.091   1.319   6.974 -0.0519  0.1071  0.1940
  137OSM    H5S14895   4.192   1.321   7.019 -0.7551 -0.7971  1.9158
  137OSM    C6S14896   3.997   1.227   7.051 -0.4048 -0.8545 -0.0272
  137OSM    H6S14897   3.935   1.174   6.976 -0.8755  0.6022 -0.7013
  137OSM    H6T14898   3.933   1.285   7.120  1.9364  0.7244  0.9313
  137OSM    C7S14899   4.060   1.137   7.152 -0.2883 -0.0553  0.1396
  137OSM    H7S14900   4.129   1.194   7.218 -0.7383  0.9473 -0.2303
  137OSM    H7T14901   4.125   1.066   7.098 -0.2720 -0.0174  0.1092
  137OSM    C8S14902   3.947   1.081   7.244 -0.9957  0.0623  0.9271
  137OSM    H8S14903   3.882   1.012   7.187 -0.1408  1.3030 -1.7138
  137OSM    H8T14904   3.877   1.162   7.274 -2.4002 -0.5357 -0.5622
  137OSM    C9S14905   4.013   1.016   7.366 -0.1843  0.1588 -0.0390
  137OSM    H9S14906   4.087   1.090   7.405 -0.8882  1.6817 -1.4527
  137OSM    H9T14907   4.066   0.923   7.338  0.5288 -0.0314  1.8130
  137OSM   C10S14908   3.914   0.965   7.472  0.2521  0.1701 -0.2878
  137OSM   H10S14909   3.862   0.872   7.444 -0.2951 -0.0714  1.4282
  137OSM   H10T14910   3.833   1.041   7.479 -0.2165 -0.1377 -2.0018
  137OSM   C11S14911   3.979   0.955   7.615  0.5921  0.4613  0.7622
  137OSM   H11S14912   4.031   1.052   7.628 -1.8532  2.0672 -0.6479
  137OSM   H11T14913   4.051   0.870   7.614 -0.3960 -0.4114 -0.5689
  137OSM   C12S14914   3.869   0.943   7.724 -0.0680 -0.8337  0.2444
  137OSM   H12S14915   3.825   0.841   7.725  0.0528 -0.8976 -0.3687
  137OSM   H12T14916   3.788   1.019   7.717  0.9149  0.0795 -2.9757
  137OSM   C13S14917   3.929   0.967   7.861  0.2224  0.0488 -0.2922
  137OSM   H13S14918   3.978   1.067   7.861 -1.7541  1.0674 -0.8843
  137OSM   H13T14919   4.005   0.889   7.883 -1.2437 -0.4217  3.9895
  137OSM   C14S14920   3.817   0.953   7.971 -0.4705  0.2767  0.1559
  137OSM   H14S14921   3.791   0.846   7.981 -1.7498  0.4020 -1.3503
  137OSM   H14T14922   3.728   1.003   7.927  1.0372 -0.0339 -3.6666
  137OSM   C15S14923   3.852   1.026   8.098 -0.4956  0.7191 -0.2380
  137OSM   H15S14924   3.770   1.023   8.173  0.6234  1.3999  1.0487
  137OSM   H15T14925   3.878   1.132   8.076  3.0299  0.0822  0.3492
  137OSM   C16S14926   3.980   0.974   8.166  0.0839 -0.8378 -0.3577
  137OSM   H16S14927   4.025   0.902   8.095 -0.3260 -0.8313 -0.6258
  137OSM   H16T14928   3.948   0.933   8.265 -0.9535  0.5248 -0.0883
  137OSM   C17S14929   4.083   1.087   8.192  0.5722 -0.1027  0.2285
  137OSM   H17S14930   4.093   1.141   8.095  1.3437  0.5043  0.6432
  137OSM   H17T14931   4.180   1.041   8.221 -0.0440 -0.6611  1.4640
  137OSM   C18S14932   4.034   1.197   8.289  0.2572  0.3558 -0.1027
  137OSM   H18S14933   4.007   1.159   8.390  2.2855 -0.0818  0.3129
  137OSM   H18T14934   3.949   1.251   8.241 -0.1968 -0.1079  0.1691
  137OSM   H18U14935   4.108   1.273   8.322  0.1325 -0.1380  1.3750
  137OSM    C1F14936   3.993   1.799   6.894 -0.3325  0.0192 -0.4982
  137OSM     OF14937   3.944   1.852   6.799  1.0283  0.1861 -0.0870
  137OSM    C2F14938   3.988   1.858   7.037 -0.1343 -0.0307  0.4130
  137OSM    H2F14939   4.089   1.897   7.062 -0.3641  0.3729  0.7331
  137OSM    H2G14940   3.968   1.776   7.110 -1.7370  0.1988  0.2851
  137OSM    C3F14941   3.867   1.952   7.086  0.1042 -0.3275  0.6128
  137OSM    H3F14942   3.777   1.890   7.063  1.7179 -1.1844 -4.9660
  137OSM    H3G14943   3.866   2.047   7.028 -1.0569  0.9028  2.5409
  137OSM    C4F14944   3.879   1.984   7.236  0.2054 -0.5483  0.1546
  137OSM    H4F14945   3.885   1.889   7.293  0.5202 -0.5862  0.0616
  137OSM    H4G14946   3.788   2.034   7.274 -0.7141 -2.0718  0.0260
  137OSM    C5F14947   3.995   2.078   7.274 -0.0238  0.3509  0.3211
  137OSM    H5F14948   4.008   2.164   7.204 -2.8547  1.0468  0.5460
  137OSM    H5G14949   4.088   2.017   7.267  0.1750  0.7483 -0.7383
  137OSM    C6F14950   3.989   2.143   7.414 -0.6191 -0.4265 -0.3922
  137OSM    H6F14951   3.890   2.194   7.415 -0.9106 -0.4257 -5.0170
  137OSM    H6G14952   4.073   2.215   7.425 -1.7296  1.3399 -2.4895
  137OSM    C7F14953   3.992   2.038   7.527 -0.3670 -0.2974  0.3015
  137OSM    H7F14954   4.081   1.977   7.499 -0.9235 -0.6623 -0.7007
  137OSM    H7G14955   3.904   1.970   7.531  0.5094 -1.6268 -1.4763
  137OSM    C8F14956   4.030   2.103   7.661  0.2741 -0.4309 -0.7201
  137OSM    H8F14957   3.952   2.181   7.673  1.7291  0.9239  0.5203
  137OSM    H8G14958   4.127   2.159   7.662  1.2891 -2.0518 -2.4883
  137OSM    C9F14959   4.012   1.990   7.762 -0.3286  0.4966  0.0710
  137OSM    H9F14960   3.937   1.914   7.739  2.7038 -2.0218 -2.4484
  137OSM   C10F14961   4.082   1.977   7.880  0.5919 -0.1432 -0.0376
  137OSM   H10F14962   4.060   1.887   7.939 -2.0468  1.0975  1.0250
  137OSM   C11F14963   4.178   2.077   7.943 -0.1421  0.5094  0.2623
  137OSM   H11F14964   4.215   2.133   7.854 -1.8381 -1.7162 -2.0060
  137OSM   H11G14965   4.257   2.007   7.979 -0.5660 -0.6123 -0.8913
  137OSM   C12F14966   4.136   2.170   8.057 -0.5601 -0.1559  0.1504
  137OSM   H12F14967   4.116   2.096   8.137  1.1002 -0.0052  0.7288
  137OSM   H12G14968   4.041   2.223   8.032 -0.3220  1.4645  2.3986
  137OSM   C13F14969   4.245   2.277   8.092 -1.2950  0.5810 -0.2959
  137OSM   H13F14970   4.255   2.351   8.010 -1.8000  0.1335 -0.7703
  137OSM   H13G14971   4.344   2.225   8.100 -2.4500 -1.6148  0.6479
  137OSM   C14F14972   4.223   2.360   8.219 -0.0361  0.4056  0.6339
  137OSM   H14F14973   4.199   2.298   8.308 -1.6183 -2.3394 -1.5625
  137OSM   H14G14974   4.129   2.416   8.200 -0.7459 -1.0456 -0.2333
  137OSM   C15F14975   4.350   2.442   8.253  0.2628 -0.0618 -0.0205
  137OSM   H15F14976   4.393   2.486   8.160  0.0132 -1.4063 -0.7927
  137OSM   H15G14977   4.423   2.372   8.300 -1.7451 -1.4920  1.1140
  137OSM   C16F14978   4.318   2.555   8.359 -0.2425 -0.4007 -0.2507
  137OSM   H16F14979   4.274   2.510   8.451 -1.7738  1.0607 -0.2095
  137OSM   H16G14980   4.239   2.623   8.320  1.3325  0.4150 -2.1570
  137OSM   C17F14981   4.434   2.645   8.401  0.1514 -0.6323  0.2629
  137OSM   H17F14982   4.518   2.588   8.448  0.0490 -0.0902  1.1251
  137OSM   H17G14983   4.406   2.716   8.481  2.0470  1.7404 -1.0532
  137OSM   C18F14984   4.486   2.745   8.298 -0.3995  0.0467 -0.2523
  137OSM   H18F14985   4.550   2.825   8.339  1.1412 -1.6085  0.7179
  137OSM   H18G14986   4.401   2.796   8.248  1.1827  1.9895 -1.1087
  137OSM   H18H14987   4.545   2.690   8.221  0.5662  0.6541  0.0332
  138OSM      N14988   4.996   5.573   5.865  0.3987 -0.0524  0.4593
  138OSM    C1514989   5.033   5.436   5.872  0.3173  1.0707  0.2711
  138OSM   H15A14990   5.091   5.395   5.790 -0.4112 -0.4904  0.5035
  138OSM   H15B14991   4.951   5.371   5.895  1.3491  0.3886  2.2959
  138OSM   H15C14992   5.102   5.412   5.952  0.4252 -0.0517 -0.1343
  138OSM    C1414993   5.121   5.651   5.855  0.5666 -0.6505 -0.5700
  138OSM   H14A14994   5.162   5.633   5.757 -0.0869 -1.4996 -0.6935
  138OSM   H14B14995   5.198   5.622   5.925 -0.0149 -2.3494 -0.5945
  138OSM   H14C14996   5.101   5.753   5.885 -0.5027 -1.1207  0.4437
  138OSM    C1314997   4.907   5.604   5.752  0.1751  0.3409 -0.2997
  138OSM   H13A14998   4.810   5.558   5.765  0.2666 -0.4119 -2.0803
  138OSM   H13B14999   4.941   5.561   5.659  0.9569 -1.4433  0.7595
  138OSM   H13C15000   4.889   5.710   5.743  0.1785  0.4348  0.6652
  138OSM    C1215001   4.929   5.619   5.997  0.3462 -0.2447  0.3992
  138OSM   H12A15002   4.898   5.720   5.976 -0.4483 -0.1693  1.8345
  138OSM   H12B15003   5.002   5.615   6.076  0.9497  1.7993 -0.0064
  138OSM    C1115004   4.800   5.545   6.043 -0.0156  0.6028  0.5122
  138OSM   H11A15005   4.786   5.572   6.150 -1.6745  3.0055 -0.1981
  138OSM   H11B15006   4.824   5.438   6.056 -0.9987  0.5009  1.6322
  138OSM      P15007   4.604   5.706   6.003  0.0251  0.3724  0.0422
  138OSM    O1315008   4.689   5.826   5.987 -0.3991  0.5992  0.1525
  138OSM    O1415009   4.479   5.708   5.933  0.2647 -0.2212  0.2932
  138OSM    O1115010   4.579   5.688   6.154  0.2348  0.2565  0.1389
  138OSM    O1215011   4.690   5.573   5.961 -0.0679  0.2210  0.1983
  138OSM    C1S15012   4.515   5.581   6.216 -0.5737  0.0644 -0.0614
  138OSM    H1S15013   4.567   5.489   6.182  1.6927  1.0927  0.4443
  138OSM    H1T15014   4.410   5.565   6.183 -1.4468  2.2629  1.4142
  138OSM     NF15015   4.488   5.489   6.446 -0.2487 -0.0248  0.9295
  138OSM    HNF15016   4.400   5.500   6.490  0.0958  1.0875  1.3804
  138OSM    C2S15017   4.529   5.607   6.369 -0.0655 -0.3054 -0.6352
  138OSM    H2S15018   4.638   5.622   6.388  0.1024 -0.6304 -1.3221
  138OSM    C3S15019   4.460   5.742   6.415 -0.1593 -0.0671  0.3255
  138OSM    H3S15020   4.354   5.740   6.380 -0.7745  0.0909  2.0451
  138OSM     O315021   4.523   5.861   6.360  0.1877 -0.1731 -0.0001
  138OSM    HO315022   4.582   5.824   6.294 -0.3332 -0.2830 -0.4208
  138OSM    C4S15023   4.455   5.750   6.564  0.3756 -0.1965 -0.5564
  138OSM    H4S15024   4.363   5.712   6.611  0.5149 -0.6312 -0.6295
  138OSM    C5S15025   4.558   5.784   6.644  0.2943  0.2191  0.0043
  138OSM    H5S15026   4.655   5.806   6.597  1.1897 -1.8142  0.7986
  138OSM    C6S15027   4.555   5.779   6.795 -0.1926  0.9798 -0.1536
  138OSM    H6S15028   4.556   5.885   6.826  2.6098  0.9716  0.0565
  138OSM    H6T15029   4.648   5.734   6.836 -0.8886  1.1223  1.6738
  138OSM    C7S15030   4.432   5.713   6.862  0.5551  0.7548 -0.1356
  138OSM    H7S15031   4.431   5.607   6.830 -1.2652  0.5808  0.4462
  138OSM    H7T15032   4.342   5.760   6.817  0.2827  1.9497  1.5653
  138OSM    C8S15033   4.431   5.732   7.011 -0.5521  0.4502 -0.7279
  138OSM    H8S15034   4.421   5.840   7.037 -1.2127 -0.0054  1.0447
  138OSM    H8T15035   4.535   5.702   7.036 -0.6356 -0.1661 -1.0967
  138OSM    C9S15036   4.326   5.661   7.093  0.3425 -0.8416 -0.0190
  138OSM    H9S15037   4.312   5.552   7.071 -2.1830 -1.0907  2.3177
  138OSM    H9T15038   4.228   5.705   7.063  0.0281 -0.2196  1.7854
  138OSM   C10S15039   4.351   5.655   7.249 -0.4887 -0.4241  0.4891
  138OSM   H10S15040   4.431   5.581   7.269 -1.1986 -1.5113 -0.5567
  138OSM   H10T15041   4.254   5.620   7.291 -0.4817 -1.8097 -0.5576
  138OSM   C11S15042   4.389   5.797   7.306 -0.8841  0.1249  0.5684
  138OSM   H11S15043   4.353   5.882   7.244  2.4551  1.3423  0.0697
  138OSM   H11T15044   4.498   5.805   7.286 -1.4319  0.4034 -2.9414
  138OSM   C12S15045   4.361   5.809   7.454 -0.5730 -0.3646  0.5563
  138OSM   H12S15046   4.253   5.795   7.476 -1.3264  0.5866 -2.0915
  138OSM   H12T15047   4.385   5.914   7.482  1.0352 -1.3275  3.1040
  138OSM   C13S15048   4.458   5.734   7.550 -0.3165 -0.7527  0.0440
  138OSM   H13S15049   4.562   5.762   7.525 -0.3884 -0.0784  0.4706
  138OSM   H13T15050   4.446   5.626   7.527  0.1673 -0.8453  0.2388
  138OSM   C14S15051   4.413   5.764   7.693  0.4078 -0.0948  0.0244
  138OSM   H14S15052   4.307   5.734   7.711  0.8020 -4.0512 -2.8579
  138OSM   H14T15053   4.435   5.869   7.723  0.3831 -0.6156  1.9522
  138OSM   C15S15054   4.502   5.671   7.787 -0.5787  0.2540 -0.2585
  138OSM   H15S15055   4.603   5.662   7.743 -0.3730 -1.0144  0.4335
  138OSM   H15T15056   4.462   5.567   7.784 -1.3216  0.4085  2.1382
  138OSM   C16S15057   4.505   5.710   7.938  0.2086 -0.0652 -0.1487
  138OSM   H16S15058   4.402   5.736   7.970  0.1806  0.5491 -0.7087
  138OSM   H16T15059   4.566   5.803   7.942  0.9106 -0.4774 -0.9435
  138OSM   C17S15060   4.561   5.606   8.040  0.3631  0.3528  0.0273
  138OSM   H17S15061   4.590   5.654   8.136  0.4267 -0.4968  0.4510
  138OSM   H17T15062   4.658   5.575   7.995  0.2943 -0.1199  0.1918
  138OSM   C18S15063   4.466   5.487   8.074 -0.3940 -0.0836 -0.2780
  138OSM   H18S15064   4.516   5.429   8.154 -0.1341  0.4942 -0.0189
  138OSM   H18T15065   4.442   5.425   7.985 -0.0913 -1.4887  0.5822
  138OSM   H18U15066   4.370   5.530   8.111 -0.7997  0.3280 -1.7115
  138OSM    C1F15067   4.540   5.369   6.416  0.3243  0.5328  0.2584
  138OSM     OF15068   4.657   5.369   6.374 -0.1463  0.4967  0.4378
  138OSM    C2F15069   4.458   5.251   6.441 -0.7288  0.3812  0.1796
  138OSM    H2F15070   4.438   5.212   6.339  3.1631 -1.6152 -0.0222
  138OSM    H2G15071   4.369   5.279   6.502  0.7522  0.1073  2.6158
  138OSM    C3F15072   4.539   5.135   6.498 -0.0592 -0.5331 -0.1922
  138OSM    H3F15073   4.613   5.111   6.419 -0.3718  0.2063 -0.7162
  138OSM    H3G15074   4.470   5.048   6.506 -0.2499 -0.3250  0.5341
  138OSM    C4F15075   4.628   5.159   6.628 -0.1092  0.6540 -0.3490
  138OSM    H4F15076   4.711   5.230   6.607  1.5764 -1.6218 -1.8773
  138OSM    H4G15077   4.665   5.059   6.658 -0.6081  1.0887  1.9422
  138OSM    C5F15078   4.542   5.214   6.746  0.1503  0.1257  0.6262
  138OSM    H5F15079   4.502   5.311   6.711 -1.7311 -1.4221 -1.7407
  138OSM    H5G15080   4.614   5.238   6.828 -0.2935 -0.2847  1.1472
  138OSM    C6F15081   4.412   5.142   6.781 -0.2993 -0.0043 -0.4816
  138OSM    H6F15082   4.439   5.044   6.827 -0.3120  1.0129  1.8635
  138OSM    H6G15083   4.355   5.126   6.687 -0.1649  1.4792 -0.8449
  138OSM    C7F15084   4.327   5.217   6.883 -0.3021  0.5484  0.8306
  138OSM    H7F15085   4.238   5.152   6.892 -0.9397  0.7867 -2.3896
  138OSM    H7G15086   4.286   5.313   6.844 -0.2649  0.6383  1.0132
  138OSM    C8F15087   4.381   5.239   7.026 -0.4000  0.0525  0.0806
  138OSM    H8F15088   4.319   5.319   7.072  2.1807  0.7804  2.5519
  138OSM    H8G15089   4.480   5.290   7.024 -0.0917 -0.5060  0.9484
  138OSM    C9F15090   4.393   5.126   7.133 -0.0401  0.1802  0.4782
  138OSM    H9F15091   4.424   5.033   7.084  1.9658  0.4962  1.0475
  138OSM   C10F15092   4.389   5.141   7.269 -0.7455 -0.2548  0.6467
  138OSM   H10F15093   4.403   5.048   7.327  0.8069 -1.3874 -1.3989
  138OSM   C11F15094   4.361   5.272   7.334  0.2273 -0.0262  0.8083
  138OSM   H11F15095   4.257   5.280   7.372  0.3044 -1.4920  1.3668
  138OSM   H11G15096   4.358   5.346   7.251  0.2298 -0.8053  0.0998
  138OSM   C12F15097   4.455   5.315   7.445 -0.1434 -0.2198  0.9831
  138OSM   H12F15098   4.429   5.416   7.483 -1.3865 -0.5463  1.0469
  138OSM   H12G15099   4.558   5.331   7.407 -1.0460  0.7952 -1.2234
  138OSM   C13F15100   4.471   5.215   7.560  0.2869 -0.2087 -0.7161
  138OSM   H13F15101   4.507   5.119   7.518  1.5091  0.4011 -1.1006
  138OSM   H13G15102   4.375   5.204   7.615 -0.0017 -0.4611 -1.2708
  138OSM   C14F15103   4.570   5.256   7.675 -0.6585 -0.0625 -0.5057
  138OSM   H14F15104   4.575   5.365   7.697  0.0893 -0.1263 -0.3318
  138OSM   H14G15105   4.666   5.233   7.623 -1.4125  0.5282 -2.2266
  138OSM   C15F15106   4.557   5.166   7.805 -0.7304 -0.6476 -0.7504
  138OSM   H15F15107   4.568   5.060   7.776 -2.2896 -0.3848 -2.5752
  138OSM   H15G15108   4.455   5.181   7.847 -0.6038 -1.2680 -0.2207
  138OSM   C16F15109   4.661   5.210   7.918 -0.2386 -0.2143  0.4344
  138OSM   H16F15110   4.624   5.310   7.949  4.0182  2.3149 -1.6449
  138OSM   H16G15111   4.758   5.224   7.865  1.1781  0.4750  3.0184
  138OSM   C17F15112   4.668   5.118   8.038  0.3194 -0.6827 -0.3951
  138OSM   H17F15113   4.704   5.023   7.994  0.7285 -0.9906  0.5956
  138OSM   H17G15114   4.569   5.100   8.085  0.0555 -2.2982 -1.4807
  138OSM   C18F15115   4.766   5.175   8.142 -0.1894  0.1392  0.2263
  138OSM   H18F15116   4.793   5.107   8.225  4.1290  2.9721  1.4917
  138OSM   H18G15117   4.733   5.270   8.189  0.5084  0.7727 -0.5251
  138OSM   H18H15118   4.860   5.191   8.084  1.2349 -2.3882  1.6904
  139OSM      N15119   3.613   6.357   6.245  0.2197 -0.2538  0.0379
  139OSM    C1515120   3.632   6.248   6.147  0.6467 -0.5952  0.1802
  139OSM   H15A15121   3.558   6.247   6.069  0.1286 -1.5778  0.6617
  139OSM   H15B15122   3.605   6.160   6.203 -2.4682  0.3800  0.3685
  139OSM   H15C15123   3.726   6.252   6.094 -1.3338  1.5123 -3.6155
  139OSM    C1415124   3.719   6.356   6.353 -0.3839 -0.0437 -0.0492
  139OSM   H14A15125   3.813   6.385   6.307 -0.4603  1.0943  0.4903
  139OSM   H14B15126   3.735   6.257   6.395  0.5237  1.2616  2.9455
  139OSM   H14C15127   3.692   6.418   6.437 -1.6315 -1.4195  0.6121
  139OSM    C1315128   3.630   6.488   6.171  0.5418  0.1503  0.3391
  139OSM   H13A15129   3.722   6.490   6.114  0.1430 -0.6166 -0.3400
  139OSM   H13B15130   3.635   6.572   6.239 -2.1495 -0.6975  1.7155
  139OSM   H13C15131   3.540   6.509   6.115 -0.0412 -0.3303  1.0790
  139OSM    C1215132   3.474   6.359   6.308 -0.0298 -0.1856  0.2626
  139OSM   H12A15133   3.402   6.377   6.229  0.0749 -0.8620  0.0001
  139OSM   H12B15134   3.463   6.440   6.378 -1.0677 -0.0240 -0.0569
  139OSM    C1115135   3.419   6.238   6.381  0.1750 -0.1530  0.5076
  139OSM   H11A15136   3.331   6.270   6.440 -2.2856 -1.7041 -2.0656
  139OSM   H11B15137   3.499   6.207   6.452  0.6920  0.6130  0.2681
  139OSM      P15138   3.236   6.142   6.226 -0.6590 -0.5335  0.4655
  139OSM    O1315139   3.212   6.280   6.178 -0.1315  0.3353 -0.2932
  139OSM    O1415140   3.226   6.038   6.124  0.5194  0.3601  0.0250
  139OSM    O1115141   3.141   6.112   6.346 -0.3418  0.4928 -0.4659
  139OSM    O1215142   3.387   6.136   6.290  0.6684  0.1304 -0.0040
  139OSM    C1S15143   3.161   5.986   6.415  0.4363 -0.7195 -0.1093
  139OSM    H1S15144   3.252   5.928   6.391 -0.3588 -1.6930 -0.8958
  139OSM    H1T15145   3.072   5.921   6.397 -1.6072  1.7413  0.3948
  139OSM     NF15146   3.163   5.860   6.628 -0.2636  0.4610 -0.0252
  139OSM    HNF15147   3.078   5.812   6.651  0.5334 -2.4778 -2.4862
  139OSM    C2S15148   3.155   5.997   6.577  0.0374  0.1469  0.4433
  139OSM    H2S15149   3.244   6.058   6.602  1.3201 -0.4271 -2.3091
  139OSM    C3S15150   3.021   6.061   6.613  0.0352 -0.3506  0.9207
  139OSM    H3S15151   2.930   6.000   6.595  0.6922 -1.3417  0.8577
  139OSM     O315152   3.000   6.190   6.554  0.9019  0.0115  0.1130
  139OSM    HO315153   3.062   6.187   6.481  0.4265 -2.0126 -0.2577
  139OSM    C4S15154   3.010   6.071   6.760 -0.9532  0.6524 -0.0287
  139OSM    H4S15155   2.986   5.974   6.804  0.2084 -0.1471 -1.0875
  139OSM    C5S15156   3.024   6.179   6.839 -0.2595  0.0133  0.0552
  139OSM    H5S15157   3.046   6.275   6.791 -0.5550 -1.3831 -3.1228
  139OSM    C6S15158   3.014   6.172   6.989 -0.2481 -0.1479  0.0430
  139OSM    H6S15159   2.926   6.231   7.022  0.1863  1.3558 -1.3484
  139OSM    H6T15160   3.099   6.229   7.031 -1.4498  2.7378 -1.1356
  139OSM    C7S15161   3.018   6.026   7.043 -0.0220  0.6592 -0.3169
  139OSM    H7S15162   3.103   5.963   7.010 -1.0326 -0.0070 -1.7102
  139OSM    H7T15163   2.933   5.971   6.998 -2.0980  3.2879  0.1563
  139OSM    C8S15164   3.023   6.011   7.197  0.8536 -0.5071 -0.2028
  139OSM    H8S15165   2.991   5.910   7.231 -3.3397  1.0112  1.0202
  139OSM    H8T15166   2.940   6.076   7.232 -1.6255 -3.9497  0.7923
  139OSM    C9S15167   3.162   6.045   7.254 -0.3471  0.2100  0.6012
  139OSM    H9S15168   3.198   6.145   7.221  2.4655 -0.5837  0.9566
  139OSM    H9T15169   3.239   5.975   7.213 -0.6706 -0.1391  0.5840
  139OSM   C10S15170   3.156   6.038   7.411  0.1212 -0.7269  0.3768
  139OSM   H10S15171   3.050   6.059   7.436  0.0778  0.3724 -0.6177
  139OSM   H10T15172   3.228   6.117   7.442  0.0979 -0.8975  0.8745
  139OSM   C11S15173   3.208   5.907   7.461 -0.0887  0.2609 -0.0204
  139OSM   H11S15174   3.306   5.879   7.417  0.0832 -0.7721  0.9964
  139OSM   H11T15175   3.131   5.831   7.432 -1.6273  0.8142  2.3600
  139OSM   C12S15176   3.204   5.909   7.612 -0.3316  0.0840 -0.0770
  139OSM   H12S15177   3.261   5.993   7.655  1.9965 -1.5782  0.2987
  139OSM   H12T15178   3.257   5.816   7.641 -0.9410 -0.6353 -1.1911
  139OSM   C13S15179   3.060   5.900   7.656 -0.7662 -0.0537  0.6150
  139OSM   H13S15180   3.013   5.815   7.603  0.5371  1.0427 -2.5464
  139OSM   H13T15181   2.999   5.992   7.642  1.5558  1.5943  0.6991
  139OSM   C14S15182   3.052   5.869   7.804 -0.7247  0.3774 -0.3844
  139OSM   H14S15183   3.109   5.943   7.864 -0.7673  0.9288 -1.0193
  139OSM   H14T15184   3.095   5.768   7.820  0.5173  1.3139  3.2852
  139OSM   C15S15185   2.916   5.864   7.856  0.3589  0.5892 -0.0723
  139OSM   H15S15186   2.850   5.807   7.786  2.0460 -1.3012 -0.2232
  139OSM   H15T15187   2.869   5.964   7.868 -0.4380  0.3189 -0.8202
  139OSM   C16S15188   2.923   5.781   7.986 -0.3023  0.1117 -0.1874
  139OSM   H16S15189   2.994   5.843   8.044 -0.3838  0.9472 -0.9476
  139OSM   H16T15190   2.953   5.676   7.964 -0.2974  0.3323 -1.3002
  139OSM   C17S15191   2.789   5.773   8.065  0.4933 -0.1126 -0.1699
  139OSM   H17S15192   2.727   5.715   7.994  0.9386  0.4196 -1.0129
  139OSM   H17T15193   2.742   5.873   8.077  2.0659  0.8842 -1.8158
  139OSM   C18S15194   2.806   5.713   8.204  0.6699  0.0277  0.7041
  139OSM   H18S15195   2.706   5.677   8.238 -0.4736  1.9549 -0.4500
  139OSM   H18T15196   2.844   5.784   8.281 -0.5806 -0.6559  1.9997
  139OSM   H18U15197   2.880   5.630   8.206  0.1203 -0.5239 -0.7813
  139OSM    C1F15198   3.269   5.773   6.632  0.0908 -0.5020 -0.4009
  139OSM     OF15199   3.373   5.799   6.575 -0.4692  0.0177  0.0179
  139OSM    C2F15200   3.252   5.645   6.705 -0.2044  0.4951  0.5278
  139OSM    H2F15201   3.144   5.621   6.697 -0.7122  2.8653 -0.6055
  139OSM    H2G15202   3.288   5.646   6.811 -0.4240 -0.5024  0.6237
  139OSM    C3F15203   3.328   5.526   6.640 -0.3680  1.0859 -0.5058
  139OSM    H3F15204   3.437   5.545   6.649  0.1603 -1.2034 -1.3304
  139OSM    H3G15205   3.296   5.511   6.534  0.4316  0.4851 -0.6671
  139OSM    C4F15206   3.295   5.386   6.708 -0.2604 -0.6743  0.8029
  139OSM    H4F15207   3.325   5.306   6.637 -1.2857 -0.1849 -0.2160
  139OSM    H4G15208   3.186   5.370   6.724 -0.4078 -0.9523 -0.3787
  139OSM    C5F15209   3.373   5.353   6.836 -0.0623  0.2008 -0.1242
  139OSM    H5F15210   3.362   5.443   6.899 -0.3552  0.1055 -0.0397
  139OSM    H5G15211   3.476   5.328   6.801 -0.8988 -3.0996 -0.6347
  139OSM    C6F15212   3.313   5.230   6.907  0.0426 -0.0323 -0.0051
  139OSM    H6F15213   3.318   5.142   6.840  0.6961  0.5002 -0.6867
  139OSM    H6G15214   3.206   5.253   6.922  0.1666  0.2017  0.5381
  139OSM    C7F15215   3.384   5.193   7.037 -0.8482 -0.2444 -0.4371
  139OSM    H7F15216   3.383   5.275   7.112 -1.5393 -1.5283  1.0272
  139OSM    H7G15217   3.488   5.166   7.008  0.4714  1.2876  2.4507
  139OSM    C8F15218   3.325   5.086   7.130  0.4008 -0.2850  0.1671
  139OSM    H8F15219   3.403   5.048   7.200  0.0244 -1.3489  0.0368
  139OSM    H8G15220   3.302   4.999   7.065 -2.3030  1.0012 -0.7292
  139OSM    C9F15221   3.201   5.143   7.197  1.0820  0.5797 -0.0922
  139OSM    H9F15222   3.137   5.199   7.128  2.5354  0.0351 -1.9521
  139OSM   C10F15223   3.177   5.137   7.330  0.1217  0.1489 -0.0432
  139OSM   H10F15224   3.083   5.180   7.368  1.4961  1.8414  1.6465
  139OSM   C11F15225   3.263   5.074   7.436 -0.5301  0.7730  0.0519
  139OSM   H11F15226   3.318   5.142   7.504  1.3816 -2.1422  1.6409
  139OSM   H11G15227   3.345   5.015   7.389 -0.7770 -0.2488  0.8718
  139OSM   C12F15228   3.179   4.978   7.515  0.1805  0.6734  0.3131
  139OSM   H12F15229   3.111   4.919   7.450  0.8918 -0.8697  0.9329
  139OSM   H12G15230   3.125   5.038   7.591 -0.8113  0.9823 -0.6088
  139OSM   C13F15231   3.274   4.878   7.591 -0.0493 -0.4598 -0.4183
  139OSM   H13F15232   3.355   4.940   7.636 -0.9437  1.0158 -0.7675
  139OSM   H13G15233   3.331   4.811   7.525  0.1033 -1.1277  0.3800
  139OSM   C14F15234   3.188   4.790   7.686 -0.8006  0.7369 -0.5802
  139OSM   H14F15235   3.111   4.730   7.633 -1.4195 -0.2472  1.3464
  139OSM   H14G15236   3.140   4.847   7.768 -0.9009 -1.9063  1.3161
  139OSM   C15F15237   3.279   4.688   7.762 -0.3309  0.0931  1.0338
  139OSM   H15F15238   3.215   4.658   7.848 -1.3362 -1.7367 -0.2996
  139OSM   H15G15239   3.370   4.737   7.803  0.4763  0.3198 -0.9234
  139OSM   C16F15240   3.307   4.562   7.686  0.0010  0.6305  0.5536
  139OSM   H16F15241   3.332   4.588   7.581 -2.3891  0.0034 -0.2435
  139OSM   H16G15242   3.213   4.505   7.673 -0.3342  1.2585  0.1721
  139OSM   C17F15243   3.421   4.473   7.751 -0.0991  0.4032  0.1674
  139OSM   H17F15244   3.407   4.483   7.861 -0.6591  0.6990  0.0756
  139OSM   H17G15245   3.519   4.518   7.724 -0.7001  1.2565 -0.6397
  139OSM   C18F15246   3.416   4.327   7.725  0.2379  0.7445 -0.7818
  139OSM   H18F15247   3.317   4.285   7.755  1.3718 -0.1649  2.0117
  139OSM   H18G15248   3.499   4.282   7.783  3.6850  4.9783 -1.9052
  139OSM   H18H15249   3.436   4.304   7.618 -1.8508  1.6064 -1.4090
  140OSM      N15250   4.229   1.189   6.291  0.3895  0.3180 -0.2735
  140OSM    C1515251   4.165   1.307   6.354  0.3610  0.4902  0.6518
  140OSM   H15A15252   4.211   1.319   6.451  1.8677 -3.0730  0.5231
  140OSM   H15B15253   4.058   1.297   6.347  0.3447  0.1497  1.2902
  140OSM   H15C15254   4.185   1.397   6.298 -0.9034  0.8424  0.7430
  140OSM    C1415255   4.163   1.170   6.154 -0.0729  0.0203 -0.2657
  140OSM   H14A15256   4.063   1.135   6.175  0.2409 -0.4939  0.4320
  140OSM   H14B15257   4.217   1.100   6.092 -0.2802 -1.9285  1.6399
  140OSM   H14C15258   4.157   1.259   6.094 -0.3324 -0.0579 -0.3554
  140OSM    C1315259   4.373   1.219   6.258 -0.1476 -0.2201  0.1565
  140OSM   H13A15260   4.410   1.138   6.196 -2.1126 -0.1132 -1.2353
  140OSM   H13B15261   4.432   1.236   6.348 -2.6842 -0.4800  1.9690
  140OSM   H13C15262   4.368   1.309   6.199 -0.9874 -0.5502 -0.2868
  140OSM    C1215263   4.218   1.064   6.371  0.1066  0.3055  0.7990
  140OSM   H12A15264   4.253   0.983   6.310 -2.0507 -0.0615 -0.0169
  140OSM   H12B15265   4.116   1.030   6.375  0.3429 -1.0198 -2.2883
  140OSM    C1115266   4.292   1.056   6.506  1.0257  0.1576  0.5313
  140OSM   H11A15267   4.254   0.967   6.561 -3.6434  0.7887 -1.1962
  140OSM   H11B15268   4.257   1.144   6.563  0.7651  0.8385 -0.6368
  140OSM      P15269   4.518   0.937   6.446 -0.0886 -0.3753 -0.3514
  140OSM    O1315270   4.438   0.837   6.375 -0.2400 -1.1776  0.3426
  140OSM    O1415271   4.648   0.985   6.386  1.1340  0.2764  0.1053
  140OSM    O1115272   4.549   0.883   6.597 -0.5000  0.2088  0.0810
  140OSM    O1215273   4.434   1.066   6.487  0.2926  0.4577  0.0218
  140OSM    C1S15274   4.543   0.976   6.706 -0.3175 -0.6927 -0.1345
  140OSM    H1S15275   4.439   1.015   6.721 -0.5239 -1.0777 -0.5680
  140OSM    H1T15276   4.617   1.058   6.691 -0.3255 -0.4707  0.8952
  140OSM     NF15277   4.560   0.999   6.953 -0.0619 -0.0916  0.4428
  140OSM    HNF15278   4.639   1.045   6.993 -1.5331  2.9631  0.0405
  140OSM    C2S15279   4.579   0.906   6.836 -0.2710 -0.0992  0.2611
  140OSM    H2S15280   4.512   0.819   6.852  0.8207 -0.9429  0.3217
  140OSM    C3S15281   4.723   0.854   6.828  0.2922 -0.5217 -0.1904
  140OSM    H3S15282   4.783   0.948   6.826  0.4529 -0.6196 -0.0243
  140OSM     O315283   4.760   0.788   6.709  0.5954  0.0064  0.4264
  140OSM    HO315284   4.697   0.822   6.645 -1.1835 -0.6773  1.7534
  140OSM    C4S15285   4.770   0.773   6.947  0.5481 -0.3260  0.2990
  140OSM    H4S15286   4.814   0.834   7.027 -0.7154  0.4888  0.3950
  140OSM    C5S15287   4.759   0.643   6.975  0.3341 -0.6146 -0.1261
  140OSM    H5S15288   4.702   0.576   6.908 -1.1061 -0.7088  1.1429
  140OSM    C6S15289   4.810   0.580   7.102  0.0592 -0.2137 -0.3936
  140OSM    H6S15290   4.918   0.607   7.104  0.3644 -1.3346 -1.0436
  140OSM    H6T15291   4.794   0.470   7.109 -1.2228  0.0192  0.7592
  140OSM    C7S15292   4.756   0.640   7.230 -0.7016  0.3705 -0.1730
  140OSM    H7S15293   4.646   0.636   7.238 -0.5995  0.2153  5.7398
  140OSM    H7T15294   4.794   0.744   7.230  0.0217  0.1139 -0.7002
  140OSM    C8S15295   4.810   0.559   7.348  0.8158 -0.3740  0.3178
  140OSM    H8S15296   4.920   0.574   7.349  0.8037 -0.1529 -0.7295
  140OSM    H8T15297   4.789   0.450   7.343  1.4906 -0.4587 -1.6489
  140OSM    C9S15298   4.751   0.602   7.480  0.5288  0.3720  0.2847
  140OSM    H9S15299   4.649   0.560   7.484 -0.8456  3.2303 -1.5482
  140OSM    H9T15300   4.719   0.708   7.484 -1.1021 -0.1312  1.1756
  140OSM   C10S15301   4.841   0.552   7.594  0.0520  0.1177  0.2566
  140OSM   H10S15302   4.947   0.579   7.577  0.0125 -0.1137 -0.3634
  140OSM   H10T15303   4.843   0.442   7.577  0.5576  0.1172  0.3032
  140OSM   C11S15304   4.787   0.578   7.731 -0.6027  0.0404 -0.0401
  140OSM   H11S15305   4.683   0.538   7.735  0.4008 -2.9937 -1.3539
  140OSM   H11T15306   4.783   0.687   7.753  0.2012 -0.2612  1.7811
  140OSM   C12S15307   4.860   0.492   7.842 -0.1032 -0.6991  0.4331
  140OSM   H12S15308   4.971   0.502   7.839 -0.1142 -0.4979  0.7157
  140OSM   H12T15309   4.830   0.386   7.822  0.0726 -0.1257 -3.7632
  140OSM   C13S15310   4.803   0.525   7.983 -0.5497 -0.0136  0.2091
  140OSM   H13S15311   4.694   0.507   7.974 -0.8204  2.2796 -1.8664
  140OSM   H13T15312   4.825   0.632   8.001  0.2192 -0.0474 -0.5072
  140OSM   C14S15313   4.863   0.440   8.104 -0.1641  0.6146  0.5547
  140OSM   H14S15314   4.971   0.459   8.089  0.1704  0.8397  2.8640
  140OSM   H14T15315   4.837   0.335   8.080  1.2167 -0.2657  2.6682
  140OSM   C15S15316   4.817   0.476   8.245  0.1074 -0.6597  0.0094
  140OSM   H15S15317   4.834   0.585   8.261 -3.0232 -0.1798  0.7724
  140OSM   H15T15318   4.869   0.429   8.332  1.6312 -0.7433 -0.9057
  140OSM   C16S15319   4.672   0.428   8.266 -0.4110 -0.4029  0.4394
  140OSM   H16S15320   4.656   0.318   8.256  0.9207 -0.4337 -2.2232
  140OSM   H16T15321   4.607   0.476   8.190  0.0149 -1.5326 -0.6834
  140OSM   C17S15322   4.620   0.452   8.410  0.1461  0.0087 -0.2212
  140OSM   H17S15323   4.631   0.554   8.452 -0.7654  0.4620 -1.0577
  140OSM   H17T15324   4.674   0.373   8.467  0.1789 -0.7237 -1.2510
  140OSM   C18S15325   4.463   0.421   8.421 -0.1318 -0.0081  0.3707
  140OSM   H18S15326   4.427   0.456   8.520 -2.1159 -0.3743 -0.1837
  140OSM   H18T15327   4.425   0.317   8.414 -2.1324  0.6928  0.2804
  140OSM   H18U15328   4.408   0.469   8.337  1.3720  0.5122 -0.3640
  140OSM    C1F15329   4.440   1.039   7.005  0.5509 -1.3563  0.6920
  140OSM     OF15330   4.335   0.982   6.971 -0.1422 -0.1396 -1.0126
  140OSM    C2F15331   4.431   1.147   7.098 -0.1226 -0.9388 -0.1046
  140OSM    H2F15332   4.327   1.186   7.091  1.0325  2.1432 -2.8264
  140OSM    H2G15333   4.498   1.232   7.076  1.2953 -2.2141 -0.9088
  140OSM    C3F15334   4.469   1.104   7.234  0.0952  0.9246 -1.0045
  140OSM    H3F15335   4.398   1.024   7.262  3.3721 -1.7274  0.5493
  140OSM    H3G15336   4.443   1.188   7.302  0.8625  1.0500 -0.8507
  140OSM    C4F15337   4.603   1.042   7.266  0.2247 -0.1286  0.3606
  140OSM    H4F15338   4.679   1.090   7.202  0.4646  1.0103  1.4658
  140OSM    H4G15339   4.611   0.935   7.238  2.4380 -0.1898  1.0553
  140OSM    C5F15340   4.657   1.043   7.408  0.0563 -0.1890 -0.0077
  140OSM    H5F15341   4.712   1.137   7.427 -0.9191 -0.0207  2.2580
  140OSM    H5G15342   4.743   0.973   7.416  0.5248 -0.0485 -2.7799
  140OSM    C6F15343   4.554   1.016   7.523 -0.4834 -0.2998  0.8663
  140OSM    H6F15344   4.505   0.918   7.505  0.6274 -0.7475  0.1573
  140OSM    H6G15345   4.476   1.095   7.515  0.4205  0.4392 -2.1838
  140OSM    C7F15346   4.621   1.013   7.662 -0.1829  0.3894 -0.0290
  140OSM    H7F15347   4.684   1.104   7.659 -1.7072  1.5003 -3.1366
  140OSM    H7G15348   4.684   0.921   7.668  0.8273  1.1381  1.4488
  140OSM    C8F15349   4.514   1.030   7.773  0.3778  0.2305  1.1692
  140OSM    H8F15350   4.454   0.937   7.777  0.1054  0.4313  2.6835
  140OSM    H8G15351   4.449   1.115   7.744  0.7846  0.2778  0.3906
  140OSM    C9F15352   4.572   1.075   7.899 -0.1559  0.1578 -0.1555
  140OSM    H9F15353   4.596   1.182   7.902  0.1020  0.0950  0.1608
  140OSM   C10F15354   4.606   1.007   8.007  0.8822 -0.2853  0.2946
  140OSM   H10F15355   4.651   1.062   8.092 -1.0116 -0.6450  1.5943
  140OSM   C11F15356   4.593   0.857   8.028 -0.8441 -0.1501 -0.2560
  140OSM   H11F15357   4.681   0.837   8.094 -1.4568 -0.9093  0.3590
  140OSM   H11G15358   4.604   0.798   7.935 -1.4731 -1.3809  0.4213
  140OSM   C12F15359   4.462   0.807   8.095 -0.2175 -0.3235 -0.3057
  140OSM   H12F15360   4.481   0.699   8.115  2.1159  0.3714  1.7899
  140OSM   H12G15361   4.383   0.814   8.017  0.9117 -2.9135 -1.8178
  140OSM   C13F15362   4.435   0.880   8.223 -0.2899 -0.4004  0.3640
  140OSM   H13F15363   4.335   0.844   8.258  0.0815 -0.3161  1.5501
  140OSM   H13G15364   4.430   0.990   8.208 -1.6484 -0.7112 -1.9339
  140OSM   C14F15365   4.546   0.842   8.334  0.4108 -0.2538 -0.0583
  140OSM   H14F15366   4.644   0.888   8.309  0.0086  2.0385  2.1015
  140OSM   H14G15367   4.559   0.733   8.355 -1.2314 -0.5650 -0.5715
  140OSM   C15F15368   4.500   0.910   8.461  0.1967  0.0785  1.0446
  140OSM   H15F15369   4.404   0.864   8.495 -0.5439  0.8611  0.0862
  140OSM   H15G15370   4.483   1.017   8.436  2.4687  0.6099  1.5841
  140OSM   C16F15371   4.602   0.897   8.579 -0.1624  0.0481 -0.1737
  140OSM   H16F15372   4.636   0.792   8.592 -0.4087  0.0055  0.1396
  140OSM   H16G15373   4.532   0.916   8.663 -0.2438 -4.2951  1.0217
  140OSM   C17F15374   4.720   0.995   8.574  0.8055 -0.0326  0.6006
  140OSM   H17F15375   4.675   1.096   8.581 -0.6549 -0.4833 -1.4476
  140OSM   H17G15376   4.770   0.989   8.475  0.5260 -1.1709  0.5089
  140OSM   C18F15377   4.830   0.973   8.682 -0.3232 -0.0564 -0.5903
  140OSM   H18F15378   4.919   1.023   8.638  0.1197 -0.5738 -0.3005
  140OSM   H18G15379   4.838   0.865   8.708  0.0991  0.0536 -0.2579
  140OSM   H18H15380   4.791   1.013   8.778 -0.8026 -4.2409  1.1782
  141OSM      N15381   2.859   0.757   6.167 -0.1491 -0.3772 -0.1611
  141OSM    C1515382   2.989   0.692   6.183 -1.0556 -0.6763 -0.6154
  141OSM   H15A15383   3.000   0.598   6.131  2.0873 -0.8170  0.1055
  141OSM   H15B15384   3.001   0.660   6.285 -2.0988 -1.6817 -0.7826
  141OSM   H15C15385   3.074   0.747   6.146  0.6651 -0.7798  2.7919
  141OSM    C1415386   2.885   0.893   6.113 -0.2495 -0.2081  0.1316
  141OSM   H14A15387   2.938   0.891   6.019  1.5209 -1.8496  1.1063
  141OSM   H14B15388   2.941   0.961   6.175  0.8625 -0.7983 -0.2092
  141OSM   H14C15389   2.789   0.936   6.085  0.0020  0.3136  0.0593
  141OSM    C1315390   2.785   0.682   6.065  0.0790 -0.2276  0.2864
  141OSM   H13A15391   2.749   0.584   6.094  0.6304 -0.7765 -0.8089
  141OSM   H13B15392   2.841   0.671   5.973 -0.0562 -1.0462  0.2992
  141OSM   H13C15393   2.697   0.739   6.040  0.0678  0.1351  1.1271
  141OSM    C1215394   2.786   0.761   6.296  0.4045  0.0135 -0.0302
  141OSM   H12A15395   2.845   0.813   6.371 -0.2371 -0.3294  0.7249
  141OSM   H12B15396   2.797   0.661   6.336  0.0581  0.8191  2.2367
  141OSM    C1115397   2.640   0.810   6.296  0.6006  1.0479  0.5773
  141OSM   H11A15398   2.604   0.755   6.386  0.1936 -1.8962 -1.2353
  141OSM   H11B15399   2.591   0.760   6.210  2.5464  2.0986 -1.2454
  141OSM      P15400   2.625   1.035   6.421  0.2303  0.0089  0.2632
  141OSM    O1315401   2.737   0.989   6.508 -0.4259  0.3003  0.2023
  141OSM    O1415402   2.615   1.175   6.387  0.3436 -0.1584  0.0713
  141OSM    O1115403   2.478   0.985   6.467  1.0143  0.2188 -0.1523
  141OSM    O1215404   2.632   0.950   6.292  0.7054 -0.3930  0.8506
  141OSM    C1S15405   2.478   0.904   6.587 -0.4600 -0.1237  0.3896
  141OSM    H1S15406   2.535   0.960   6.664 -0.8539  0.1289  0.5043
  141OSM    H1T15407   2.532   0.810   6.568  0.3825  0.4834 -0.3244
  141OSM     NF15408   2.356   0.814   6.786  1.0568  0.2523 -0.1698
  141OSM    HNF15409   2.321   0.723   6.807  0.3386  0.4991 -0.2470
  141OSM    C2S15410   2.343   0.870   6.645  0.7349  0.4016  0.1620
  141OSM    H2S15411   2.275   0.957   6.653 -0.0777 -0.1249 -0.7097
  141OSM    C3S15412   2.266   0.787   6.544 -0.2707  0.5683 -0.1423
  141OSM    H3S15413   2.322   0.692   6.536  0.3925  0.6314  2.7139
  141OSM     O315414   2.258   0.833   6.417 -0.6329 -0.0121  0.4355
  141OSM    HO315415   2.314   0.911   6.412  0.1302 -0.5985 -0.6135
  141OSM    C4S15416   2.128   0.769   6.588 -0.0488  0.2438 -0.2474
  141OSM    H4S15417   2.077   0.861   6.619  0.1931  0.3578 -0.1918
  141OSM    C5S15418   2.060   0.652   6.621  0.9526  0.6619  0.4159
  141OSM    H5S15419   2.100   0.558   6.582 -0.5295  1.4293 -3.4574
  141OSM    C6S15420   1.919   0.643   6.671 -0.4786 -0.2477 -0.0987
  141OSM    H6S15421   1.843   0.618   6.594 -0.2114  0.7679 -0.7133
  141OSM    H6T15422   1.879   0.744   6.694 -1.1487 -0.1788 -1.4539
  141OSM    C7S15423   1.906   0.571   6.804  1.0142  0.7964  0.4221
  141OSM    H7S15424   1.986   0.606   6.873  0.2441 -0.9574  2.2918
  141OSM    H7T15425   1.907   0.460   6.810 -1.6675  0.7591  2.2368
  141OSM    C8S15426   1.769   0.601   6.867  0.2029  0.0672 -0.2811
  141OSM    H8S15427   1.684   0.587   6.797 -2.0298  1.1961  2.0389
  141OSM    H8T15428   1.761   0.710   6.885  0.5276  0.2620 -1.2415
  141OSM    C9S15429   1.743   0.526   7.005 -0.2429  0.7595  0.4042
  141OSM    H9S15430   1.839   0.502   7.054  0.4572  3.3239  0.4141
  141OSM    H9T15431   1.694   0.429   6.981  0.9895  0.0041  0.8459
  141OSM   C10S15432   1.648   0.597   7.108 -0.3313  0.5415  0.4758
  141OSM   H10S15433   1.546   0.609   7.064  1.4810  0.7369 -4.2693
  141OSM   H10T15434   1.689   0.699   7.127  0.1913  0.6643 -1.1058
  141OSM   C11S15435   1.652   0.525   7.242  0.4083 -0.1006 -0.4524
  141OSM   H11S15436   1.745   0.540   7.301  0.9416  0.1912 -1.3472
  141OSM   H11T15437   1.641   0.415   7.235 -1.4667  0.1426 -2.3779
  141OSM   C12S15438   1.530   0.559   7.330 -0.0164 -0.3780  0.3623
  141OSM   H12S15439   1.430   0.521   7.299  1.3929 -3.4068 -0.9767
  141OSM   H12T15440   1.518   0.669   7.331 -1.1563 -0.4653  2.7275
  141OSM   C13S15441   1.542   0.526   7.483 -0.2227 -0.3527  0.4624
  141OSM   H13S15442   1.644   0.542   7.524  0.6976  0.6885 -2.0179
  141OSM   H13T15443   1.525   0.416   7.485  2.1601 -0.7739  0.5608
  141OSM   C14S15444   1.451   0.608   7.578 -0.4420 -0.1723  0.3340
  141OSM   H14S15445   1.358   0.638   7.525  0.0526 -0.1088 -0.5154
  141OSM   H14T15446   1.504   0.694   7.623  1.4487 -0.7230 -0.7599
  141OSM   C15S15447   1.421   0.527   7.703  0.6181  0.7425 -0.2597
  141OSM   H15S15448   1.514   0.488   7.750 -0.5052  0.2848  1.7028
  141OSM   H15T15449   1.363   0.438   7.671  0.8811  0.1617  0.8469
  141OSM   C16S15450   1.332   0.612   7.803 -0.1861 -0.0124  0.1096
  141OSM   H16S15451   1.273   0.683   7.741  1.4717  0.1031 -1.4361
  141OSM   H16T15452   1.389   0.684   7.866  0.3299 -0.9184  0.7000
  141OSM   C17S15453   1.242   0.535   7.907 -1.3474  0.7100  1.3068
  141OSM   H17S15454   1.309   0.474   7.971 -1.1382  2.0095  2.3567
  141OSM   H17T15455   1.178   0.469   7.844  1.3015 -0.0413 -0.7761
  141OSM   C18S15456   1.165   0.631   7.999 -0.4295  0.1431 -0.0939
  141OSM   H18S15457   1.092   0.578   8.064 -1.9641 -0.4387 -2.1969
  141OSM   H18T15458   1.110   0.706   7.938  0.5897  0.6763 -0.3875
  141OSM   H18U15459   1.239   0.686   8.062  2.0512 -2.6354 -0.3693
  141OSM    C1F15460   2.389   0.887   6.884  0.2576  0.6074 -0.4141
  141OSM     OF15461   2.388   1.008   6.870 -0.1144 -0.0885 -0.0027
  141OSM    C2F15462   2.448   0.817   7.005 -0.0292 -0.6312  0.0929
  141OSM    H2F15463   2.532   0.751   6.976  2.2020  2.3703 -0.8011
  141OSM    H2G15464   2.367   0.748   7.037 -0.1536 -0.8389 -0.6566
  141OSM    C3F15465   2.466   0.921   7.110  0.0703  0.6397 -0.3376
  141OSM    H3F15466   2.375   0.981   7.131 -0.1588  0.0901  0.2865
  141OSM    H3G15467   2.546   0.993   7.082 -1.6549  2.5819 -0.5103
  141OSM    C4F15468   2.509   0.862   7.246  0.2420  0.3389  0.2559
  141OSM    H4F15469   2.418   0.803   7.270  1.1249 -0.6266  1.3459
  141OSM    H4G15470   2.523   0.939   7.325 -1.0930  0.0727  0.7922
  141OSM    C5F15471   2.620   0.757   7.252  0.5771  0.0644 -0.4293
  141OSM    H5F15472   2.717   0.802   7.221  0.1605  0.1642 -1.6533
  141OSM    H5G15473   2.590   0.678   7.179 -0.5469  0.6140 -0.5865
  141OSM    C6F15474   2.631   0.709   7.402 -0.3477 -0.4638  0.0172
  141OSM    H6F15475   2.537   0.656   7.428 -0.4198 -0.6146 -0.5372
  141OSM    H6G15476   2.649   0.797   7.467  0.3575  0.6917 -1.6591
  141OSM    C7F15477   2.745   0.605   7.424  0.1008 -0.7565 -1.0088
  141OSM    H7F15478   2.845   0.643   7.396 -0.0012  0.8862  0.6773
  141OSM    H7G15479   2.729   0.534   7.340 -0.4754  0.1308 -1.6763
  141OSM    C8F15480   2.746   0.547   7.565 -0.3001 -0.1124  0.2055
  141OSM    H8F15481   2.762   0.630   7.637  4.3421 -0.4256 -0.1415
  141OSM    H8G15482   2.835   0.480   7.568 -0.0952  0.1026 -0.7008
  141OSM    C9F15483   2.619   0.462   7.596 -0.8390  0.6814  0.5145
  141OSM    H9F15484   2.540   0.469   7.519 -1.1511  0.8505  0.8483
  141OSM   C10F15485   2.600   0.386   7.703  0.0466  0.1756 -0.2899
  141OSM   H10F15486   2.504   0.333   7.713  0.7644 -1.3077 -1.0040
  141OSM   C11F15487   2.695   0.377   7.821  0.2076  0.1194 -0.6894
  141OSM   H11F15488   2.791   0.430   7.798 -0.7474  1.0790 -2.7476
  141OSM   H11G15489   2.707   0.268   7.836  0.8448  0.4272  1.3031
  141OSM   C12F15490   2.633   0.447   7.947 -0.7017  0.6949  0.5058
  141OSM   H12F15491   2.527   0.422   7.967 -0.4775  0.4962  1.5011
  141OSM   H12G15492   2.644   0.556   7.928  2.2973  0.0841 -2.0972
  141OSM   C13F15493   2.698   0.401   8.085 -0.5686 -0.0526  0.6239
  141OSM   H13F15494   2.690   0.291   8.076 -1.3757  0.1234 -1.5975
  141OSM   H13G15495   2.626   0.425   8.166 -1.5155 -2.5686  0.5964
  141OSM   C14F15496   2.844   0.455   8.119 -0.1364 -0.4128 -0.8527
  141OSM   H14F15497   2.830   0.564   8.107  0.7550 -0.4310 -2.3058
  141OSM   H14G15498   2.917   0.422   8.042  1.5501 -0.7279  0.8001
  141OSM   C15F15499   2.880   0.424   8.266 -0.3987  0.2744 -0.0135
  141OSM   H15F15500   2.783   0.445   8.317 -2.0864  0.5395 -3.0655
  141OSM   H15G15501   2.957   0.499   8.295 -1.0590  0.3035  1.8099
  141OSM   C16F15502   2.941   0.284   8.288 -0.2926  0.2565 -0.6410
  141OSM   H16F15503   3.033   0.279   8.226  0.4888  1.2801  0.3887
  141OSM   H16G15504   2.871   0.204   8.255 -0.1846  0.7630 -2.1968
  141OSM   C17F15505   2.963   0.260   8.437  0.8450 -0.2791 -0.2160
  141OSM   H17F15506   3.023   0.168   8.452  1.1983  0.2400  1.8854
  141OSM   H17G15507   2.878   0.248   8.508  0.0894  1.9839 -0.6403
  141OSM   C18F15508   3.053   0.375   8.498 -0.0576 -0.7235 -0.4211
  141OSM   H18F15509   3.071   0.363   8.607  1.9634 -0.9416 -0.7313
  141OSM   H18G15510   3.004   0.473   8.483  3.0182  1.2289  1.3666
  141OSM   H18H15511   3.151   0.377   8.445 -0.0422  1.1095 -0.3738
  142OSM      N15512   5.042   3.211   6.242  0.0162 -0.1155  0.1820
  142OSM    C1515513   4.941   3.203   6.131  0.1940 -0.0447  0.7567
  142OSM   H15A15514   4.978   3.267   6.052 -0.4457 -1.8187 -1.0797
  142OSM   H15B15515   4.843   3.232   6.168 -0.4720 -0.1254 -0.8660
  142OSM   H15C15516   4.934   3.101   6.096 -2.3574  0.3726 -0.2367
  142OSM    C1415517   5.174   3.150   6.186  0.7099 -0.0838  0.1319
  142OSM   H14A15518   5.150   3.050   6.155 -0.7017  0.3414 -0.1936
  142OSM   H14B15519   5.254   3.156   6.259  0.2239  2.4414  0.5476
  142OSM   H14C15520   5.197   3.193   6.090  0.9075 -1.6271 -0.5284
  142OSM    C1315521   5.064   3.356   6.270 -0.4833 -0.0975 -0.0851
  142OSM   H13A15522   4.971   3.398   6.304 -0.6143 -2.0487  2.1809
  142OSM   H13B15523   5.109   3.406   6.184  0.3662  0.1422  0.4885
  142OSM   H13C15524   5.141   3.368   6.344 -0.7591  1.0948  0.0381
  142OSM    C1215525   4.988   3.146   6.362  0.7326  0.2096  0.2021
  142OSM   H12A15526   4.886   3.175   6.378  0.7772  0.7703 -0.4643
  142OSM   H12B15527   5.049   3.184   6.443  1.1560 -0.5458  0.2541
  142OSM    C1115528   4.982   2.988   6.371 -0.3947 -0.0326 -0.2746
  142OSM   H11A15529   4.957   2.970   6.477 -2.0380  0.8890 -0.4740
  142OSM   H11B15530   5.082   2.946   6.345  0.1187  0.6933  0.4741
  142OSM      P15531   4.734   2.929   6.311  0.1228 -0.0832 -0.0726
  142OSM    O1315532   4.657   2.983   6.196  0.2010 -0.4000  0.0620
  142OSM    O1415533   4.709   2.788   6.354  0.3729  0.3166  0.4638
  142OSM    O1115534   4.711   3.017   6.437 -0.0808 -0.6085  0.5346
  142OSM    O1215535   4.887   2.935   6.274 -0.3692 -0.2791  0.4477
  142OSM    C1S15536   4.578   3.033   6.495 -1.3217  0.0031 -0.1625
  142OSM    H1S15537   4.514   2.942   6.494 -1.6155  0.2086 -1.2187
  142OSM    H1T15538   4.530   3.103   6.424 -2.1251 -0.7374 -0.3651
  142OSM     NF15539   4.472   3.056   6.727  0.0690 -0.1864  0.1894
  142OSM    HNF15540   4.429   3.135   6.770 -0.3379  0.3879 -1.1975
  142OSM    C2S15541   4.591   3.088   6.643  0.2026  0.3700 -0.1298
  142OSM    H2S15542   4.671   3.038   6.702  0.2276  2.4383  1.7372
  142OSM    C3S15543   4.644   3.245   6.637  0.4922  0.2305 -0.2170
  142OSM    H3S15544   4.556   3.310   6.619  0.4096 -0.0911 -0.9982
  142OSM     O315545   4.736   3.266   6.537 -0.1481 -0.1865  0.2680
  142OSM    HO315546   4.762   3.179   6.504  1.9848  0.2664  0.6373
  142OSM    C4S15547   4.701   3.288   6.774 -0.1120 -0.2218  0.4589
  142OSM    H4S15548   4.624   3.328   6.841 -0.8014 -1.9239  0.7441
  142OSM    C5S15549   4.827   3.293   6.809 -0.2115  0.0362 -0.4822
  142OSM    H5S15550   4.904   3.261   6.737  1.3227 -0.2016  1.1802
  142OSM    C6S15551   4.879   3.348   6.945  0.5840  0.9255  0.3518
  142OSM    H6S15552   4.789   3.381   7.001 -0.6941 -0.6982 -0.6447
  142OSM    H6T15553   4.939   3.440   6.930  0.6750  1.0640  1.4653
  142OSM    C7S15554   4.948   3.252   7.048 -0.2792 -0.0307  0.0601
  142OSM    H7S15555   5.027   3.203   6.988 -0.0613  0.1310  0.2161
  142OSM    H7T15556   4.873   3.177   7.081 -1.7376  2.1889  2.1528
  142OSM    C8S15557   5.001   3.325   7.168 -0.0212  0.4651  0.5646
  142OSM    H8S15558   4.925   3.385   7.223  0.1335  1.7983 -0.5952
  142OSM    H8T15559   5.074   3.403   7.136  1.8138 -0.9809  1.0359
  142OSM    C9S15560   5.069   3.234   7.271  0.1967  0.2493 -0.5068
  142OSM    H9S15561   5.163   3.194   7.227  2.5800  2.7875  1.8405
  142OSM    H9T15562   5.005   3.144   7.280  2.5342 -1.4604 -0.0383
  142OSM   C10S15563   5.095   3.283   7.413  0.0612 -0.1352  0.0957
  142OSM   H10S15564   4.996   3.308   7.455 -0.1538  1.2937 -1.1713
  142OSM   H10T15565   5.152   3.378   7.403  1.1811 -0.9335 -1.6793
  142OSM   C11S15566   5.172   3.177   7.495 -0.2803  0.2926  0.6450
  142OSM   H11S15567   5.267   3.160   7.442  1.7014  2.0279  3.3730
  142OSM   H11T15568   5.114   3.082   7.495  1.3344 -0.7264 -0.4027
  142OSM   C12S15569   5.211   3.214   7.634 -0.2177 -0.5707 -0.5235
  142OSM   H12S15570   5.265   3.311   7.633  0.5685 -0.9961 -0.2979
  142OSM   H12T15571   5.278   3.140   7.682 -0.7598 -0.0116  1.1807
  142OSM   C13S15572   5.087   3.224   7.727 -0.1573 -0.3037  0.3520
  142OSM   H13S15573   5.048   3.120   7.732 -0.6793 -0.1979 -1.1736
  142OSM   H13T15574   5.006   3.291   7.692 -0.5599 -1.9783 -2.2540
  142OSM   C14S15575   5.140   3.247   7.874 -0.0028 -0.7595 -0.0528
  142OSM   H14S15576   5.230   3.188   7.898  0.8187 -0.2393 -1.6825
  142OSM   H14T15577   5.061   3.235   7.950 -0.2005 -1.5242 -0.3724
  142OSM   C15S15578   5.181   3.394   7.876  0.0935 -0.0712  0.0855
  142OSM   H15S15579   5.111   3.460   7.820  0.0048 -0.1110  0.1492
  142OSM   H15T15580   5.284   3.389   7.836  0.2750 -0.9616  0.6493
  142OSM   C16S15581   5.188   3.456   8.014  0.5266  0.0061 -0.3240
  142OSM   H16S15582   5.252   3.547   8.012  1.6872 -0.7558  0.7793
  142OSM   H16T15583   5.264   3.400   8.072  1.5520  2.5236  0.9045
  142OSM   C17S15584   5.059   3.475   8.084  0.1079 -0.2317  0.0014
  142OSM   H17S15585   4.999   3.382   8.067 -0.7389 -0.1948  2.4529
  142OSM   H17T15586   5.003   3.564   8.047  0.8246  1.2470  2.2825
  142OSM   C18S15587   5.064   3.488   8.235  0.0277 -0.2838  0.7917
  142OSM   H18S15588   4.972   3.470   8.295 -0.5976  1.3232  0.3383
  142OSM   H18T15589   5.103   3.584   8.274  1.0747 -1.3088  2.4003
  142OSM   H18U15590   5.138   3.412   8.269 -2.1741 -2.4023  1.1279
  142OSM    C1F15591   4.440   2.925   6.756  0.1664 -0.0253  0.4647
  142OSM     OF15592   4.503   2.836   6.704 -0.3747  0.4575  0.4016
  142OSM    C2F15593   4.320   2.897   6.841 -1.3606  0.0041 -0.5129
  142OSM    H2F15594   4.262   2.813   6.798 -0.1059 -1.2182  0.1146
  142OSM    H2G15595   4.251   2.985   6.840 -2.1550 -0.5710  0.8529
  142OSM    C3F15596   4.363   2.864   6.989  0.1458  0.0362  0.5605
  142OSM    H3F15597   4.422   2.770   6.994  0.6797  0.2754 -0.7956
  142OSM    H3G15598   4.273   2.846   7.051 -0.0698  0.8313  0.4952
  142OSM    C4F15599   4.447   2.980   7.054  0.2396 -0.1522  0.2483
  142OSM    H4F15600   4.402   3.081   7.064  1.0081  0.3623 -1.1994
  142OSM    H4G15601   4.546   2.993   7.003  0.5828  1.1504  1.1826
  142OSM    C5F15602   4.476   2.950   7.198 -0.6819 -0.4025  0.1641
  142OSM    H5F15603   4.551   2.869   7.207  0.0963  0.2510 -0.2511
  142OSM    H5G15604   4.381   2.906   7.232 -2.4260  0.5713 -2.9893
  142OSM    C6F15605   4.519   3.066   7.287  0.5176 -0.2036 -0.4829
  142OSM    H6F15606   4.542   3.016   7.384 -0.8161 -1.4203 -0.7642
  142OSM    H6G15607   4.438   3.137   7.312 -0.0391 -0.5372 -1.2960
  142OSM    C7F15608   4.649   3.143   7.247 -0.0774  0.3582  0.0606
  142OSM    H7F15609   4.640   3.215   7.162 -1.1205  0.4815  0.2636
  142OSM    H7G15610   4.719   3.066   7.208 -0.9953  0.0407 -1.0156
  142OSM    C8F15611   4.716   3.223   7.366  0.3131  0.3819  0.1279
  142OSM    H8F15612   4.814   3.259   7.328 -0.5718  2.3638 -0.3881
  142OSM    H8G15613   4.747   3.154   7.447  2.1619  0.5639 -0.3926
  142OSM    C9F15614   4.637   3.340   7.408 -0.3714  0.5127 -0.1035
  142OSM    H9F15615   4.621   3.424   7.340  0.5635  0.6225 -0.1990
  142OSM   C10F15616   4.584   3.350   7.533  0.0065  0.2487 -0.0106
  142OSM   H10F15617   4.529   3.443   7.551  1.7295  1.1533  0.7721
  142OSM   C11F15618   4.583   3.250   7.650 -0.0354 -0.0706  0.0631
  142OSM   H11F15619   4.570   3.145   7.617  0.9247  0.2261 -1.3337
  142OSM   H11G15620   4.495   3.266   7.715  0.6494 -0.9100  1.2344
  142OSM   C12F15621   4.711   3.250   7.747 -0.1111 -0.2542 -0.3152
  142OSM   H12F15622   4.794   3.239   7.674 -1.1861  1.8101 -1.9603
  142OSM   H12G15623   4.717   3.163   7.816 -1.6067  1.7440  2.5184
  142OSM   C13F15624   4.721   3.391   7.825 -0.2193  0.9598  0.4589
  142OSM   H13F15625   4.659   3.459   7.763 -0.6874  0.3127  0.2123
  142OSM   H13G15626   4.816   3.448   7.830 -0.4636  1.5674 -1.1023
  142OSM   C14F15627   4.657   3.388   7.961 -0.5582  0.7516 -0.0729
  142OSM   H14F15628   4.719   3.312   8.013 -1.9915 -0.6624 -0.3731
  142OSM   H14G15629   4.552   3.354   7.952 -1.0101  0.7576  3.7033
  142OSM   C15F15630   4.655   3.526   8.034 -0.6368 -0.3169  0.2918
  142OSM   H15F15631   4.586   3.592   7.977  0.3741 -0.5597 -1.2849
  142OSM   H15G15632   4.753   3.577   8.025 -1.8794  2.3442  0.9855
  142OSM   C16F15633   4.632   3.506   8.184 -0.5488 -0.5450  0.1016
  142OSM   H16F15634   4.730   3.493   8.234 -0.5559  4.0927  1.7810
  142OSM   H16G15635   4.580   3.409   8.199  1.5939 -2.3192 -2.8128
  142OSM   C17F15636   4.551   3.615   8.251 -0.3882  0.5463 -0.4767
  142OSM   H17F15637   4.442   3.601   8.234 -0.7238  1.9247  0.4107
  142OSM   H17G15638   4.588   3.711   8.210 -0.9388 -0.1177 -2.6475
  142OSM   C18F15639   4.596   3.617   8.401  0.1408  0.2473 -0.3660
  142OSM   H18F15640   4.705   3.602   8.413 -0.3695 -2.7763  1.5655
  142OSM   H18G15641   4.537   3.538   8.452 -1.1308  1.3914 -0.0074
  142OSM   H18H15642   4.562   3.718   8.433 -0.6382 -0.1186 -0.0192
  143OSM      N15643   3.472   0.409   6.471  0.1008  0.8308  0.7191
  143OSM    C1515644   3.389   0.376   6.353 -0.4912  0.0317  0.0090
  143OSM   H15A15645   3.349   0.277   6.366  0.5250 -0.7127 -2.0522
  143OSM   H15B15646   3.456   0.377   6.268 -0.8173 -0.0361 -0.2471
  143OSM   H15C15647   3.318   0.453   6.328  0.8071  0.4407 -2.8400
  143OSM    C1415648   3.547   0.539   6.447  0.3058  0.1030  0.0943
  143OSM   H14A15649   3.615   0.553   6.529 -0.4751 -1.3049  1.0159
  143OSM   H14B15650   3.478   0.621   6.434 -2.0709 -1.6350  0.9577
  143OSM   H14C15651   3.613   0.533   6.361 -0.7010  1.5917 -0.8373
  143OSM    C1315652   3.391   0.417   6.591  0.5916  0.7595 -0.1186
  143OSM   H13A15653   3.333   0.326   6.604  2.8849 -0.7459  0.2109
  143OSM   H13B15654   3.332   0.506   6.585 -0.8065 -0.1027  0.3422
  143OSM   H13C15655   3.452   0.419   6.680  2.8946 -1.1025 -1.5347
  143OSM    C1215656   3.587   0.306   6.487 -0.4223 -0.2471 -0.3072
  143OSM   H12A15657   3.539   0.210   6.499  0.0442 -0.5816 -1.0559
  143OSM   H12B15658   3.654   0.328   6.569 -1.1573 -1.6216  0.7047
  143OSM    C1115659   3.684   0.269   6.366 -0.2642  0.2233  0.4727
  143OSM   H11A15660   3.612   0.225   6.294 -1.6070  1.9010  0.7130
  143OSM   H11B15661   3.759   0.191   6.391  0.4044  0.4702 -0.7169
  143OSM      P15662   3.894   0.377   6.255  0.2585  0.1821 -0.1775
  143OSM    O1315663   3.914   0.258   6.161  0.5001  0.0103 -0.5836
  143OSM    O1415664   3.932   0.511   6.202 -0.2768  0.2143 -0.0038
  143OSM    O1115665   3.969   0.352   6.383  0.2671 -0.2880  0.2174
  143OSM    O1215666   3.743   0.387   6.299  0.1031 -0.1328  0.1736
  143OSM    C1S15667   3.952   0.434   6.500  0.0503 -0.2074 -0.6737
  143OSM    H1S15668   3.854   0.486   6.505 -0.0206 -0.2228 -1.8034
  143OSM    H1T15669   4.027   0.516   6.501 -0.9562  0.7415 -0.7766
  143OSM     NF15670   3.929   0.438   6.748  0.2912 -0.1761 -0.0601
  143OSM    HNF15671   3.986   0.509   6.788 -1.0371  1.5210 -1.0311
  143OSM    C2S15672   3.976   0.356   6.633 -0.8031 -0.5700 -0.6096
  143OSM    H2S15673   3.921   0.260   6.625 -0.9727 -0.3838 -1.9454
  143OSM    C3S15674   4.124   0.316   6.637  0.3204  0.2836  0.2510
  143OSM    H3S15675   4.189   0.407   6.634  0.9348 -0.1129  1.0882
  143OSM     O315676   4.161   0.245   6.522 -0.1125 -0.0219  0.1057
  143OSM    HO315677   4.086   0.257   6.463  0.0537  1.9142  0.2172
  143OSM    C4S15678   4.145   0.247   6.767 -0.3300 -0.3663 -0.1533
  143OSM    H4S15679   4.199   0.309   6.841 -0.6081  0.1975 -0.4189
  143OSM    C5S15680   4.117   0.124   6.798 -0.4727  0.0610  0.6147
  143OSM    H5S15681   4.059   0.069   6.723 -1.2757  3.5076 -1.5193
  143OSM    C6S15682   4.156   0.056   6.929 -0.0428  0.1452  0.3152
  143OSM    H6S15683   4.250   0.002   6.907 -1.0879 -1.8663  0.5306
  143OSM    H6T15684   4.091  -0.033   6.940  0.2728 -0.2733 -1.0529
  143OSM    C7S15685   4.175   0.143   7.053  0.1336  0.0860 -0.1641
  143OSM    H7S15686   4.076   0.164   7.098 -0.4351 -2.2596 -0.2029
  143OSM    H7T15687   4.214   0.245   7.031 -2.6068  1.6009  1.3614
  143OSM    C8S15688   4.247   0.063   7.171 -0.3934 -0.0900  0.2918
  143OSM    H8S15689   4.350   0.040   7.139 -0.9463 -0.3938 -1.3753
  143OSM    H8T15690   4.213  -0.043   7.175  3.0327 -1.5713 -3.4033
  143OSM    C9S15691   4.235   0.122   7.311  0.2560 -0.8490  0.7004
  143OSM    H9S15692   4.136   0.171   7.325  1.0482  1.1139 -0.2436
  143OSM    H9T15693   4.308   0.205   7.323 -0.7862  0.4129 -1.1289
  143OSM   C10S15694   4.270   0.026   7.428 -0.6895  0.4589  0.4405
  143OSM   H10S15695   4.373  -0.005   7.401 -0.6694  0.3338  0.6579
  143OSM   H10T15696   4.210  -0.068   7.425  2.2317 -1.4886 -1.6451
  143OSM   C11S15697   4.249   0.095   7.561 -0.8058  0.5485  0.1815
  143OSM   H11S15698   4.162   0.164   7.552  0.7812  2.7980  1.1051
  143OSM   H11T15699   4.331   0.165   7.588  0.8484 -1.4531  0.5793
  143OSM   C12S15700   4.230   0.001   7.684  0.3424 -0.4164 -0.6676
  143OSM   H12S15701   4.286  -0.093   7.666  1.4663 -0.1989  1.4197
  143OSM   H12T15702   4.119  -0.010   7.687  0.3545 -0.4144 -0.2052
  143OSM   C13S15703   4.263   0.063   7.823 -0.1689  0.7715  0.0908
  143OSM   H13S15704   4.193   0.148   7.844 -1.5720 -0.1399 -0.7403
  143OSM   H13T15705   4.368   0.097   7.832  0.8700 -2.3157  0.6086
  143OSM   C14S15706   4.240  -0.042   7.937  0.0661 -0.3647  0.2415
  143OSM   H14S15707   4.309  -0.127   7.918 -0.2082 -0.2864 -1.2872
  143OSM   H14T15708   4.134  -0.076   7.932  0.3079 -1.2382  0.8843
  143OSM   C15S15709   4.257   0.019   8.073  0.1711 -0.7152 -0.2399
  143OSM   H15S15710   4.176   0.094   8.082  1.6677  0.9896 -0.3985
  143OSM   H15T15711   4.350   0.080   8.075 -1.2050  1.4804 -0.6595
  143OSM   C16S15712   4.244  -0.075   8.194 -0.2323  0.1003 -0.0449
  143OSM   H16S15713   4.323  -0.154   8.189  1.5112  1.7342  0.4954
  143OSM   H16T15714   4.146  -0.126   8.188  0.0041 -0.2225 -1.8159
  143OSM   C17S15715   4.246   0.003   8.326 -0.5004  0.2581 -0.0540
  143OSM   H17S15716   4.168   0.082   8.327  1.7453  2.6298 -0.3789
  143OSM   H17T15717   4.344   0.053   8.337 -0.2756 -0.0914 -0.4646
  143OSM   C18S15718   4.224  -0.101   8.434  0.3021  0.2671  0.4953
  143OSM   H18S15719   4.304  -0.177   8.421  0.0621  0.3383 -1.6826
  143OSM   H18T15720   4.125  -0.152   8.428 -0.5047  1.8405 -0.1809
  143OSM   H18U15721   4.238  -0.053   8.533  1.7033 -0.4718  0.6812
  143OSM    C1F15722   3.804   0.432   6.797  0.0930 -0.0195  0.0723
  143OSM     OF15723   3.716   0.360   6.749 -0.3201 -0.6143 -0.5844
  143OSM    C2F15724   3.785   0.530   6.910  0.0027 -0.0953  0.0816
  143OSM    H2F15725   3.815   0.625   6.862 -3.1965 -0.2219 -2.4987
  143OSM    H2G15726   3.855   0.501   6.992 -0.1366 -0.3062  0.1259
  143OSM    C3F15727   3.639   0.534   6.947 -0.1145 -0.1704  0.2838
  143OSM    H3F15728   3.594   0.436   6.974 -3.1411  0.7649 -0.8516
  143OSM    H3G15729   3.587   0.574   6.857 -0.4244 -0.9323  0.1179
  143OSM    C4F15730   3.596   0.625   7.067 -0.0294  0.0133  0.3525
  143OSM    H4F15731   3.486   0.637   7.058  0.1378  0.7700 -0.8833
  143OSM    H4G15732   3.657   0.718   7.061  1.7658 -1.0841  0.6691
  143OSM    C5F15733   3.613   0.565   7.208  0.1652 -0.6036 -0.6439
  143OSM    H5F15734   3.721   0.541   7.223  0.3369  1.4219  2.0870
  143OSM    H5G15735   3.556   0.472   7.230  0.5628 -0.7291 -0.0939
  143OSM    C6F15736   3.574   0.664   7.319  0.1393  0.1772 -0.1418
  143OSM    H6F15737   3.466   0.687   7.309 -0.1217 -0.2874  1.3930
  143OSM    H6G15738   3.635   0.755   7.300 -0.6827  0.6481 -0.5748
  143OSM    C7F15739   3.599   0.614   7.458  0.2568 -0.2413  0.0364
  143OSM    H7F15740   3.706   0.586   7.466  0.3707 -0.5541 -2.1731
  143OSM    H7G15741   3.543   0.520   7.480  0.1004  0.3124  2.2950
  143OSM    C8F15742   3.556   0.711   7.569 -0.6144  0.7465 -1.2418
  143OSM    H8F15743   3.445   0.716   7.572 -0.7286 -1.4078  0.9013
  143OSM    H8G15744   3.589   0.811   7.533  0.2808  0.4968 -1.1278
  143OSM    C9F15745   3.622   0.682   7.698 -0.3711 -0.4003 -0.6954
  143OSM    H9F15746   3.729   0.664   7.679 -0.6117 -0.1501 -2.4184
  143OSM   C10F15747   3.577   0.683   7.824 -0.4172  0.4566  0.2884
  143OSM   H10F15748   3.639   0.650   7.908 -3.0868 -0.0132  2.2123
  143OSM   C11F15749   3.438   0.727   7.870  0.9926  0.1922  0.3728
  143OSM   H11F15750   3.371   0.753   7.785  1.8888  0.4029 -0.2830
  143OSM   H11G15751   3.432   0.806   7.947 -0.7948 -2.0240  2.7206
  143OSM   C12F15752   3.363   0.616   7.945 -0.9281 -0.8690  0.4465
  143OSM   H12F15753   3.273   0.660   7.992  0.7380  0.6166  2.4168
  143OSM   H12G15754   3.423   0.593   8.036 -1.7437 -2.1410  0.6959
  143OSM   C13F15755   3.340   0.498   7.862  0.1714 -0.3414  0.4812
  143OSM   H13F15756   3.439   0.450   7.848  1.0509  0.8186  2.2976
  143OSM   H13G15757   3.309   0.528   7.760 -0.7110  2.0227  1.3735
  143OSM   C14F15758   3.219   0.414   7.899  0.2557 -0.7424 -0.3988
  143OSM   H14F15759   3.136   0.442   7.831 -1.4958 -1.0844  1.4770
  143OSM   H14G15760   3.181   0.427   8.003 -0.5230 -0.9757 -0.6473
  143OSM   C15F15761   3.253   0.270   7.874 -1.1632  0.2868  0.0683
  143OSM   H15F15762   3.316   0.232   7.957 -0.3530 -0.4948 -0.8691
  143OSM   H15G15763   3.308   0.249   7.780 -1.0809  0.3762  0.0957
  143OSM   C16F15764   3.126   0.188   7.868 -0.2186  0.0159  0.5093
  143OSM   H16F15765   3.044   0.248   7.913 -1.7343 -1.3578 -0.2936
  143OSM   H16G15766   3.136   0.093   7.925  2.8217 -0.4292 -0.6212
  143OSM   C17F15767   3.070   0.182   7.713 -0.3199  0.6303 -0.2595
  143OSM   H17F15768   3.131   0.261   7.665  1.6494  1.1606  2.7971
  143OSM   H17G15769   2.961   0.203   7.715 -0.0481  2.1968 -0.3546
  143OSM   C18F15770   3.107   0.050   7.646 -0.1643  0.4998  0.3996
  143OSM   H18F15771   3.102  -0.031   7.722 -0.8889  0.1379 -0.0217
  143OSM   H18G15772   3.210   0.054   7.604 -0.1597  1.8004  0.5065
  143OSM   H18H15773   3.044   0.007   7.565 -1.6572  0.9812  1.2729
  144OSM      N15774   4.274   5.257   5.878  0.5399  0.0866  0.6498
  144OSM    C1515775   4.150   5.301   5.793 -0.4709 -0.1204 -0.0866
  144OSM   H15A15776   4.068   5.231   5.802 -0.5631 -0.2996 -1.9274
  144OSM   H15B15777   4.176   5.314   5.689 -1.1527  1.6829 -0.0659
  144OSM   H15C15778   4.117   5.403   5.804 -0.3468 -0.1105  0.1917
  144OSM    C1415779   4.344   5.148   5.804  0.2383  0.1715  0.1623
  144OSM   H14A15780   4.274   5.074   5.767  0.2845  1.2367 -2.1894
  144OSM   H14B15781   4.421   5.097   5.860 -0.2800 -0.5665  0.2234
  144OSM   H14C15782   4.405   5.195   5.728  2.5683  0.2330  1.9580
  144OSM    C1315783   4.365   5.367   5.901 -0.9143 -0.2843  0.3001
  144OSM   H13A15784   4.449   5.342   5.965  0.3220 -0.0124 -1.1462
  144OSM   H13B15785   4.318   5.451   5.950  3.4011  1.6979  1.5877
  144OSM   H13C15786   4.414   5.409   5.815 -1.1431 -1.6426 -0.5138
  144OSM    C1215787   4.216   5.210   6.008 -0.1173  0.3992 -1.1920
  144OSM   H12A15788   4.141   5.135   5.987 -0.2500 -0.2075  1.1780
  144OSM   H12B15789   4.179   5.295   6.064 -1.5981 -1.0559  0.1458
  144OSM    C1115790   4.303   5.136   6.113 -0.2283  0.0029  0.0222
  144OSM   H11A15791   4.245   5.139   6.208 -1.5557 -3.5451 -0.5257
  144OSM   H11B15792   4.403   5.183   6.126  0.0090 -0.0557 -1.4042
  144OSM      P15793   4.401   4.901   6.172 -0.1716  0.2259 -0.0347
  144OSM    O1315794   4.393   4.767   6.109  0.2029  0.0663 -0.6834
  144OSM    O1415795   4.536   4.957   6.203 -0.1100  1.2093  0.3118
  144OSM    O1115796   4.304   4.908   6.306  0.8089 -0.0293 -0.4196
  144OSM    O1215797   4.320   5.001   6.071  0.5252 -0.2375 -0.6129
  144OSM    C1S15798   4.173   4.852   6.300 -0.4344 -0.2169  0.5772
  144OSM    H1S15799   4.180   4.752   6.252  2.0076 -0.7646  1.9161
  144OSM    H1T15800   4.103   4.916   6.243  1.3748  0.1096 -1.3706
  144OSM     NF15801   4.018   4.716   6.439 -0.5658 -0.5265 -0.0166
  144OSM    HNF15802   3.925   4.751   6.429 -0.1757  0.3920 -0.5219
  144OSM    C2S15803   4.125   4.816   6.437  0.5424  0.2024 -0.2343
  144OSM    H2S15804   4.206   4.767   6.497 -0.5016 -0.8571  0.3467
  144OSM    C3S15805   4.099   4.940   6.535  0.5942 -0.4446 -0.2953
  144OSM    H3S15806   3.996   4.974   6.508  0.7591  0.6515  0.3761
  144OSM     O315807   4.182   5.055   6.518 -0.3003  0.7808 -0.4486
  144OSM    HO315808   4.244   5.025   6.451 -0.2275 -2.8493  0.9617
  144OSM    C4S15809   4.102   4.900   6.686  0.5452 -0.3425  0.1999
  144OSM    H4S15810   4.204   4.877   6.721  1.3807  1.8396 -0.6063
  144OSM    C5S15811   3.996   4.903   6.768  1.1985  0.0338 -0.6357
  144OSM    H5S15812   3.898   4.930   6.728  0.5549 -0.2919  0.6649
  144OSM    C6S15813   3.981   4.874   6.911 -0.3820 -0.8851 -0.3373
  144OSM    H6S15814   3.919   4.782   6.916  0.3854 -1.3526  2.1335
  144OSM    H6T15815   3.933   4.953   6.973  1.3740 -1.4644  1.8979
  144OSM    C7S15816   4.112   4.840   6.990 -0.4100  0.1154  0.1294
  144OSM    H7S15817   4.172   4.932   7.006  0.2486 -0.1258 -0.8517
  144OSM    H7T15818   4.176   4.770   6.933 -1.1171 -0.4527  0.0165
  144OSM    C8S15819   4.063   4.779   7.122  0.0100 -0.6439 -0.0548
  144OSM    H8S15820   4.014   4.680   7.106 -1.6096 -0.1178  1.3896
  144OSM    H8T15821   3.985   4.846   7.164 -1.3389 -1.6197 -0.9104
  144OSM    C9S15822   4.180   4.765   7.223 -0.4358  0.1311 -0.2154
  144OSM    H9S15823   4.230   4.864   7.222 -1.1887  0.5286  0.1909
  144OSM    H9T15824   4.253   4.697   7.174 -0.1278  1.3911 -1.5634
  144OSM   C10S15825   4.136   4.724   7.364 -0.0029 -0.5139  0.8722
  144OSM   H10S15826   4.086   4.625   7.363  2.3545 -1.8559  3.6798
  144OSM   H10T15827   4.062   4.801   7.396 -1.2680 -1.4357  0.2651
  144OSM   C11S15828   4.249   4.720   7.473 -0.4687 -0.2318 -0.4815
  144OSM   H11S15829   4.325   4.800   7.461 -1.0667  0.4749  0.3142
  144OSM   H11T15830   4.299   4.622   7.487 -1.3208 -0.6408 -0.2142
  144OSM   C12S15831   4.188   4.762   7.615 -0.1372 -0.3025  0.1768
  144OSM   H12S15832   4.135   4.674   7.658 -1.3841  1.2587  2.0121
  144OSM   H12T15833   4.105   4.836   7.613 -0.8021 -1.0119  0.7117
  144OSM   C13S15834   4.298   4.826   7.704 -0.0997  0.1636 -0.7069
  144OSM   H13S15835   4.312   4.930   7.665  0.7882  0.4858  0.4251
  144OSM   H13T15836   4.375   4.749   7.685 -0.1345  0.5562 -2.7677
  144OSM   C14S15837   4.262   4.832   7.858 -0.5122  0.1843  0.0056
  144OSM   H14S15838   4.360   4.838   7.911 -0.5747 -0.4427  0.1962
  144OSM   H14T15839   4.205   4.739   7.874  0.2400 -0.1353  0.9515
  144OSM   C15S15840   4.167   4.945   7.890  0.1688 -0.0268 -0.3934
  144OSM   H15S15841   4.067   4.915   7.851 -0.0957 -2.3211  1.8477
  144OSM   H15T15842   4.206   5.040   7.847 -0.3715 -0.7865 -2.7611
  144OSM   C16S15843   4.144   4.960   8.043 -0.1835 -0.3937  0.1903
  144OSM   H16S15844   4.159   4.863   8.095 -0.3524 -1.0778 -0.9932
  144OSM   H16T15845   4.040   4.996   8.058 -0.3410 -0.4492 -0.7249
  144OSM   C17S15846   4.238   5.062   8.109 -0.0071 -0.2007 -0.6506
  144OSM   H17S15847   4.345   5.058   8.081  0.1069  0.1320 -0.2571
  144OSM   H17T15848   4.225   5.035   8.216  0.6770 -1.1329 -0.7917
  144OSM   C18S15849   4.182   5.207   8.096  0.1055 -0.2644  0.0697
  144OSM   H18S15850   4.243   5.280   8.155 -0.5429  1.7242 -1.5799
  144OSM   H18T15851   4.073   5.210   8.118  0.2787 -1.5026  1.2576
  144OSM   H18U15852   4.199   5.240   7.991 -1.0215  0.2604  0.0379
  144OSM    C1F15853   4.035   4.594   6.385 -0.4040 -0.0034 -0.0429
  144OSM     OF15854   4.147   4.543   6.388  0.0481  0.1659 -0.3892
  144OSM    C2F15855   3.925   4.517   6.314  0.2335 -0.6499 -0.0747
  144OSM    H2F15856   3.926   4.416   6.361  2.1685 -0.3420  0.5972
  144OSM    H2G15857   3.943   4.494   6.206 -1.0566 -0.4892 -0.3467
  144OSM    C3F15858   3.782   4.572   6.321 -0.2228 -0.6975 -0.4845
  144OSM    H3F15859   3.718   4.512   6.253  2.0250 -1.4485 -2.0509
  144OSM    H3G15860   3.783   4.677   6.283 -0.4345 -1.3976 -2.5144
  144OSM    C4F15861   3.735   4.581   6.468 -0.2794  0.4414 -0.4220
  144OSM    H4F15862   3.634   4.626   6.474  0.2935  1.5707  1.7795
  144OSM    H4G15863   3.800   4.651   6.525 -1.6162  0.3809  1.2691
  144OSM    C5F15864   3.728   4.447   6.541  0.2369  0.4796  0.9750
  144OSM    H5F15865   3.823   4.392   6.557  0.7491  0.5380 -1.4448
  144OSM    H5G15866   3.667   4.369   6.490  1.8812 -0.1027 -0.1883
  144OSM    C6F15867   3.650   4.468   6.668 -0.0132  0.8880  0.8536
  144OSM    H6F15868   3.609   4.369   6.698  1.8655 -0.6904 -1.3858
  144OSM    H6G15869   3.563   4.533   6.647 -0.0470  0.4117 -0.6542
  144OSM    C7F15870   3.731   4.538   6.786  0.0332  0.7566  0.0109
  144OSM    H7F15871   3.703   4.646   6.784  0.9800  1.0071 -0.5313
  144OSM    H7G15872   3.839   4.523   6.765 -0.2918 -1.9776 -0.1142
  144OSM    C8F15873   3.705   4.483   6.932 -0.0445  0.3050  0.0420
  144OSM    H8F15874   3.785   4.521   7.000 -1.3287  2.6694  0.3346
  144OSM    H8G15875   3.713   4.373   6.919  0.0901  0.4438 -1.0968
  144OSM    C9F15876   3.574   4.526   6.980 -0.5964 -0.2218  0.6533
  144OSM    H9F15877   3.488   4.477   6.930 -0.5415  1.1244 -0.8262
  144OSM   C10F15878   3.544   4.609   7.078  0.0493  0.0136 -0.5652
  144OSM   H10F15879   3.438   4.626   7.102  0.4836 -0.8225  2.1987
  144OSM   C11F15880   3.637   4.670   7.178 -0.8610  0.1829 -0.2402
  144OSM   H11F15881   3.746   4.660   7.164 -0.7233  1.4764 -0.2436
  144OSM   H11G15882   3.621   4.634   7.281  1.4088 -0.1769  0.0298
  144OSM   C12F15883   3.601   4.825   7.170  0.0472  0.1683  0.2373
  144OSM   H12F15884   3.502   4.835   7.220 -0.3421 -1.2076 -0.2030
  144OSM   H12G15885   3.603   4.863   7.065  1.2691 -2.5368 -0.8361
  144OSM   C13F15886   3.705   4.910   7.238 -0.4022 -0.3690 -0.3680
  144OSM   H13F15887   3.671   5.015   7.254  1.1356  0.4708 -2.2345
  144OSM   H13G15888   3.793   4.903   7.172 -0.4230 -0.1112 -0.4243
  144OSM   C14F15889   3.748   4.860   7.377  0.0976 -0.2321  0.7182
  144OSM   H14F15890   3.839   4.919   7.398  0.3314 -0.0183 -0.7683
  144OSM   H14G15891   3.790   4.759   7.392  0.7159 -0.0042  0.5558
  144OSM   C15F15892   3.633   4.896   7.477  0.1503  0.1829 -0.8333
  144OSM   H15F15893   3.551   4.829   7.445 -1.5777  3.1311 -3.1542
  144OSM   H15G15894   3.587   4.994   7.454 -1.0436  0.3593  1.9566
  144OSM   C16F15895   3.662   4.893   7.632  0.4993  0.2885  0.5167
  144OSM   H16F15896   3.586   4.948   7.691 -0.8545  0.3304 -1.1745
  144OSM   H16G15897   3.758   4.948   7.637 -0.6531  2.2959  1.9142
  144OSM   C17F15898   3.701   4.757   7.697  0.2261  0.5513  0.4611
  144OSM   H17F15899   3.787   4.711   7.644 -1.4298 -2.5519  0.2153
  144OSM   H17G15900   3.620   4.684   7.675  1.8829 -0.9561 -1.0011
  144OSM   C18F15901   3.739   4.750   7.847 -0.4241 -0.2769 -0.1010
  144OSM   H18F15902   3.820   4.826   7.855  0.1869 -0.9298  0.1173
  144OSM   H18G15903   3.772   4.647   7.873  0.1431  0.1527  0.9531
  144OSM   H18H15904   3.651   4.765   7.913 -0.3367 -2.2895  0.5498
  145SAPE     N15905   4.230   3.550  10.845 -0.3879 -0.0957  0.6346
  145SAPE   HN115906   4.149   3.574  10.784  0.1914 -1.8735 -0.9552
  145SAPE   HN215907   4.205   3.592  10.937 -0.3728 -1.4118  1.2742
  145SAPE   HN315908   4.314   3.604  10.817 -1.6640  0.8504 -1.5966
  145SAPE   C1215909   4.269   3.400  10.839  0.7082 -0.4156  0.3318
  145SAPE  H12A15910   4.185   3.345  10.888  2.9676 -4.4199  0.1432
  145SAPE  H12B15911   4.351   3.402  10.914 -1.6257  0.2108  3.0794
  145SAPE   C1115912   4.304   3.350  10.697  0.2500 -0.2367 -0.1112
  145SAPE  H11A15913   4.365   3.258  10.711 -1.1197 -1.2648 -0.7219
  145SAPE  H11B15914   4.362   3.434  10.653 -0.3551  1.2970  1.8811
  145SAPE     P15915   4.103   3.205  10.606 -0.4552  0.2170  0.0690
  145SAPE   O1315916   4.097   3.130  10.731 -0.5800 -0.2557 -0.5190
  145SAPE   O1415917   3.969   3.240  10.551  0.4184 -0.2017 -0.2457
  145SAPE   O1215918   4.195   3.330  10.615  0.1257 -0.0682  0.1812
  145SAPE   O1115919   4.183   3.118  10.496  0.5711  0.4088  0.2539
  145SAPE    C115920   4.215   3.165  10.365  0.4860 -0.8852 -0.0465
  145SAPE    HA15921   4.248   3.271  10.367  0.0642 -0.7474 -0.2407
  145SAPE    HB15922   4.300   3.099  10.337  2.0568  1.3554 -0.9306
  145SAPE    C215923   4.103   3.152  10.261  0.2726 -0.8063 -0.4459
  145SAPE    HS15924   4.013   3.206  10.297 -0.0557 -0.2568 -2.0003
  145SAPE   O2115925   4.079   3.011  10.237 -0.5214  0.2459  0.5948
  145SAPE   C2115926   3.962   2.964  10.247  0.0604  0.1570 -0.6277
  145SAPE   O2215927   3.858   3.033  10.268 -0.3565  0.3082  0.1787
  145SAPE   C2215928   3.950   2.813  10.222 -0.2200 -1.1572 -0.3914
  145SAPE   H2R15929   4.049   2.766  10.240  0.5606  0.9474  1.1693
  145SAPE   H2S15930   3.885   2.780  10.305 -0.4911  0.7182  0.1780
  145SAPE    C315931   4.145   3.222  10.127  0.4750 -0.0320  1.0769
  145SAPE    HX15932   4.247   3.185  10.102 -0.2135 -0.1037 -1.9768
  145SAPE    HY15933   4.155   3.330  10.152 -0.1504  0.1192  0.6876
  145SAPE   O3115934   4.061   3.191  10.009 -0.2250 -0.0770 -0.0917
  145SAPE   C3115935   3.947   3.265  10.010 -0.0532  0.2528 -0.2066
  145SAPE   O3215936   3.908   3.324  10.107 -0.7792  0.5206 -0.0515
  145SAPE   C3215937   3.871   3.250   9.874  0.3765  0.0418 -0.1523
  145SAPE   H2X15938   3.858   3.140   9.860  3.3781 -0.4946  0.6631
  145SAPE   H2Y15939   3.947   3.274   9.796  1.4326  0.1144  0.8736
  145SAPE   C2315940   3.899   2.767  10.084  0.0704  0.5340 -0.0947
  145SAPE   H3R15941   3.793   2.790  10.061  0.2382 -0.0505 -1.6189
  145SAPE   H3S15942   3.904   2.656  10.081  0.6929  0.3508  3.4248
  145SAPE   C2415943   3.986   2.815   9.961  0.1724  0.4586 -0.3216
  145SAPE   H4R15944   3.986   2.923   9.935 -0.8828  0.2579 -1.2593
  145SAPE   H4S15945   3.932   2.770   9.875  1.5538 -0.7583 -0.6000
  145SAPE   C2515946   4.137   2.774   9.980 -0.2139 -0.9901  1.0760
  145SAPE   H5R15947   4.192   2.822  10.062 -0.1420  1.3166 -0.2383
  145SAPE   C2615948   4.217   2.697   9.899 -1.1208 -0.1419 -0.6223
  145SAPE   H6R15949   4.317   2.674   9.939 -1.5611  0.0573  0.6479
  145SAPE   C2715950   4.171   2.641   9.766  0.2963  0.0279  0.3497
  145SAPE   H7R15951   4.160   2.727   9.696  2.7283  1.6232  1.7538
  145SAPE   H7S15952   4.074   2.589   9.779  0.5129 -0.8663 -1.3135
  145SAPE   C2815953   4.269   2.544   9.716 -0.9245  0.6527 -0.4204
  145SAPE   H8R15954   4.341   2.505   9.790 -2.1294  1.9741  1.5549
  145SAPE   C2915955   4.277   2.507   9.589  0.0753 -0.5256 -0.0502
  145SAPE   H9R15956   4.357   2.436   9.564  0.2949  0.1676 -1.4563
  145SAPE  C21015957   4.188   2.549   9.478 -0.2238 -0.5308 -0.3603
  145SAPE  H10R15958   4.085   2.571   9.515 -0.4942  0.2944 -1.5136
  145SAPE  H10S15959   4.171   2.467   9.404 -0.6296 -2.0509  1.3438
  145SAPE  C21115960   4.235   2.669   9.401 -0.8695 -0.0010 -0.2017
  145SAPE  H11R15961   4.240   2.761   9.462 -2.4236 -0.1690  0.2234
  145SAPE  C21215962   4.299   2.665   9.277  0.2849 -0.5445 -0.1226
  145SAPE  H12R15963   4.332   2.760   9.233 -2.0643  0.6592  0.5216
  145SAPE  C21315964   4.327   2.544   9.195 -0.6567  0.5744  0.4438
  145SAPE  H13R15965   4.235   2.532   9.134 -1.6780 -0.0708  2.0238
  145SAPE  H13S15966   4.349   2.463   9.268  1.3218  3.0387  2.8060
  145SAPE  C21415967   4.451   2.567   9.110  0.0657  0.2944 -0.7451
  145SAPE  H14R15968   4.542   2.597   9.165  0.0794  2.0748 -1.6691
  145SAPE  C21515969   4.450   2.549   8.981  0.4220  0.1298  0.3080
  145SAPE  H15R15970   4.532   2.590   8.921 -0.8436 -1.9548 -3.1370
  145SAPE  C21615971   4.331   2.507   8.900  1.0591 -0.3342  0.4823
  145SAPE  H16R15972   4.266   2.596   8.887  0.6418 -0.8647 -1.4446
  145SAPE  H16S15973   4.264   2.435   8.952  0.2069 -1.0745 -1.5134
  145SAPE  C21715974   4.347   2.462   8.757 -0.3359  0.5639 -0.7841
  145SAPE  H17R15975   4.436   2.397   8.741  0.7086  1.9106 -0.6668
  145SAPE  H17S15976   4.387   2.551   8.704  0.7464  1.0484  0.7881
  145SAPE  C21815977   4.228   2.388   8.685  0.3491 -0.0170 -0.2934
  145SAPE  H18R15978   4.218   2.297   8.747  0.9279  1.2066  1.6991
  145SAPE  H18S15979   4.242   2.351   8.581 -0.4457  0.2232 -0.4934
  145SAPE  C21915980   4.097   2.467   8.680 -0.1114 -0.4764 -0.7199
  145SAPE  H19R15981   4.110   2.563   8.625 -1.0788 -0.0530 -0.2268
  145SAPE  H19S15982   4.080   2.494   8.786 -0.2554 -0.2692 -0.7940
  145SAPE  C22015983   3.980   2.384   8.623 -1.1629 -0.2625 -0.6280
  145SAPE  H20R15984   4.026   2.312   8.551  2.5833 -0.0453  1.3199
  145SAPE  H20S15985   3.911   2.452   8.569 -1.4185  0.1537  0.2185
  145SAPE  H20T15986   3.924   2.328   8.701 -2.3645  1.2878 -0.3469
  145SAPE   C3315987   3.740   3.333   9.857  0.3667 -0.4295  0.5312
  145SAPE   H3X15988   3.765   3.441   9.867  2.7995 -0.8579 -0.2077
  145SAPE   H3Y15989   3.670   3.311   9.940 -0.2004 -1.4262 -0.1911
  145SAPE   C3415990   3.666   3.314   9.724  0.1707  0.6444  0.3076
  145SAPE   H4X15991   3.566   3.362   9.727 -0.3017 -0.2406 -0.7737
  145SAPE   H4Y15992   3.642   3.205   9.717 -3.2829  1.3095 -0.1265
  145SAPE   C3515993   3.742   3.362   9.608 -0.2810 -0.0596 -0.2789
  145SAPE   H5X15994   3.849   3.341   9.627 -0.4789 -1.9980 -1.0586
  145SAPE   H5Y15995   3.719   3.470   9.597  1.2194  0.7881  3.2727
  145SAPE   C3615996   3.721   3.282   9.485  0.7627 -0.1076  0.4049
  145SAPE   H6X15997   3.713   3.172   9.502 -3.3087  0.0283  0.2102
  145SAPE   H6Y15998   3.796   3.307   9.407  0.1590  2.9920  0.6878
  145SAPE   C3715999   3.585   3.323   9.422 -0.3851  0.6749  0.6934
  145SAPE   H7X16000   3.572   3.433   9.428 -2.8240  0.5215 -0.5638
  145SAPE   H7Y16001   3.503   3.282   9.485 -1.9235  1.4655 -0.7060
  145SAPE   C3816002   3.538   3.266   9.285  0.8798  0.1400  0.1517
  145SAPE   H8X16003   3.438   3.312   9.272  1.3986  1.0476 -0.7117
  145SAPE   H8Y16004   3.536   3.155   9.295 -0.5975  0.1218 -0.1379
  145SAPE   C3916005   3.623   3.318   9.166  0.7993 -0.0740  0.2300
  145SAPE   H9X16006   3.725   3.281   9.192  0.2532 -2.0375 -0.2275
  145SAPE   H9Y16007   3.606   3.427   9.172 -0.8101 -0.3447  1.3028
  145SAPE  C31016008   3.586   3.267   9.025  0.1719 -0.1568 -0.8292
  145SAPE  H10X16009   3.481   3.298   9.004  0.4262  1.3439 -0.0765
  145SAPE  H10Y16010   3.598   3.158   9.012 -0.4327 -0.1102 -1.9311
  145SAPE  C31116011   3.675   3.329   8.925  0.1482 -0.3087 -0.4114
  145SAPE  H11X16012   3.780   3.337   8.958  0.0087  0.4993 -0.1331
  145SAPE  H11Y16013   3.650   3.438   8.918 -0.1029 -0.4207 -1.5973
  145SAPE  C31216014   3.652   3.284   8.784 -0.1105  0.1655  0.5494
  145SAPE  H12X16015   3.674   3.176   8.777 -1.0822  0.0332 -0.8241
  145SAPE  H12Y16016   3.724   3.337   8.718  0.0703  1.2398  1.5646
  145SAPE  C31316017   3.508   3.318   8.732 -0.4534  0.6024 -0.8487
  145SAPE  H13X16018   3.498   3.428   8.739  0.9263  0.6470  1.2820
  145SAPE  H13Y16019   3.429   3.268   8.791  0.3625 -1.9255 -1.7623
  145SAPE  C31416020   3.496   3.276   8.587  0.4269  0.5822 -0.3739
  145SAPE  H14X16021   3.506   3.166   8.577  1.0139  0.5739  0.2124
  145SAPE  H14Y16022   3.583   3.321   8.533  2.5372 -0.0602  2.2585
  145SAPE  C31516023   3.354   3.314   8.531 -0.3948 -0.0029  0.1708
  145SAPE  H15X16024   3.325   3.415   8.566 -1.3847 -0.4295  0.6050
  145SAPE  H15Y16025   3.281   3.253   8.588  0.5033 -0.6355  0.6721
  145SAPE  C31616026   3.337   3.291   8.385 -1.0920 -0.0928 -0.0118
  145SAPE  H16X16027   3.379   3.192   8.359 -0.6434  0.3356 -1.0133
  145SAPE  H16Y16028   3.392   3.363   8.320  1.2254 -2.4638 -0.8750
  145SAPE  C31716029   3.193   3.294   8.343 -0.3080  1.1564 -0.2478
  145SAPE  H17X16030   3.134   3.368   8.403  1.3774  2.0891  0.3249
  145SAPE  H17Y16031   3.150   3.198   8.379  1.0612  0.9638  0.9846
  145SAPE  C31816032   3.169   3.321   8.192 -0.3590 -0.2185 -0.3258
  145SAPE  H18X16033   3.202   3.236   8.130  2.7407 -0.7467  1.8020
  145SAPE  H18Y16034   3.224   3.413   8.162 -1.7242 -0.1571 -2.8813
  145SAPE  H18Z16035   3.060   3.336   8.176 -0.5143 -1.9289 -1.0539
  146SAPE     N16036   4.009   4.184  10.682  0.2382  0.2921  0.0782
  146SAPE   HN116037   4.086   4.208  10.748  2.5196  0.7585 -2.5689
  146SAPE   HN216038   3.992   4.268  10.623 -0.8928 -0.4313 -0.6590
  146SAPE   HN316039   3.926   4.156  10.737  0.2083  1.7499  0.8303
  146SAPE   C1216040   4.059   4.081  10.578  0.7353  0.3895 -0.5351
  146SAPE  H12A16041   4.154   4.112  10.532  0.4227  0.6336 -1.0205
  146SAPE  H12B16042   3.985   4.080  10.495 -0.5237 -0.9082  0.5357
  146SAPE   C1116043   4.064   3.935  10.641 -0.3551  0.3989  0.7888
  146SAPE  H11A16044   4.134   3.941  10.727  2.1601  4.1331 -1.2219
  146SAPE  H11B16045   4.098   3.866  10.561 -3.0097  1.3276 -1.3174
  146SAPE     P16046   3.908   3.749  10.728  0.0211 -0.1923  0.1579
  146SAPE   O1316047   4.035   3.675  10.713  0.2656 -0.0170 -0.0021
  146SAPE   O1416048   3.858   3.756  10.867  0.4393  0.3343  0.7338
  146SAPE   O1216049   3.933   3.893  10.680  0.0033  0.0044  0.1848
  146SAPE   O1116050   3.797   3.693  10.628  0.0045 -0.4815 -1.0707
  146SAPE    C116051   3.822   3.628  10.508  0.3640  0.2717  0.5210
  146SAPE    HA16052   3.904   3.553  10.514 -0.3066 -0.6720 -1.5384
  146SAPE    HB16053   3.734   3.569  10.477  0.9930  0.2801 -1.3567
  146SAPE    C216054   3.859   3.719  10.384 -0.9169  0.3704 -0.6170
  146SAPE    HS16055   3.961   3.755  10.409 -0.3345 -2.9481  2.6218
  146SAPE   O2116056   3.767   3.831  10.378 -0.5211 -0.0049 -0.8065
  146SAPE   C2116057   3.819   3.944  10.322  0.1566  0.6874  0.5641
  146SAPE   O2216058   3.938   3.962  10.298  0.0955  0.0011  0.1863
  146SAPE   C2216059   3.699   4.041  10.311 -0.2878  0.0303 -0.0126
  146SAPE   H2R16060   3.598   3.996  10.322 -2.0407  2.2257 -4.5337
  146SAPE   H2S16061   3.712   4.095  10.408 -2.8571  0.4311  0.1810
  146SAPE    C316062   3.866   3.637  10.248  0.3053  0.0614  0.0188
  146SAPE    HX16063   3.764   3.605  10.220  1.7536 -2.8770 -2.5866
  146SAPE    HY16064   3.921   3.542  10.267 -0.7039 -0.3932  0.7524
  146SAPE   O3116065   3.915   3.714  10.140  0.3696  0.2727  0.0818
  146SAPE   C3116066   4.038   3.686  10.098 -0.4073 -0.0381 -0.1073
  146SAPE   O3216067   4.110   3.593  10.130 -1.0317  0.1989 -0.1637
  146SAPE   C3216068   4.092   3.793  10.003  0.1989  0.8511 -0.2521
  146SAPE   H2X16069   4.202   3.789  10.013  0.0227  0.5309  2.1411
  146SAPE   H2Y16070   4.055   3.892  10.039  0.0270  0.7421 -0.1282
  146SAPE   C2316071   3.720   4.134  10.193  0.1488  1.1347  0.0581
  146SAPE   H3R16072   3.826   4.152  10.167  0.2405  1.0150  0.3430
  146SAPE   H3S16073   3.690   4.236  10.228  3.2274  1.3804  2.3909
  146SAPE   C2416074   3.626   4.095  10.075  1.2410 -0.7036 -0.2077
  146SAPE   H4R16075   3.645   4.170   9.995 -3.0380 -0.4055 -1.1815
  146SAPE   H4S16076   3.519   4.107  10.102  1.0918 -0.5618 -0.8476
  146SAPE   C2516077   3.655   3.957  10.026  0.4076 -0.6042  0.5191
  146SAPE   H5R16078   3.628   3.879  10.099 -0.0782 -0.7062  0.2358
  146SAPE   C2616079   3.698   3.921   9.902 -0.5412  0.6056  0.1084
  146SAPE   H6R16080   3.724   3.815   9.888 -0.0531  0.4424  1.9961
  146SAPE   C2716081   3.724   4.016   9.795 -0.0436 -0.1793  0.1695
  146SAPE   H7R16082   3.799   3.976   9.725 -0.2047 -1.1465  0.5434
  146SAPE   H7S16083   3.766   4.114   9.828  0.3412 -0.4070  0.3538
  146SAPE   C2816084   3.600   4.026   9.709  0.1165 -0.3913 -0.0586
  146SAPE   H8R16085   3.502   4.028   9.759 -0.6897  1.2902 -1.6233
  146SAPE   C2916086   3.596   4.031   9.572  0.6380  0.7182  0.3381
  146SAPE   H9R16087   3.499   4.046   9.522  0.7718  0.5430  0.0241
  146SAPE  C21016088   3.719   4.026   9.480 -0.7500 -0.5887  0.1674
  146SAPE  H10R16089   3.799   3.952   9.501 -2.4142 -2.4783  0.1863
  146SAPE  H10S16090   3.764   4.126   9.498 -0.5222 -0.8430  1.1020
  146SAPE  C21116091   3.681   4.029   9.334 -0.8407  0.7391 -0.6614
  146SAPE  H11R16092   3.628   4.118   9.298 -2.6722  0.0896  0.2911
  146SAPE  C21216093   3.742   3.953   9.236  0.5146 -0.4328  0.4963
  146SAPE  H12R16094   3.727   3.974   9.129  2.9917  0.0796  0.2089
  146SAPE  C21316095   3.851   3.843   9.255  0.2366 -0.0246 -0.2343
  146SAPE  H13R16096   3.879   3.820   9.360 -0.7582 -2.3505 -0.4161
  146SAPE  H13S16097   3.941   3.875   9.198 -0.3433 -1.9663 -2.4210
  146SAPE  C21416098   3.795   3.722   9.187  0.7187 -0.3757 -0.7385
  146SAPE  H14R16099   3.722   3.673   9.253 -0.1632  0.0233 -1.3915
  146SAPE  C21516100   3.843   3.644   9.094 -0.4037 -0.0956  0.8646
  146SAPE  H15R16101   3.778   3.564   9.055  0.7696 -0.2465 -0.8743
  146SAPE  C21616102   3.969   3.676   9.014 -0.0985 -0.5184 -0.3338
  146SAPE  H16R16103   4.011   3.582   8.970  1.4303 -0.0939  0.1534
  146SAPE  H16S16104   4.044   3.699   9.093 -1.7100  0.9189  0.8342
  146SAPE  C21716105   3.933   3.797   8.919 -0.0144 -0.0914 -0.4737
  146SAPE  H17R16106   4.026   3.839   8.876  0.0952 -1.0132 -1.1744
  146SAPE  H17S16107   3.886   3.882   8.974 -2.9659 -0.9451 -1.5004
  146SAPE  C21816108   3.829   3.746   8.812 -0.2221 -0.3307 -0.4963
  146SAPE  H18R16109   3.733   3.732   8.865  0.5273 -3.7952  0.1759
  146SAPE  H18S16110   3.868   3.646   8.786 -0.4890 -0.5003 -0.2432
  146SAPE  C21916111   3.806   3.849   8.704  0.9896  0.4057  0.3578
  146SAPE  H19R16112   3.897   3.881   8.649  1.3743 -0.0050  0.7385
  146SAPE  H19S16113   3.771   3.933   8.767 -0.6987 -1.1620  1.6223
  146SAPE  C22016114   3.695   3.817   8.602 -0.0358 -0.4418  0.6900
  146SAPE  H20R16115   3.707   3.874   8.507  3.5264  1.4302  2.0872
  146SAPE  H20S16116   3.599   3.855   8.645 -0.8087 -0.0455 -1.2898
  146SAPE  H20T16117   3.682   3.708   8.590  0.1570 -0.7956  3.1354
  146SAPE   C3316118   4.045   3.778   9.860  0.1937  0.2118  0.0749
  146SAPE   H3X16119   4.089   3.856   9.794 -2.3282  1.7427  0.0575
  146SAPE   H3Y16120   3.934   3.784   9.854  0.1521 -0.3080  0.3181
  146SAPE   C3416121   4.091   3.645   9.797  0.3994 -0.4524 -0.6817
  146SAPE   H4X16122   4.029   3.570   9.850 -1.9113 -0.3180 -2.9892
  146SAPE   H4Y16123   4.195   3.620   9.825  0.1546 -1.6367 -0.7671
  146SAPE   C3516124   4.061   3.651   9.644 -0.2676  0.6034 -0.4990
  146SAPE   H5X16125   4.126   3.733   9.608  0.4019  0.2411 -0.1378
  146SAPE   H5Y16126   3.956   3.676   9.616 -0.6735 -0.1086  0.3349
  146SAPE   C3616127   4.110   3.519   9.580 -0.1886 -0.1038 -0.0546
  146SAPE   H6X16128   4.066   3.436   9.639  4.1340 -1.6957  1.2335
  146SAPE   H6Y16129   4.216   3.522   9.611 -0.1232  5.7410  0.2711
  146SAPE   C3716130   4.070   3.514   9.445 -0.2349  0.1956  0.4091
  146SAPE   H7X16131   4.107   3.610   9.402 -0.9821  0.4832  0.3832
  146SAPE   H7Y16132   3.960   3.516   9.424 -0.2445 -1.2079  0.2099
  146SAPE   C3816133   4.125   3.388   9.373  0.6184 -0.3776 -0.3576
  146SAPE   H8X16134   4.058   3.307   9.406  0.2154  0.2624  0.4284
  146SAPE   H8Y16135   4.229   3.360   9.401  0.5428 -0.9869 -0.6673
  146SAPE   C3916136   4.113   3.400   9.223 -0.4216  0.6479 -0.0424
  146SAPE   H9X16137   4.161   3.499   9.205  1.6019 -0.0524  1.1429
  146SAPE   H9Y16138   4.006   3.408   9.194 -0.9793 -1.2185  1.3071
  146SAPE  C31016139   4.173   3.280   9.152  0.5003 -0.1335  0.4388
  146SAPE  H10X16140   4.129   3.184   9.187 -0.1992 -1.0040 -2.5425
  146SAPE  H10Y16141   4.280   3.271   9.181  0.6984  1.5104  0.3016
  146SAPE  C31116142   4.177   3.282   8.993 -0.1542 -0.0444  0.0645
  146SAPE  H11X16143   4.072   3.286   8.959 -0.1402  0.7828  0.0975
  146SAPE  H11Y16144   4.207   3.180   8.961 -0.2895  0.3721 -1.4514
  146SAPE  C31216145   4.268   3.391   8.929 -0.4677  0.6748 -0.0265
  146SAPE  H12X16146   4.377   3.372   8.944  0.1121  2.6691 -1.2841
  146SAPE  H12Y16147   4.245   3.488   8.979  0.5718  1.0548 -0.2534
  146SAPE  C31316148   4.239   3.404   8.778  0.2503  0.4729  0.3945
  146SAPE  H13X16149   4.131   3.407   8.752 -0.3977 -2.7237  2.0981
  146SAPE  H13Y16150   4.283   3.312   8.733  1.3908 -0.2051  2.7226
  146SAPE  C31416151   4.312   3.511   8.710  0.5037  0.8565  0.1117
  146SAPE  H14X16152   4.328   3.494   8.602 -0.3630  2.7627 -0.3613
  146SAPE  H14Y16153   4.411   3.506   8.760 -0.2820 -0.6958  1.6151
  146SAPE  C31516154   4.238   3.645   8.716  0.1586 -0.5119  0.6634
  146SAPE  H15X16155   4.239   3.665   8.825  1.5024 -0.5644  0.6830
  146SAPE  H15Y16156   4.130   3.632   8.695  0.2768 -2.7391  1.2466
  146SAPE  C31616157   4.307   3.767   8.642 -0.7531  0.8063 -0.1583
  146SAPE  H16X16158   4.293   3.755   8.532 -0.7564  2.4448 -0.3593
  146SAPE  H16Y16159   4.416   3.769   8.658 -0.6347  0.6829 -0.8805
  146SAPE  C31716160   4.255   3.905   8.692 -0.7329  0.0146  0.2776
  146SAPE  H17X16161   4.286   3.924   8.797  2.1496  0.0310 -0.4737
  146SAPE  H17Y16162   4.145   3.894   8.691 -0.5879 -1.8351  0.7115
  146SAPE  C31816163   4.304   4.014   8.605 -0.2412 -0.5621  0.0859
  146SAPE  H18X16164   4.277   4.107   8.659 -2.4988 -0.9485 -0.2761
  146SAPE  H18Y16165   4.262   4.013   8.502 -0.1453 -0.2284  0.0433
  146SAPE  H18Z16166   4.414   4.009   8.592  0.1496  1.3897  2.0319
  147SAPE     N16167   3.233   4.927  10.888  0.2374 -0.0761  0.7209
  147SAPE   HN116168   3.173   4.849  10.922 -1.3925  0.5950 -0.4777
  147SAPE   HN216169   3.181   4.988  10.821  1.0466  0.1658  0.3021
  147SAPE   HN316170   3.318   4.881  10.849  0.2366  0.2792  0.2907
  147SAPE   C1216171   3.271   5.010  11.003  0.7054  0.0651  0.3100
  147SAPE  H12A16172   3.330   4.949  11.074 -0.2935 -2.7219 -1.1136
  147SAPE  H12B16173   3.179   5.057  11.043  0.0496 -0.0796 -0.9509
  147SAPE   C1116174   3.349   5.132  10.957 -0.1220  0.6454  0.2912
  147SAPE  H11A16175   3.442   5.093  10.911 -1.5169  0.4546 -2.6486
  147SAPE  H11B16176   3.378   5.184  11.051  2.3939 -3.6056  2.1485
  147SAPE     P16177   3.304   5.357  10.833  0.0057  0.2536 -0.2504
  147SAPE   O1316178   3.180   5.434  10.840 -0.2249 -0.0937  0.3781
  147SAPE   O1416179   3.412   5.397  10.927 -0.1605 -0.8376  0.1988
  147SAPE   O1216180   3.273   5.208  10.858  0.1548 -0.2365 -0.1364
  147SAPE   O1116181   3.357   5.373  10.686  0.3199  0.0434  0.2064
  147SAPE    C116182   3.301   5.275  10.597  0.1409 -0.4711  0.7742
  147SAPE    HA16183   3.352   5.177  10.612  1.0553 -0.4476 -1.7417
  147SAPE    HB16184   3.192   5.259  10.606  0.3126 -1.4623  1.3211
  147SAPE    C216185   3.306   5.323  10.454 -0.2780 -0.1491 -0.1588
  147SAPE    HS16186   3.246   5.250  10.396 -1.5732  0.5102  0.3144
  147SAPE   O2116187   3.433   5.337  10.409 -0.5869  0.1234 -0.3744
  147SAPE   C2116188   3.505   5.226  10.379 -0.1736 -1.2030 -0.3237
  147SAPE   O2216189   3.468   5.112  10.385 -0.2633  0.5846 -0.4041
  147SAPE   C2216190   3.646   5.262  10.329  0.0235 -0.8749  0.1642
  147SAPE   H2R16191   3.713   5.291  10.413  0.6875 -1.1132 -0.2746
  147SAPE   H2S16192   3.691   5.169  10.287  1.6171  0.2443 -0.7242
  147SAPE    C316193   3.237   5.463  10.440 -0.2358  0.5413  0.2964
  147SAPE    HX16194   3.309   5.529  10.493 -0.1696 -0.7310  1.8711
  147SAPE    HY16195   3.146   5.455  10.503  0.7309  0.0339  1.6883
  147SAPE   O3116196   3.206   5.495  10.300  0.3097  0.6201  0.7537
  147SAPE   C3116197   3.299   5.567  10.236  0.0677 -1.4266 -0.2192
  147SAPE   O3216198   3.381   5.633  10.291 -0.2928 -0.1981 -0.3080
  147SAPE   C3216199   3.261   5.582  10.084 -0.5311  0.3122 -0.1536
  147SAPE   H2X16200   3.158   5.620  10.072 -0.6195  0.4107  0.8652
  147SAPE   H2Y16201   3.280   5.485  10.033  0.5335  0.4102  0.0155
  147SAPE   C2316202   3.647   5.366  10.213  0.6862  0.2351 -0.9068
  147SAPE   H3R16203   3.749   5.389  10.174  0.6981  2.1791  0.1460
  147SAPE   H3S16204   3.604   5.466  10.237  0.9838  0.6303 -1.9643
  147SAPE   C2416205   3.564   5.309  10.098  0.7691 -0.6223 -0.1391
  147SAPE   H4R16206   3.536   5.386  10.024 -1.4398 -1.1169  0.1345
  147SAPE   H4S16207   3.460   5.278  10.120 -0.2035  0.9902 -2.1225
  147SAPE   C2516208   3.622   5.188  10.027 -0.2653  0.1745 -0.0614
  147SAPE   H5R16209   3.574   5.095  10.061 -0.0167  0.5006  1.2590
  147SAPE   C2616210   3.731   5.188   9.948  0.4642  0.3388  0.2617
  147SAPE   H6R16211   3.750   5.090   9.901 -1.4504 -1.1865  2.4758
  147SAPE   C2716212   3.813   5.306   9.911  0.6737 -0.3590  0.2674
  147SAPE   H7R16213   3.779   5.398   9.961 -4.0348 -0.4239 -2.2850
  147SAPE   H7S16214   3.796   5.326   9.803 -0.7894 -2.0791  0.1286
  147SAPE   C2816215   3.960   5.280   9.927  0.4359 -0.4855  0.1578
  147SAPE   H8R16216   3.996   5.286  10.031 -0.2952  1.5503  0.3413
  147SAPE   C2916217   4.051   5.259   9.832  0.2153  0.6300  0.5035
  147SAPE   H9R16218   4.156   5.240   9.857  0.4583 -1.4390 -1.7822
  147SAPE  C21016219   4.025   5.237   9.688  0.0996  0.4134 -0.5410
  147SAPE  H10R16220   4.078   5.314   9.628 -0.5341  1.5068  0.2706
  147SAPE  H10S16221   3.920   5.251   9.657  0.0544  1.4854  0.0450
  147SAPE  C21116222   4.076   5.097   9.652  0.1472  0.3534  0.6231
  147SAPE  H11R16223   4.088   5.035   9.742 -0.4465  0.8070  1.0194
  147SAPE  C21216224   4.110   5.061   9.525  0.1919  0.5781 -0.0718
  147SAPE  H12R16225   4.160   4.963   9.515 -1.4489 -0.4793  1.4734
  147SAPE  C21316226   4.092   5.137   9.394 -0.4195 -0.1084 -0.3208
  147SAPE  H13R16227   4.192   5.173   9.359  1.0603 -0.6408  3.0108
  147SAPE  H13S16228   4.033   5.227   9.421 -1.0977 -1.1139  1.6944
  147SAPE  C21416229   4.020   5.055   9.286 -0.5802  0.6524 -0.4617
  147SAPE  H14R16230   3.972   4.959   9.306 -2.4118  1.5011 -0.6131
  147SAPE  C21516231   4.032   5.088   9.155 -0.2806 -0.3253  0.8253
  147SAPE  H15R16232   3.984   5.024   9.080 -1.3001  2.2139 -0.8089
  147SAPE  C21616233   4.105   5.207   9.094 -0.1559  0.7926 -0.4465
  147SAPE  H16R16234   4.125   5.292   9.162 -1.1928  2.3283 -1.9599
  147SAPE  H16S16235   4.037   5.244   9.014 -0.5926  1.0500  0.0392
  147SAPE  C21716236   4.235   5.165   9.026 -0.3791  0.5504 -0.5230
  147SAPE  H17R16237   4.269   5.262   8.985 -0.6801  0.9544  0.1566
  147SAPE  H17S16238   4.211   5.093   8.945  0.1147 -0.5953  0.3226
  147SAPE  C21816239   4.355   5.118   9.114  0.6158  0.8315  0.0580
  147SAPE  H18R16240   4.318   5.024   9.159  1.2807  1.2208  1.4702
  147SAPE  H18S16241   4.370   5.185   9.202  0.7891  2.6647 -1.2999
  147SAPE  C21916242   4.490   5.098   9.037 -0.7365  0.1074  0.1580
  147SAPE  H19R16243   4.465   5.024   8.959  0.4367  1.8942 -2.0639
  147SAPE  H19S16244   4.576   5.060   9.095 -1.3204 -1.2439  0.1625
  147SAPE  C22016245   4.543   5.221   8.972  0.1709 -0.0096  0.2215
  147SAPE  H20R16246   4.643   5.202   8.929  0.7571  1.0618  1.0652
  147SAPE  H20S16247   4.545   5.295   9.054 -0.3958 -0.1439  0.3649
  147SAPE  H20T16248   4.479   5.258   8.889  0.9338  0.6341 -0.0896
  147SAPE   C3316249   3.356   5.685  10.006  0.2673 -0.4064 -0.3562
  147SAPE   H3X16250   3.449   5.708  10.061 -0.4187  1.8250 -0.0311
  147SAPE   H3Y16251   3.297   5.779   9.995  2.0243  0.7019 -0.5817
  147SAPE   C3416252   3.401   5.625   9.871  0.3807 -0.7905 -0.3514
  147SAPE   H4X16253   3.313   5.616   9.804  0.6229 -1.9236 -0.5308
  147SAPE   H4Y16254   3.443   5.522   9.874  1.4741 -0.4523 -2.3320
  147SAPE   C3516255   3.503   5.715   9.804  0.1770 -0.5790 -0.0639
  147SAPE   H5X16256   3.598   5.721   9.862  0.6497 -1.3433 -0.7245
  147SAPE   H5Y16257   3.460   5.816   9.786 -0.0362 -0.5471  0.6297
  147SAPE   C3616258   3.546   5.660   9.662 -0.5483  0.6123  0.3078
  147SAPE   H6X16259   3.563   5.551   9.667 -3.8051  0.0783  2.0818
  147SAPE   H6Y16260   3.637   5.717   9.632 -0.3317  1.1151  1.8401
  147SAPE   C3716261   3.435   5.685   9.554  0.3275  0.3839 -0.2997
  147SAPE   H7X16262   3.444   5.787   9.512 -0.7018  1.3459  1.6747
  147SAPE   H7Y16263   3.334   5.681   9.601  0.4211 -2.4392 -0.1460
  147SAPE   C3816264   3.434   5.593   9.430  0.2255 -0.8979 -0.2266
  147SAPE   H8X16265   3.449   5.496   9.480  2.8229  0.8009  2.6550
  147SAPE   H8Y16266   3.533   5.610   9.383  2.4641  1.8274  4.6344
  147SAPE   C3916267   3.299   5.605   9.356 -0.0283 -0.5306  0.0492
  147SAPE   H9X16268   3.300   5.710   9.318  0.3877 -1.1268 -1.6638
  147SAPE   H9Y16269   3.206   5.589   9.415 -1.4898  2.4908 -1.2326
  147SAPE  C31016270   3.289   5.518   9.230  0.0549 -0.6493  0.0283
  147SAPE  H10X16271   3.273   5.416   9.271 -0.5556 -0.0407  1.3827
  147SAPE  H10Y16272   3.389   5.527   9.183 -0.3299  2.3430 -0.4186
  147SAPE  C31116273   3.184   5.581   9.135  0.2958 -0.3432 -0.3646
  147SAPE  H11X16274   3.181   5.692   9.131 -1.6532 -0.3726 -1.1682
  147SAPE  H11Y16275   3.089   5.560   9.188  1.0547  1.4515  1.8707
  147SAPE  C31216276   3.184   5.524   8.993  0.1447 -0.1826 -0.9067
  147SAPE  H12X16277   3.147   5.419   8.997 -0.0801 -0.0800  0.2597
  147SAPE  H12Y16278   3.289   5.543   8.966  0.4405  2.0483  1.4661
  147SAPE  C31316279   3.109   5.614   8.897  0.1866 -0.3523 -0.1417
  147SAPE  H13X16280   3.132   5.603   8.789  2.1334  1.6030  0.0146
  147SAPE  H13Y16281   3.144   5.719   8.910 -0.1694 -0.4447  1.9028
  147SAPE  C31416282   2.958   5.603   8.902  0.4907  0.1190 -0.6816
  147SAPE  H14X16283   2.911   5.669   8.826 -1.9252  0.4640  0.9851
  147SAPE  H14Y16284   2.930   5.628   9.007 -1.3397 -0.9371 -0.8768
  147SAPE  C31516285   2.895   5.469   8.852 -1.1665 -0.4397 -0.3094
  147SAPE  H15X16286   2.936   5.377   8.899 -3.5173 -2.1384 -1.3977
  147SAPE  H15Y16287   2.928   5.457   8.746 -1.0103  0.5902 -0.3926
  147SAPE  C31616288   2.748   5.447   8.846  0.4801 -0.3732  0.0704
  147SAPE  H16X16289   2.719   5.431   8.952  0.4270 -0.3174  0.0648
  147SAPE  H16Y16290   2.727   5.354   8.790  0.4342 -0.0046 -0.5394
  147SAPE  C31716291   2.665   5.561   8.781  0.3846  0.0396  1.0990
  147SAPE  H17X16292   2.715   5.598   8.689 -0.2467  0.8947  1.0896
  147SAPE  H17Y16293   2.661   5.640   8.859 -0.4999 -0.7494  1.8730
  147SAPE  C31816294   2.517   5.536   8.754  0.3862  0.0659  0.4382
  147SAPE  H18X16295   2.471   5.459   8.819 -1.0683 -0.8177 -1.5671
  147SAPE  H18Y16296   2.512   5.489   8.654  1.3174 -3.1602  1.7569
  147SAPE  H18Z16297   2.452   5.626   8.756  1.1836  0.6453  1.2599
  148SAPE     N16298   4.668   1.611  10.831  0.2818 -0.4243  0.2556
  148SAPE   HN116299   4.672   1.515  10.872  1.0926 -0.4487  0.1273
  148SAPE   HN216300   4.742   1.669  10.873 -0.3470  0.8377 -0.3331
  148SAPE   HN316301   4.573   1.646  10.855  0.4137 -0.8149  1.4610
  148SAPE   C1216302   4.709   1.611  10.690  0.2328  0.1028  0.1029
  148SAPE  H12A16303   4.632   1.557  10.631  3.2167 -1.2635 -2.8282
  148SAPE  H12B16304   4.806   1.557  10.685  0.4055  0.3813  0.3845
  148SAPE   C1116305   4.724   1.754  10.629 -0.0761 -0.7431  0.4900
  148SAPE  H11A16306   4.623   1.801  10.627 -0.0344 -0.6702 -0.0649
  148SAPE  H11B16307   4.777   1.747  10.531 -0.9976  2.1232 -0.3011
  148SAPE     P16308   4.874   1.961  10.675  0.2112 -0.0051  0.2135
  148SAPE   O1316309   4.806   2.073  10.737  0.2688  0.5353 -0.4245
  148SAPE   O1416310   5.018   1.947  10.701 -0.1006 -0.9659 -0.3335
  148SAPE   O1216311   4.802   1.826  10.724  0.0280  0.2276 -0.3017
  148SAPE   O1116312   4.856   1.965  10.515  0.0704  0.2742  0.4112
  148SAPE    C116313   4.965   1.976  10.429  0.0534  0.6687 -0.4667
  148SAPE    HA16314   5.042   1.898  10.445 -0.6740 -0.2563 -1.3198
  148SAPE    HB16315   4.930   1.952  10.326  1.9375  0.3050 -1.0522
  148SAPE    C216316   5.028   2.115  10.429  0.3036 -0.6632 -0.6826
  148SAPE    HS16317   5.057   2.145  10.532 -1.3777  1.5096 -0.7662
  148SAPE   O2116318   4.920   2.198  10.394  0.5018  0.0920 -0.0584
  148SAPE   C2116319   4.942   2.326  10.405 -0.5550  0.0326 -0.1595
  148SAPE   O2216320   5.041   2.380  10.457  0.1819  0.1321 -0.1326
  148SAPE   C2216321   4.839   2.405  10.328  0.6141 -0.3996 -0.7288
  148SAPE   H2R16322   4.820   2.366  10.225 -0.7752 -0.8191 -0.3286
  148SAPE   H2S16323   4.740   2.403  10.377  0.8494 -0.1790 -0.2410
  148SAPE    C316324   5.159   2.138  10.344 -0.8436  0.2372 -0.0765
  148SAPE    HX16325   5.233   2.069  10.388 -1.0117  0.4049  0.4860
  148SAPE    HY16326   5.216   2.234  10.341 -1.0726  0.3739 -0.1093
  148SAPE   O3116327   5.120   2.110  10.208 -0.1933  0.0705  0.2022
  148SAPE   C3116328   5.161   2.005  10.155  0.7507  0.3345  0.1835
  148SAPE   O3216329   5.213   1.908  10.212 -0.6821 -0.0045 -0.6571
  148SAPE   C3216330   5.145   2.004  10.001  0.4513  1.0014  0.0630
  148SAPE   H2X16331   5.240   2.052   9.968 -0.1277  1.9997 -0.1587
  148SAPE   H2Y16332   5.048   2.051   9.977  0.0476  0.6239  0.8970
  148SAPE   C2316333   4.884   2.557  10.329 -0.0638 -0.9304  0.1997
  148SAPE   H3R16334   4.982   2.567  10.279  0.7052  0.3984  1.8581
  148SAPE   H3S16335   4.889   2.594  10.434  1.4753  1.5689 -0.6671
  148SAPE   C2416336   4.771   2.633  10.256 -0.7423  0.5796  0.1579
  148SAPE   H4R16337   4.678   2.632  10.317 -0.6975  1.0504  0.2362
  148SAPE   H4S16338   4.749   2.579  10.161  0.2858 -2.1730  1.3836
  148SAPE   C2516339   4.802   2.784  10.235  0.7981  0.1173 -0.4663
  148SAPE   H5R16340   4.805   2.847  10.325  2.5472 -0.0989 -0.3386
  148SAPE   C2616341   4.818   2.853  10.120 -0.1306 -0.0902 -0.3512
  148SAPE   H6R16342   4.847   2.959  10.127  0.4814 -0.3246  1.0566
  148SAPE   C2716343   4.809   2.798   9.982 -0.7505 -0.1670  0.5984
  148SAPE   H7R16344   4.718   2.844   9.938 -0.9479 -0.2099  0.9548
  148SAPE   H7S16345   4.794   2.688   9.983  0.2542 -0.3334 -0.6159
  148SAPE   C2816346   4.934   2.832   9.904 -0.2852  0.3343 -0.3955
  148SAPE   H8R16347   5.015   2.873   9.966 -1.4271  1.2394  0.5496
  148SAPE   C2916348   4.940   2.865   9.772  0.8585 -0.4009 -0.0428
  148SAPE   H9R16349   5.034   2.886   9.720  0.1093 -0.9211 -1.6685
  148SAPE  C21016350   4.833   2.854   9.671 -0.2295 -0.4735  0.2967
  148SAPE  H10R16351   4.854   2.909   9.576  2.1898  0.1416  1.1300
  148SAPE  H10S16352   4.744   2.912   9.703 -0.0911  1.2297 -2.0463
  148SAPE  C21116353   4.797   2.711   9.627 -0.4790 -0.3988 -0.3589
  148SAPE  H11R16354   4.823   2.635   9.702 -0.3831 -0.9607 -0.9559
  148SAPE  C21216355   4.736   2.671   9.518  0.3903  0.9917 -0.2628
  148SAPE  H12R16356   4.725   2.563   9.500 -1.2886  1.5647 -3.4527
  148SAPE  C21316357   4.687   2.753   9.403  0.7265 -0.6353 -0.4757
  148SAPE  H13R16358   4.625   2.829   9.455 -0.1120 -0.4884 -1.6524
  148SAPE  H13S16359   4.627   2.689   9.334  0.4421 -0.2540 -0.5856
  148SAPE  C21416360   4.793   2.809   9.310 -0.0488 -0.3903 -0.6542
  148SAPE  H14R16361   4.880   2.745   9.288 -1.5862 -2.1768 -1.9129
  148SAPE  C21516362   4.772   2.920   9.239  0.7054 -0.1266  0.7989
  148SAPE  H15R16363   4.853   2.965   9.179 -0.3357 -1.1006 -1.4507
  148SAPE  C21616364   4.646   3.011   9.223 -0.2981 -0.3209 -0.0945
  148SAPE  H16R16365   4.671   3.115   9.251 -0.9807 -0.1283 -0.1799
  148SAPE  H16S16366   4.572   2.990   9.303 -0.9851 -0.9379 -0.8749
  148SAPE  C21716367   4.573   3.007   9.092 -0.6968 -0.7609 -0.0235
  148SAPE  H17R16368   4.483   3.071   9.103  0.6762  1.1749  0.5127
  148SAPE  H17S16369   4.541   2.906   9.058  2.0383 -1.5738 -0.4141
  148SAPE  C21816370   4.649   3.078   8.978 -0.1534  0.3602  0.2768
  148SAPE  H18R16371   4.746   3.029   8.958  1.1712  1.8366  2.5857
  148SAPE  H18S16372   4.678   3.180   9.009  0.7353  0.6935 -1.5603
  148SAPE  C21916373   4.562   3.071   8.848 -0.1401 -0.1675  0.3589
  148SAPE  H19R16374   4.604   3.142   8.774 -0.6012 -0.7903 -0.5154
  148SAPE  H19S16375   4.460   3.109   8.871 -0.2694 -0.2334 -0.0919
  148SAPE  C22016376   4.559   2.935   8.769 -0.0034  0.3046 -0.4839
  148SAPE  H20R16377   4.661   2.891   8.769 -0.9732 -2.1774  0.8160
  148SAPE  H20S16378   4.511   2.936   8.669 -1.0620  0.0720  0.0062
  148SAPE  H20T16379   4.506   2.859   8.831 -1.6089  1.6638 -0.1140
  148SAPE   C3316380   5.140   1.863   9.929 -0.6592  0.0137 -0.3250
  148SAPE   H3X16381   5.053   1.806   9.968  0.0801 -0.6749  0.3750
  148SAPE   H3Y16382   5.229   1.798   9.947  0.8644  1.3844 -2.4038
  148SAPE   C3416383   5.112   1.884   9.779  0.2985  0.5289  0.1734
  148SAPE   H4X16384   5.022   1.949   9.769 -1.6463 -1.6687  2.1567
  148SAPE   H4Y16385   5.088   1.781   9.743  0.8351  0.9216 -1.3901
  148SAPE   C3516386   5.240   1.929   9.703  0.1627 -0.2252  0.3600
  148SAPE   H5X16387   5.326   1.863   9.728  2.1385  1.7748 -0.8794
  148SAPE   H5Y16388   5.254   2.032   9.741 -0.3196  0.2523 -0.7268
  148SAPE   C3616389   5.215   1.954   9.553 -0.1304  0.7435 -0.2056
  148SAPE   H6X16390   5.122   2.013   9.539  0.8060  1.8229 -2.4546
  148SAPE   H6Y16391   5.195   1.855   9.508 -1.5464  0.1677  1.5848
  148SAPE   C3716392   5.315   2.027   9.477  0.4926 -0.6220 -0.3601
  148SAPE   H7X16393   5.414   1.977   9.485  0.9426  0.5737  2.5594
  148SAPE   H7Y16394   5.330   2.126   9.524 -0.8996 -0.7729  0.4279
  148SAPE   C3816395   5.280   2.063   9.328 -0.3623 -0.0582  0.0856
  148SAPE   H8X16396   5.225   2.159   9.327 -0.4350 -0.0777  0.9612
  148SAPE   H8Y16397   5.221   1.980   9.284 -1.8186  0.9873  0.0270
  148SAPE   C3916398   5.406   2.062   9.242  0.1183 -0.5998  0.0435
  148SAPE   H9X16399   5.449   1.960   9.244  1.9903  0.1605  1.2280
  148SAPE   H9Y16400   5.479   2.138   9.278  0.3280 -0.0332 -1.5041
  148SAPE  C31016401   5.386   2.104   9.095 -0.0943  0.2362  0.2033
  148SAPE  H10X16402   5.478   2.153   9.057 -0.4812 -0.1890 -1.3453
  148SAPE  H10Y16403   5.311   2.187   9.092  0.8373  1.0701 -0.7873
  148SAPE  C31116404   5.341   2.000   8.999  0.4649 -0.2445  0.1568
  148SAPE  H11X16405   5.426   1.929   9.003 -0.7357 -1.7651 -0.2647
  148SAPE  H11Y16406   5.325   2.036   8.896 -3.7999 -1.2237  0.2519
  148SAPE  C31216407   5.214   1.912   9.033  0.3181  0.0850  0.0663
  148SAPE  H12X16408   5.135   1.978   9.076  0.7186  0.9681 -0.5053
  148SAPE  H12Y16409   5.244   1.852   9.121 -1.7594  1.4718  1.7992
  148SAPE  C31316410   5.163   1.831   8.914 -0.1878 -0.4751 -0.7113
  148SAPE  H13X16411   5.140   1.728   8.948  0.9414 -0.5689 -0.1886
  148SAPE  H13Y16412   5.245   1.817   8.840 -1.0482  0.6444 -1.9154
  148SAPE  C31416413   5.059   1.911   8.841  0.6520 -1.2154  0.3634
  148SAPE  H14X16414   5.096   2.006   8.798 -0.6028 -1.0907 -0.5156
  148SAPE  H14Y16415   4.982   1.939   8.916  1.7017  0.4352  0.8699
  148SAPE  C31516416   4.989   1.842   8.730  0.5635 -0.5211 -0.1382
  148SAPE  H15X16417   4.931   1.758   8.773 -3.6387  2.6358  1.0060
  148SAPE  H15Y16418   5.059   1.788   8.663  1.7361  1.5695 -0.6936
  148SAPE  C31616419   4.896   1.935   8.656 -0.4439  0.1021 -0.2740
  148SAPE  H16X16420   4.948   2.031   8.635 -3.1591  1.9351  0.7495
  148SAPE  H16Y16421   4.808   1.953   8.722 -0.2304  0.4537 -0.0871
  148SAPE  C31716422   4.835   1.885   8.523 -0.3804 -0.8787  0.8445
  148SAPE  H17X16423   4.844   1.964   8.445 -1.4925 -1.1138  0.4673
  148SAPE  H17Y16424   4.730   1.867   8.554 -1.1485  0.4641 -0.8168
  148SAPE  C31816425   4.887   1.753   8.457 -0.2226 -0.1380  0.0772
  148SAPE  H18X16426   4.995   1.755   8.430  0.3034 -2.5327  1.6648
  148SAPE  H18Y16427   4.825   1.735   8.367 -0.0228 -2.9942  0.4133
  148SAPE  H18Z16428   4.868   1.670   8.529 -1.0242 -0.5793 -0.6328
  149SAPE     N16429   1.379   3.827  11.000  0.8317 -0.3603  0.0464
  149SAPE   HN116430   1.311   3.754  10.968  0.2284  0.4975 -0.6842
  149SAPE   HN216431   1.442   3.776  11.065  1.4236  0.1183 -0.1366
  149SAPE   HN316432   1.337   3.897  11.064  0.1859  0.9313 -1.7225
  149SAPE   C1216433   1.460   3.889  10.900 -0.6272 -0.2955 -0.1107
  149SAPE  H12A16434   1.512   3.816  10.835  0.7227  0.3013  0.2543
  149SAPE  H12B16435   1.544   3.942  10.952 -0.6573  1.7685 -1.9839
  149SAPE   C1116436   1.384   3.990  10.809  0.8594  0.2025  0.0742
  149SAPE  H11A16437   1.304   3.934  10.754  0.9420 -1.8690  1.9040
  149SAPE  H11B16438   1.447   4.025  10.725 -1.5790  3.4412 -0.6154
  149SAPE     P16439   1.193   4.144  10.920 -0.0747  0.4717  0.0439
  149SAPE   O1316440   1.154   4.040  11.015 -0.2681  0.4160  0.1924
  149SAPE   O1416441   1.206   4.285  10.969 -0.2082 -0.0270  0.0631
  149SAPE   O1216442   1.340   4.110  10.869 -0.1035  0.0326 -0.5883
  149SAPE   O1116443   1.097   4.145  10.801  0.2406  0.3172  1.0451
  149SAPE    C116444   1.140   4.119  10.663 -0.6129  0.6943 -0.4524
  149SAPE    HA16445   1.240   4.165  10.646 -2.3553  5.0651 -0.3228
  149SAPE    HB16446   1.143   4.009  10.652  2.2139  0.7632 -1.0930
  149SAPE    C216447   1.044   4.179  10.558 -0.0226  0.0890  0.4394
  149SAPE    HS16448   0.947   4.127  10.572  0.0876 -0.5534 -1.0112
  149SAPE   O2116449   1.101   4.138  10.438 -0.7070 -0.0601  0.3740
  149SAPE   C2116450   1.008   4.120  10.341  0.1012 -0.2894 -0.5558
  149SAPE   O2216451   0.888   4.117  10.360  0.0637 -0.0295  0.2665
  149SAPE   C2216452   1.076   4.082  10.208 -0.6256 -0.7145 -0.0976
  149SAPE   H2R16453   1.135   4.171  10.177 -2.1081  1.0430  1.8802
  149SAPE   H2S16454   1.151   4.004  10.231 -0.9517 -0.2733  2.7581
  149SAPE    C316455   1.033   4.333  10.568  0.2701 -0.4619  0.8674
  149SAPE    HX16456   1.136   4.370  10.588  0.9395 -0.0252 -2.7947
  149SAPE    HY16457   0.987   4.369  10.663  1.1134  1.9513  0.4448
  149SAPE   O3116458   0.968   4.397  10.455  0.1495 -0.3323  0.0355
  149SAPE   C3116459   0.842   4.411  10.472  0.0067 -0.2873 -0.5082
  149SAPE   O3216460   0.779   4.368  10.568  0.3453 -0.7907  0.1022
  149SAPE   C3216461   0.786   4.475  10.350  0.4022 -0.4502  0.8861
  149SAPE   H2X16462   0.817   4.582  10.348 -1.6603  0.1958  0.8831
  149SAPE   H2Y16463   0.676   4.465  10.360  0.1364 -0.3163 -1.4524
  149SAPE   C2316464   0.964   4.039  10.105 -0.5075  0.0226  0.1346
  149SAPE   H3R16465   0.899   4.129  10.103 -0.2795  0.2233  1.2788
  149SAPE   H3S16466   0.903   3.962  10.157 -1.8146  2.0563  1.7981
  149SAPE   C2416467   1.025   3.987   9.975 -0.9243 -0.2394  0.0047
  149SAPE   H4R16468   1.085   3.899  10.005 -1.4476 -0.6438 -0.1252
  149SAPE   H4S16469   1.084   4.069   9.928 -1.7194  1.2380  1.5040
  149SAPE   C2516470   0.918   3.949   9.880  0.3084 -0.4441 -0.1752
  149SAPE   H5R16471   0.845   3.878   9.922  1.3071 -0.8276  0.9779
  149SAPE   C2616472   0.886   4.001   9.762  0.3809  0.4075  0.5639
  149SAPE   H6R16473   0.802   3.956   9.706  1.6296  0.6016 -1.5735
  149SAPE   C2716474   0.959   4.113   9.701  0.4190  0.8346  0.8702
  149SAPE   H7R16475   1.015   4.169   9.778 -0.6517  0.5449  1.8748
  149SAPE   H7S16476   0.875   4.172   9.657 -1.4230 -2.4530 -0.3455
  149SAPE   C2816477   1.055   4.072   9.593 -0.5433  0.2699  0.2994
  149SAPE   H8R16478   1.162   4.077   9.619 -0.1916  1.6797 -1.1903
  149SAPE   C2916479   1.022   4.031   9.470 -0.3102 -0.0508  0.2829
  149SAPE   H9R16480   1.101   4.021   9.395 -2.8214  1.9942 -2.9386
  149SAPE  C21016481   0.887   4.013   9.411 -0.2847 -0.3796 -0.1887
  149SAPE  H10R16482   0.852   4.101   9.352 -0.9688 -0.0455  0.6950
  149SAPE  H10S16483   0.809   3.995   9.488  0.6075  0.9123  1.0647
  149SAPE  C21116484   0.885   3.889   9.335  0.7231 -0.1214  0.0720
  149SAPE  H11R16485   0.906   3.804   9.401 -1.5636 -1.0085 -0.2467
  149SAPE  C21216486   0.866   3.869   9.208 -0.5342 -0.1819 -0.7516
  149SAPE  H12R16487   0.877   3.766   9.171  3.4478  0.2890 -1.3314
  149SAPE  C21316488   0.834   3.968   9.103  0.2121  0.7120 -0.7239
  149SAPE  H13R16489   0.791   4.061   9.147 -1.7720 -1.4333  2.2671
  149SAPE  H13S16490   0.754   3.919   9.044 -0.1107 -1.1968  1.1826
  149SAPE  C21416491   0.967   3.999   9.032 -0.4758 -0.2790 -0.9824
  149SAPE  H14R16492   1.040   4.060   9.087  0.3524  0.5660 -2.9222
  149SAPE  C21516493   1.009   3.969   8.908 -0.4652 -0.7597  0.4949
  149SAPE  H15R16494   1.106   4.008   8.877 -0.4960  0.3708  1.7425
  149SAPE  C21616495   0.942   3.888   8.803 -0.3449  0.7886  0.5012
  149SAPE  H16R16496   0.832   3.878   8.817 -0.3448 -2.1995 -0.8148
  149SAPE  H16S16497   0.977   3.783   8.795 -0.8777  0.5892  0.7263
  149SAPE  C21716498   0.963   3.951   8.655 -0.0031  0.3951  0.7110
  149SAPE  H17R16499   0.936   4.058   8.650 -1.7516 -0.0592 -2.6189
  149SAPE  H17S16500   0.896   3.884   8.597 -0.4745  0.8695  0.6958
  149SAPE  C21816501   1.101   3.944   8.596 -0.8429  0.0922 -0.4921
  149SAPE  H18R16502   1.146   3.843   8.590  1.1269  0.8459  0.7735
  149SAPE  H18S16503   1.177   3.997   8.657 -0.1636 -0.6311 -0.6940
  149SAPE  C21916504   1.107   3.998   8.451  0.0355  0.2124  0.3453
  149SAPE  H19R16505   1.213   3.985   8.420 -0.2932 -1.4380 -0.1957
  149SAPE  H19S16506   1.081   4.105   8.463 -1.2989 -0.0222 -0.2897
  149SAPE  C22016507   1.026   3.923   8.347 -0.2772 -0.1675  0.7317
  149SAPE  H20R16508   1.035   3.812   8.354 -0.0243 -0.2655 -0.9098
  149SAPE  H20S16509   1.041   3.951   8.241  0.3879 -1.2025  0.5396
  149SAPE  H20T16510   0.918   3.924   8.376 -0.3668 -1.4924  0.5249
  149SAPE   C3316511   0.829   4.408  10.217 -0.3720  0.3853  0.9968
  149SAPE   H3X16512   0.793   4.303  10.213 -0.1792  0.3544 -1.2758
  149SAPE   H3Y16513   0.939   4.400  10.205 -0.7138 -3.0525 -1.0097
  149SAPE   C3416514   0.771   4.487  10.098 -0.0572 -0.1172  0.9681
  149SAPE   H4X16515   0.832   4.579  10.081 -2.0409  1.1567  0.4311
  149SAPE   H4Y16516   0.667   4.515  10.124  0.4030  1.5442  1.1477
  149SAPE   C3516517   0.789   4.411   9.971  0.3669 -0.1437  0.6373
  149SAPE   H5X16518   0.712   4.331   9.975  0.8439 -0.5531  1.7074
  149SAPE   H5Y16519   0.883   4.353   9.970 -0.0731 -0.8692  0.9292
  149SAPE   C3616520   0.763   4.493   9.845  0.5023  0.2329 -0.3129
  149SAPE   H6X16521   0.841   4.572   9.839  0.6199  0.1548  0.1822
  149SAPE   H6Y16522   0.663   4.540   9.842  1.4832  2.4835 -3.1632
  149SAPE   C3716523   0.774   4.407   9.715 -0.1299  0.8579 -0.1691
  149SAPE   H7X16524   0.689   4.335   9.715 -0.7356  1.5613 -0.2780
  149SAPE   H7Y16525   0.876   4.364   9.726 -0.2920  0.7290  1.0270
  149SAPE   C3816526   0.773   4.490   9.585 -0.7266 -0.0330 -0.2811
  149SAPE   H8X16527   0.850   4.571   9.583 -0.8790  0.1336 -2.7535
  149SAPE   H8Y16528   0.670   4.531   9.591 -0.1552  1.5253 -0.5728
  149SAPE   C3916529   0.781   4.400   9.458  0.2609 -0.4725  0.3133
  149SAPE   H9X16530   0.733   4.300   9.452 -2.8768  0.9145  0.5379
  149SAPE   H9Y16531   0.888   4.384   9.432 -0.0315  0.5194 -1.6447
  149SAPE  C31016532   0.731   4.470   9.331 -0.1310  0.5036 -0.0204
  149SAPE  H10X16533   0.779   4.570   9.327 -0.5862  0.9203  2.9750
  149SAPE  H10Y16534   0.623   4.479   9.352 -0.4233  2.7449 -2.0456
  149SAPE  C31116535   0.750   4.383   9.211 -0.3279 -0.4551  0.7627
  149SAPE  H11X16536   0.715   4.278   9.205  0.4274 -0.6476 -3.3934
  149SAPE  H11Y16537   0.859   4.361   9.212 -0.0007  0.9783  2.4954
  149SAPE  C31216538   0.716   4.451   9.078  0.3108  0.4147 -0.4597
  149SAPE  H12X16539   0.764   4.551   9.068  0.5756  0.5287  1.5766
  149SAPE  H12Y16540   0.609   4.477   9.069  0.7065  1.7351 -1.6861
  149SAPE  C31316541   0.754   4.354   8.963 -0.0665 -0.1599  1.1027
  149SAPE  H13X16542   0.706   4.255   8.981 -1.8783  0.8288  2.0696
  149SAPE  H13Y16543   0.864   4.341   8.963 -0.0729 -0.5419 -1.0136
  149SAPE  C31416544   0.715   4.401   8.825 -0.4289 -0.3674 -0.0993
  149SAPE  H14X16545   0.730   4.310   8.763  0.6604  0.3699 -0.9743
  149SAPE  H14Y16546   0.779   4.480   8.780 -0.6880 -0.3106 -0.3697
  149SAPE  C31516547   0.570   4.433   8.792  0.4494  0.5741  0.0365
  149SAPE  H15X16548   0.530   4.527   8.834 -0.8471 -0.6389  1.6543
  149SAPE  H15Y16549   0.511   4.352   8.840  1.1079 -0.2021 -0.4318
  149SAPE  C31616550   0.526   4.424   8.644  0.5761  0.3630 -0.0276
  149SAPE  H16X16551   0.423   4.451   8.611 -0.3116 -3.9450 -1.4839
  149SAPE  H16Y16552   0.531   4.319   8.608 -3.2767  0.4673 -1.3537
  149SAPE  C31716553   0.614   4.514   8.550 -0.1663  0.5790  0.1486
  149SAPE  H17X16554   0.717   4.521   8.593 -0.9546  0.4439  2.1356
  149SAPE  H17Y16555   0.585   4.621   8.560 -0.3646  0.6462 -1.0129
  149SAPE  C31816556   0.608   4.473   8.400  0.7835 -0.3969  0.2195
  149SAPE  H18X16557   0.506   4.479   8.358  0.2112 -0.8999  1.4625
  149SAPE  H18Y16558   0.635   4.366   8.389 -1.4612 -0.8802 -1.2444
  149SAPE  H18Z16559   0.677   4.541   8.345  1.5083 -1.9463 -0.8461
  150SAPE     N16560   2.788   2.267  10.746 -0.1968 -0.0182  0.8114
  150SAPE   HN116561   2.872   2.233  10.798  0.8337  0.3019 -0.5791
  150SAPE   HN216562   2.733   2.324  10.813 -0.4727 -1.3906  1.8118
  150SAPE   HN316563   2.732   2.185  10.715 -0.9188  1.0473 -0.8644
  150SAPE   C1216564   2.830   2.325  10.614  0.1674 -0.1385 -0.2670
  150SAPE  H12A16565   2.736   2.373  10.578 -1.0068 -1.2764  1.1563
  150SAPE  H12B16566   2.873   2.247  10.548  0.8086 -0.6584  0.7470
  150SAPE   C1116567   2.927   2.437  10.641 -0.2233 -0.4645 -0.4465
  150SAPE  H11A16568   2.936   2.493  10.545 -0.3822  0.2989 -0.0266
  150SAPE  H11B16569   3.032   2.411  10.667 -0.6174 -0.3485  1.3726
  150SAPE     P16570   2.811   2.663  10.717 -0.4823  0.4797  0.0701
  150SAPE   O1316571   2.672   2.639  10.662  0.2870  0.0736 -0.0704
  150SAPE   O1416572   2.825   2.744  10.837  0.3226  0.0927  0.0856
  150SAPE   O1216573   2.871   2.516  10.744 -0.0757 -0.4037  0.9120
  150SAPE   O1116574   2.908   2.709  10.599 -1.0647 -0.0547  0.2791
  150SAPE    C116575   2.909   2.828  10.529 -0.0244 -0.3740  0.0117
  150SAPE    HA16576   2.864   2.909  10.589 -1.7311 -0.0411 -1.5969
  150SAPE    HB16577   3.012   2.856  10.499  0.0891  1.6629  2.0909
  150SAPE    C216578   2.819   2.829  10.403  0.0036 -0.0418  1.1615
  150SAPE    HS16579   2.715   2.797  10.425  0.7453 -2.1221  1.8071
  150SAPE   O2116580   2.875   2.754  10.292  0.6626 -0.2363 -0.0782
  150SAPE   C2116581   2.831   2.630  10.284  0.7731 -0.3368 -0.4006
  150SAPE   O2216582   2.754   2.571  10.358 -0.4101 -0.0357  0.1226
  150SAPE   C2216583   2.908   2.563  10.161  0.5938  0.1714  0.6403
  150SAPE   H2R16584   3.012   2.549  10.196  0.7019 -1.4374 -0.2351
  150SAPE   H2S16585   2.860   2.465  10.141  0.9223  0.3178 -1.0460
  150SAPE    C316586   2.817   2.976  10.348 -0.3572  0.0668 -0.5388
  150SAPE    HX16587   2.917   3.019  10.368 -0.5655  0.0248  0.6615
  150SAPE    HY16588   2.751   3.040  10.411 -0.6443  0.3024 -1.0735
  150SAPE   O3116589   2.782   2.971  10.211 -0.0984  0.1060  0.7404
  150SAPE   C3116590   2.669   3.037  10.167  0.3669  0.2505 -0.4245
  150SAPE   O3216591   2.595   3.100  10.240  0.1441 -0.1117  0.5142
  150SAPE   C3216592   2.668   3.033  10.009 -0.8590  0.1877  0.1309
  150SAPE   H2X16593   2.668   2.925   9.981  2.7371  0.0936  0.0417
  150SAPE   H2Y16594   2.769   3.069   9.979  0.2751 -1.3425  1.8721
  150SAPE   C2316595   2.914   2.634  10.026 -0.2388  0.2619 -0.1505
  150SAPE   H3R16596   3.012   2.686  10.022 -1.1208  1.9832 -3.2898
  150SAPE   H3S16597   2.830   2.707  10.023 -1.4963 -1.0998  0.8871
  150SAPE   C2416598   2.902   2.536   9.905 -0.4731  0.4374 -0.3231
  150SAPE   H4R16599   2.919   2.595   9.812 -0.4662  0.4720 -0.2995
  150SAPE   H4S16600   2.798   2.498   9.905  0.1048 -1.3935  1.9425
  150SAPE   C2516601   2.989   2.415   9.922  0.0080 -0.9995  0.5711
  150SAPE   H5R16602   2.933   2.323   9.946  0.7996 -0.9933  2.6690
  150SAPE   C2616603   3.123   2.418   9.922  0.9813 -0.8663 -0.3750
  150SAPE   H6R16604   3.170   2.322   9.946 -1.7428 -2.6148 -1.5185
  150SAPE   C2716605   3.218   2.537   9.903 -0.5114 -0.6080  0.5516
  150SAPE   H7R16606   3.166   2.624   9.857 -1.9408 -0.4406  2.3531
  150SAPE   H7S16607   3.289   2.488   9.834 -0.8765 -0.6630  0.2121
  150SAPE   C2816608   3.294   2.571  10.028  0.3435  0.0978 -0.0083
  150SAPE   H8R16609   3.255   2.536  10.125  1.4891 -2.9036 -0.5251
  150SAPE   C2916610   3.417   2.615  10.046  0.4097 -0.2560  0.4288
  150SAPE   H9R16611   3.453   2.648  10.145 -0.5332  0.1959  0.6374
  150SAPE  C21016612   3.508   2.665   9.932  1.0137  0.3714 -0.2361
  150SAPE  H10R16613   3.469   2.625   9.836  2.3390  0.1617 -0.7052
  150SAPE  H10S16614   3.605   2.612   9.946 -0.8622 -3.1552  0.7913
  150SAPE  C21116615   3.514   2.812   9.932  0.3021 -0.2611 -0.2169
  150SAPE  H11R16616   3.523   2.859  10.031 -0.2478 -0.8285  0.1096
  150SAPE  C21216617   3.494   2.891   9.821  0.0613  0.1686  0.6499
  150SAPE  H12R16618   3.489   3.001   9.826  0.3663  0.1987  0.3427
  150SAPE  C21316619   3.462   2.834   9.678  0.0283 -0.6683  0.1581
  150SAPE  H13R16620   3.352   2.828   9.662 -0.0329 -1.4096  0.7921
  150SAPE  H13S16621   3.496   2.730   9.658  2.4797  0.2984 -1.0552
  150SAPE  C21416622   3.521   2.913   9.566 -0.0584  0.3277  1.1056
  150SAPE  H14R16623   3.614   2.968   9.587  0.9167 -0.9121  0.1958
  150SAPE  C21516624   3.480   2.900   9.437 -0.3389  0.7980 -0.0324
  150SAPE  H15R16625   3.542   2.946   9.359 -0.5765  2.9308  0.9540
  150SAPE  C21616626   3.373   2.810   9.389 -0.0815  0.2376  0.4139
  150SAPE  H16R16627   3.294   2.801   9.466  0.5166 -0.7332  0.9470
  150SAPE  H16S16628   3.411   2.709   9.361 -1.7338  0.1822 -1.8236
  150SAPE  C21716629   3.319   2.873   9.255  0.7290 -0.0418  0.0594
  150SAPE  H17R16630   3.294   2.980   9.265 -0.3811 -0.0534 -2.0586
  150SAPE  H17S16631   3.233   2.810   9.224  1.1989 -1.7892  2.0739
  150SAPE  C21816632   3.409   2.845   9.134  0.9477 -0.0949 -0.5602
  150SAPE  H18R16633   3.449   2.744   9.158 -2.0456 -1.2970 -0.2766
  150SAPE  H18S16634   3.494   2.917   9.131  3.8540 -3.2161 -0.1707
  150SAPE  C21916635   3.341   2.847   9.002 -0.2898 -0.4165  0.0649
  150SAPE  H19R16636   3.262   2.771   9.017 -0.2933 -0.6846 -1.1785
  150SAPE  H19S16637   3.412   2.819   8.921  0.7277 -0.7287  1.0402
  150SAPE  C22016638   3.290   2.976   8.953  1.1115 -0.3980  0.0102
  150SAPE  H20R16639   3.365   3.058   8.950  1.4592 -0.7238 -0.3530
  150SAPE  H20S16640   3.201   3.007   9.012  2.0049 -0.8831  1.7034
  150SAPE  H20T16641   3.256   2.961   8.849 -0.7833  0.3811  0.4707
  150SAPE   C3316642   2.553   3.104   9.936 -0.1311  0.3257 -0.8738
  150SAPE   H3X16643   2.545   3.207   9.976 -2.3781 -0.8497  2.1972
  150SAPE   H3Y16644   2.448   3.070   9.953 -0.6411  0.2421 -3.7776
  150SAPE   C3416645   2.580   3.115   9.788  0.5841  0.6178  0.7711
  150SAPE   H4X16646   2.581   3.013   9.745 -1.7001  0.5445  0.8191
  150SAPE   H4Y16647   2.681   3.159   9.768  1.1264 -0.8970  0.0073
  150SAPE   C3516648   2.478   3.186   9.699  0.2557  0.5899  0.0618
  150SAPE   H5X16649   2.450   3.288   9.732 -1.3452  0.2614 -0.1839
  150SAPE   H5Y16650   2.386   3.123   9.693  0.7831 -0.3845  1.5516
  150SAPE   C3616651   2.547   3.207   9.561  0.1927  0.1962  0.4023
  150SAPE   H6X16652   2.606   3.116   9.536 -0.5615 -0.1721 -0.0773
  150SAPE   H6Y16653   2.619   3.292   9.572  1.4455 -0.4542 -1.9258
  150SAPE   C3716654   2.437   3.238   9.455  0.0797  0.2796  0.3313
  150SAPE   H7X16655   2.387   3.335   9.477  0.9773  0.7910  0.1994
  150SAPE   H7Y16656   2.360   3.159   9.441 -0.3191  1.0258 -2.1579
  150SAPE   C3816657   2.507   3.257   9.324  0.2094 -0.4339 -0.0129
  150SAPE   H8X16658   2.517   3.152   9.289  1.3550 -0.6831  0.9623
  150SAPE   H8Y16659   2.610   3.298   9.337 -0.7779  3.1991 -2.2068
  150SAPE   C3916660   2.431   3.327   9.211  0.8527 -1.3397 -0.0436
  150SAPE   H9X16661   2.429   3.434   9.242  2.5752 -1.2998  0.0260
  150SAPE   H9Y16662   2.328   3.285   9.201  0.1289  0.4460 -0.3592
  150SAPE  C31016663   2.512   3.312   9.076 -0.6939 -1.4579 -0.2430
  150SAPE  H10X16664   2.522   3.202   9.062  2.1454 -1.2255 -0.5458
  150SAPE  H10Y16665   2.610   3.362   9.092 -0.7248 -0.6398 -2.3088
  150SAPE  C31116666   2.449   3.377   8.955 -0.4609 -0.4637 -0.7488
  150SAPE  H11X16667   2.456   3.486   8.975 -1.6781 -0.2401 -1.4243
  150SAPE  H11Y16668   2.341   3.352   8.961 -1.2112  2.3660 -1.2644
  150SAPE  C31216669   2.519   3.356   8.817 -0.4823 -0.2585  1.1579
  150SAPE  H12X16670   2.616   3.409   8.827  0.5290 -1.6007 -0.7661
  150SAPE  H12Y16671   2.452   3.411   8.748 -0.4622  1.1226  2.2080
  150SAPE  C31316672   2.535   3.209   8.771  0.0516 -0.5563  0.6893
  150SAPE  H13X16673   2.438   3.159   8.789 -1.3024  0.9213 -1.8677
  150SAPE  H13Y16674   2.615   3.161   8.830  1.9192  1.1788 -0.2956
  150SAPE  C31416675   2.576   3.226   8.622  0.1777 -0.7465 -0.1251
  150SAPE  H14X16676   2.678   3.269   8.611  0.5877 -1.7734 -0.3845
  150SAPE  H14Y16677   2.509   3.296   8.567 -0.0171 -1.3428 -0.6581
  150SAPE  C31516678   2.568   3.096   8.551 -0.1860  0.0137  0.8090
  150SAPE  H15X16679   2.645   3.034   8.603 -0.2379  1.2827  2.4855
  150SAPE  H15Y16680   2.607   3.110   8.448  1.8043  0.1088  1.5136
  150SAPE  C31616681   2.431   3.024   8.538 -0.7681  0.4434 -0.0629
  150SAPE  H16X16682   2.362   3.082   8.472  0.7964  0.4867 -1.7224
  150SAPE  H16Y16683   2.400   3.011   8.644 -1.4525 -1.1129 -0.4160
  150SAPE  C31716684   2.462   2.887   8.465  0.3851  0.1096  0.3677
  150SAPE  H17X16685   2.515   2.820   8.536 -1.6874  0.0237  1.9527
  150SAPE  H17Y16686   2.528   2.914   8.380 -0.7497  1.9914  0.0442
  150SAPE  C31816687   2.337   2.811   8.425  0.6244  0.0574  0.6355
  150SAPE  H18X16688   2.277   2.869   8.351  3.6230  0.9100 -1.3158
  150SAPE  H18Y16689   2.266   2.809   8.511  2.2233 -1.7525  1.9967
  150SAPE  H18Z16690   2.364   2.713   8.381 -0.5643  1.0670 -2.7067
  151SAPE     N16691   1.588   1.391  10.948 -0.4246 -0.4413 -0.2004
  151SAPE   HN116692   1.564   1.304  10.896  2.3679 -1.3155 -0.2371
  151SAPE   HN216693   1.645   1.433  10.871  0.4120 -1.1191  0.0290
  151SAPE   HN316694   1.656   1.383  11.027 -1.2198  0.2946  0.5730
  151SAPE   C1216695   1.458   1.469  10.981 -0.0941  0.7209  0.3094
  151SAPE  H12A16696   1.480   1.557  11.045  1.2518 -0.0502  0.9386
  151SAPE  H12B16697   1.403   1.401  11.049  0.6408 -1.1711 -0.8924
  151SAPE   C1116698   1.386   1.495  10.847 -0.1456 -0.5427 -0.5718
  151SAPE  H11A16699   1.288   1.537  10.877  0.2522  0.4821 -0.6834
  151SAPE  H11B16700   1.370   1.395  10.801  1.1524 -0.4115 -1.3470
  151SAPE     P16701   1.396   1.621  10.625 -0.0121  0.1333 -0.2700
  151SAPE   O1316702   1.304   1.739  10.639  0.6352 -0.3321  0.1293
  151SAPE   O1416703   1.490   1.631  10.513 -0.3446  0.4523 -0.1821
  151SAPE   O1216704   1.466   1.583  10.762 -0.3480  0.8652  0.6830
  151SAPE   O1116705   1.299   1.501  10.601 -0.2394  0.1970  0.0102
  151SAPE    C116706   1.329   1.376  10.537 -1.0686  0.3617 -0.0634
  151SAPE    HA16707   1.439   1.364  10.523 -1.2084 -0.8378 -0.1607
  151SAPE    HB16708   1.294   1.293  10.602  1.6468 -0.5411  0.4054
  151SAPE    C216709   1.264   1.364  10.400  0.3767  0.1784 -0.0937
  151SAPE    HS16710   1.263   1.256  10.374  2.1149  0.2264 -0.4842
  151SAPE   O2116711   1.342   1.425  10.304 -0.2160 -0.5515  0.1590
  151SAPE   C2116712   1.452   1.359  10.258 -0.3242  0.0239  0.5029
  151SAPE   O2216713   1.486   1.257  10.303 -0.1430  0.2123  0.0310
  151SAPE   C2216714   1.511   1.422  10.133 -0.6097 -0.1203  0.7204
  151SAPE   H2R16715   1.620   1.404  10.143 -0.5339  0.0491  0.2357
  151SAPE   H2S16716   1.474   1.365  10.046 -0.0560 -1.2623  1.2165
  151SAPE    C316717   1.117   1.414  10.396  0.1740  0.3747  0.0263
  151SAPE    HX16718   1.112   1.525  10.394 -1.5524  0.3249 -0.3936
  151SAPE    HY16719   1.076   1.379  10.494  0.2932 -0.9602 -0.3789
  151SAPE   O3116720   1.056   1.350  10.288 -0.0865 -0.3067  0.5683
  151SAPE   C3116721   0.985   1.242  10.307 -0.2305  0.0234 -0.1624
  151SAPE   O3216722   0.965   1.190  10.416  0.0626 -0.3490  0.0864
  151SAPE   C3216723   0.937   1.186  10.170  0.6074  0.0848  0.4642
  151SAPE   H2X16724   1.023   1.173  10.100  0.7177 -0.7131  0.7430
  151SAPE   H2Y16725   0.866   1.265  10.139  0.1024 -0.5892 -0.1249
  151SAPE   C2316726   1.452   1.573  10.117 -0.2471 -0.3356  0.4118
  151SAPE   H3R16727   1.519   1.625  10.190  2.3531 -2.4766 -0.2672
  151SAPE   H3S16728   1.343   1.588  10.131  0.0817  0.4786  2.5426
  151SAPE   C2416729   1.477   1.634   9.971 -0.4493 -0.4394  0.2674
  151SAPE   H4R16730   1.424   1.732   9.968  2.5530  1.3543  1.1982
  151SAPE   H4S16731   1.425   1.572   9.895 -1.2949  0.5579  0.0117
  151SAPE   C2516732   1.621   1.640   9.936 -0.0690 -0.0891  0.2509
  151SAPE   H5R16733   1.689   1.617  10.019 -0.0770 -0.0499  0.2681
  151SAPE   C2616734   1.669   1.660   9.808  0.0666 -0.5399 -0.5952
  151SAPE   H6R16735   1.777   1.650   9.790  0.2255 -1.1896  0.5761
  151SAPE   C2716736   1.575   1.678   9.689  0.3614  0.3332 -0.3765
  151SAPE   H7R16737   1.498   1.756   9.706  0.7584  0.7390 -0.4401
  151SAPE   H7S16738   1.509   1.589   9.682  0.0469  0.6237 -1.3086
  151SAPE   C2816739   1.639   1.706   9.561 -0.1744 -0.5174  0.4158
  151SAPE   H8R16740   1.748   1.718   9.558  0.2308 -3.2568 -3.3880
  151SAPE   C2916741   1.565   1.727   9.451 -0.0420 -0.5402  0.8549
  151SAPE   H9R16742   1.620   1.741   9.356 -0.6534 -0.6301  0.4850
  151SAPE  C21016743   1.413   1.720   9.444 -0.1730  0.2731 -0.4080
  151SAPE  H10R16744   1.369   1.686   9.541  1.5566 -0.6543  0.0879
  151SAPE  H10S16745   1.385   1.644   9.368 -2.5038  1.6218 -0.9891
  151SAPE  C21116746   1.363   1.851   9.411  0.1256 -0.3246  0.3088
  151SAPE  H11R16747   1.395   1.929   9.482  1.0474 -1.9337  1.7409
  151SAPE  C21216748   1.299   1.887   9.295 -0.2640  0.1496  0.0202
  151SAPE  H12R16749   1.287   1.994   9.273  0.8153 -0.0453 -1.7246
  151SAPE  C21316750   1.272   1.796   9.172 -0.4302  0.1886  0.3174
  151SAPE  H13R16751   1.362   1.733   9.163 -0.7929 -0.3100  0.1373
  151SAPE  H13S16752   1.261   1.860   9.081 -2.5587  0.7805  0.9302
  151SAPE  C21416753   1.154   1.700   9.202 -0.2306 -0.4390  0.7238
  151SAPE  H14R16754   1.176   1.623   9.278  0.9407 -1.6007 -0.7348
  151SAPE  C21516755   1.032   1.712   9.153  0.5435 -0.1866 -1.0510
  151SAPE  H15R16756   0.956   1.637   9.178  0.1878  0.4615 -0.1480
  151SAPE  C21616757   0.977   1.817   9.056  0.2806 -0.5239  0.2390
  151SAPE  H16R16758   1.047   1.898   9.024 -2.4579  2.3873  1.0473
  151SAPE  H16S16759   0.891   1.870   9.102  1.5640  0.6692  1.3678
  151SAPE  C21716760   0.945   1.736   8.932  0.0133  0.1386 -0.1803
  151SAPE  H17R16761   0.893   1.808   8.866  0.8012 -0.4484 -1.4812
  151SAPE  H17S16762   0.874   1.654   8.961  2.4992 -1.3276  2.2189
  151SAPE  C21816763   1.068   1.682   8.857 -0.3855  0.3850 -0.5674
  151SAPE  H18R16764   1.036   1.620   8.770 -1.5050  0.2671 -0.0951
  151SAPE  H18S16765   1.118   1.609   8.925 -1.1011  0.4361  0.0342
  151SAPE  C21916766   1.156   1.794   8.801 -0.4220  0.8799  0.0476
  151SAPE  H19R16767   1.237   1.826   8.870  0.2777  0.3081 -0.4948
  151SAPE  H19S16768   1.101   1.890   8.790 -0.5892  0.8164  0.2983
  151SAPE  C22016769   1.223   1.762   8.669 -0.3253  0.2894 -0.2972
  151SAPE  H20R16770   1.298   1.842   8.648  0.6055 -0.7236 -0.9606
  151SAPE  H20S16771   1.150   1.758   8.586 -0.9351  2.2020  0.1063
  151SAPE  H20T16772   1.279   1.665   8.671 -3.2260 -1.5048 -0.7335
  151SAPE   C3316773   0.857   1.054  10.167  0.0621 -0.3477 -0.1588
  151SAPE   H3X16774   0.760   1.089  10.207  0.1649  1.3655 -1.2801
  151SAPE   H3Y16775   0.914   0.988  10.235  1.1035 -0.7672 -1.3861
  151SAPE   C3416776   0.840   0.991  10.030 -0.0885 -0.4726  0.9481
  151SAPE   H4X16777   0.783   0.896  10.039  0.5093 -1.0715 -0.9603
  151SAPE   H4Y16778   0.928   0.942   9.984 -1.8543 -2.7357 -0.2694
  151SAPE   C3516779   0.758   1.078   9.929 -0.0294 -0.1032 -0.3077
  151SAPE   H5X16780   0.815   1.173   9.918  0.8379 -0.1749  2.6706
  151SAPE   H5Y16781   0.661   1.108   9.973  0.9307  2.1445  0.4321
  151SAPE   C3616782   0.725   1.015   9.800 -0.1913 -0.3279  0.1322
  151SAPE   H6X16783   0.659   1.082   9.742  0.7948 -0.1958 -0.8680
  151SAPE   H6Y16784   0.665   0.924   9.821 -0.3656 -0.4414 -0.8114
  151SAPE   C3716785   0.834   0.962   9.706 -0.2874  0.4220 -0.6213
  151SAPE   H7X16786   0.861   0.861   9.743 -0.5487  0.2821 -0.8126
  151SAPE   H7Y16787   0.920   1.032   9.708 -0.1164  0.2229 -0.9351
  151SAPE   C3816788   0.782   0.961   9.568 -0.6243 -0.2154  0.4847
  151SAPE   H8X16789   0.734   1.056   9.535  0.4691  0.8509  1.8463
  151SAPE   H8Y16790   0.698   0.891   9.552 -1.9915  1.4354  0.1038
  151SAPE   C3916791   0.884   0.916   9.470 -0.1697  0.4310 -0.2139
  151SAPE   H9X16792   0.938   0.830   9.514  0.2023  1.2944  1.0640
  151SAPE   H9Y16793   0.960   0.996   9.458 -1.0315  1.1288 -1.3604
  151SAPE  C31016794   0.823   0.880   9.331  0.6490 -0.1645 -0.6655
  151SAPE  H10X16795   0.789   0.977   9.289  1.0646  0.9827  1.5128
  151SAPE  H10Y16796   0.734   0.815   9.343  0.7698 -0.1932  0.1265
  151SAPE  C31116797   0.931   0.805   9.254 -0.2931  0.7326  0.0548
  151SAPE  H11X16798   0.947   0.713   9.315 -0.6169  0.2664 -0.5481
  151SAPE  H11Y16799   1.025   0.862   9.267 -0.4066  0.5006  2.3423
  151SAPE  C31216800   0.888   0.776   9.108 -0.2348  0.2232 -0.3827
  151SAPE  H12X16801   0.859   0.868   9.053  0.4039  1.2962  1.0144
  151SAPE  H12Y16802   0.798   0.711   9.110  0.5117 -0.8257  1.0414
  151SAPE  C31316803   1.002   0.709   9.037  0.5800 -0.6440  0.6076
  151SAPE  H13X16804   1.041   0.626   9.100 -0.0957 -2.3497 -1.1150
  151SAPE  H13Y16805   1.087   0.779   9.023 -1.2120  1.7145  0.9400
  151SAPE  C31416806   0.951   0.653   8.910 -0.1877  0.5579 -0.0684
  151SAPE  H14X16807   0.929   0.727   8.830 -0.5590  0.1127 -0.3855
  151SAPE  H14Y16808   0.859   0.595   8.935  1.7164 -1.2766  3.3663
  151SAPE  C31516809   1.042   0.555   8.836 -0.5305  0.3987  0.1134
  151SAPE  H15X16810   0.979   0.537   8.746 -0.4960  5.1346 -1.1374
  151SAPE  H15Y16811   1.059   0.466   8.899 -1.8399  0.1160  0.1125
  151SAPE  C31616812   1.175   0.616   8.792 -0.3603  1.2402 -0.0726
  151SAPE  H16X16813   1.232   0.524   8.768  0.6275  1.6308  0.6839
  151SAPE  H16Y16814   1.236   0.661   8.874  1.7994  0.3936 -1.1539
  151SAPE  C31716815   1.169   0.712   8.677 -0.5233 -0.4636  0.1643
  151SAPE  H17X16816   1.098   0.796   8.690 -0.0642  0.1518 -1.1908
  151SAPE  H17Y16817   1.147   0.661   8.581 -0.9882 -2.8856  1.4753
  151SAPE  C31816818   1.313   0.775   8.657 -0.1895  0.2348  0.2698
  151SAPE  H18X16819   1.392   0.698   8.643 -1.8659 -1.7682  1.3396
  151SAPE  H18Y16820   1.335   0.820   8.756 -0.8839 -2.8174  1.9350
  151SAPE  H18Z16821   1.333   0.850   8.577  2.1159 -0.4163  0.1538
  152SAPE     N16822   6.740   0.224  10.588  0.3159  0.3398  0.6219
  152SAPE   HN116823   6.645   0.183  10.598  0.2021  0.8257  1.5954
  152SAPE   HN216824   6.724   0.323  10.613  0.2400  0.8614 -1.2911
  152SAPE   HN316825   6.758   0.229  10.485 -0.7365  4.0912  0.4774
  152SAPE   C1216826   6.838   0.155  10.678  0.2828  0.5210  0.4717
  152SAPE  H12A16827   6.869   0.057  10.635  0.5802  0.8820 -0.1502
  152SAPE  H12B16828   6.796   0.149  10.781 -1.4744  1.2152 -0.1685
  152SAPE   C1116829   6.965   0.243  10.682  0.4169  0.2318 -0.0118
  152SAPE  H11A16830   7.015   0.234  10.584 -0.9827 -0.1535 -0.7117
  152SAPE  H11B16831   7.025   0.219  10.772 -0.3847  3.5707  1.5836
  152SAPE     P16832   7.032   0.490  10.731  0.6317  0.2583  0.2884
  152SAPE   O1316833   6.972   0.606  10.797  0.4480  0.7018  0.8200
  152SAPE   O1416834   7.147   0.431  10.802 -0.0733 -0.4285 -0.0791
  152SAPE   O1216835   6.919   0.377  10.712 -0.1346 -0.0593  0.3107
  152SAPE   O1116836   7.079   0.528  10.584 -0.8740  0.5073 -0.1646
  152SAPE    C116837   6.986   0.606  10.503 -0.3293 -0.6046 -0.7229
  152SAPE    HA16838   6.883   0.600  10.544 -0.0121 -1.6127 -0.0402
  152SAPE    HB16839   7.019   0.712  10.492 -0.9542 -0.5381 -2.0656
  152SAPE    C216840   6.987   0.551  10.365  0.2025 -0.1459 -0.1626
  152SAPE    HS16841   6.952   0.446  10.367  0.6317 -0.3618 -2.0875
  152SAPE   O2116842   7.113   0.574  10.303 -0.2017  0.9290  0.2599
  152SAPE   C2116843   7.173   0.473  10.245 -0.7122  0.6613  0.1426
  152SAPE   O2216844   7.134   0.362  10.222  0.4618 -0.1469  0.9146
  152SAPE   C2216845   7.306   0.519  10.205  0.1777  0.7924 -0.3672
  152SAPE   H2R16846   7.337   0.600  10.275 -0.5654  1.8979 -1.2875
  152SAPE   H2S16847   7.379   0.435  10.212  1.6029  1.8880 -1.4584
  152SAPE    C316848   6.869   0.615  10.273 -0.0732 -0.1905 -0.1792
  152SAPE    HX16849   6.858   0.725  10.276  1.0152  0.0395 -2.4528
  152SAPE    HY16850   6.771   0.572  10.303 -0.6862 -0.5640 -2.4804
  152SAPE   O3116851   6.903   0.596  10.135  0.0986 -0.0554  0.1832
  152SAPE   C3116852   6.852   0.494  10.073 -0.5830  0.9078 -0.7093
  152SAPE   O3216853   6.789   0.403  10.127 -0.4733 -0.0648  0.1291
  152SAPE   C3216854   6.889   0.516   9.928 -0.9003 -0.8692  0.4628
  152SAPE   H2X16855   6.985   0.569   9.915 -1.7279  0.0714 -2.5214
  152SAPE   H2Y16856   6.815   0.582   9.878 -0.3536  0.2004  1.0348
  152SAPE   C2316857   7.312   0.579  10.065  0.2724 -0.3771 -0.4548
  152SAPE   H3R16858   7.259   0.677  10.071  0.7421 -0.2053  1.7568
  152SAPE   H3S16859   7.247   0.516  10.002 -1.2452  0.0507  0.6135
  152SAPE   C2416860   7.451   0.592  10.006 -0.1981 -0.3723 -0.4691
  152SAPE   H4R16861   7.502   0.666  10.071 -0.1519 -1.0669  0.3204
  152SAPE   H4S16862   7.449   0.638   9.905  1.6104  1.6225  0.3154
  152SAPE   C2516863   7.526   0.462   9.994  0.6003 -0.2821 -0.0539
  152SAPE   H5R16864   7.547   0.417  10.092  0.9303 -1.5749 -0.6869
  152SAPE   C2616865   7.540   0.386   9.891 -0.4728 -0.2006  0.7070
  152SAPE   H6R16866   7.601   0.295   9.905 -1.9863 -1.5629 -0.9469
  152SAPE   C2716867   7.492   0.417   9.750 -0.3061  0.0872 -1.1211
  152SAPE   H7R16868   7.394   0.468   9.761  0.1003  0.4848  1.0740
  152SAPE   H7S16869   7.470   0.321   9.699  1.0398 -1.5791  1.2527
  152SAPE   C2816870   7.578   0.504   9.671  0.1567  0.0205  0.6121
  152SAPE   H8R16871   7.645   0.570   9.729 -1.0603 -0.5425  2.7923
  152SAPE   C2916872   7.587   0.512   9.538  0.4786  0.4291 -0.2582
  152SAPE   H9R16873   7.651   0.591   9.497  1.1021 -0.5135 -1.1545
  152SAPE  C21016874   7.511   0.431   9.431  0.2865  0.0352  0.6233
  152SAPE  H10R16875   7.502   0.496   9.342 -0.6933  0.7405  1.2231
  152SAPE  H10S16876   7.407   0.410   9.462 -0.2747  0.8646 -0.6278
  152SAPE  C21116877   7.583   0.304   9.395 -0.0981  0.0116 -0.4305
  152SAPE  H11R16878   7.637   0.253   9.476  2.4514 -2.6319 -3.4923
  152SAPE  C21216879   7.595   0.245   9.275  0.6105 -0.4386 -0.7116
  152SAPE  H12R16880   7.656   0.153   9.274 -1.6573 -2.0163 -0.3784
  152SAPE  C21316881   7.529   0.290   9.151 -0.2055 -0.4722  0.0123
  152SAPE  H13R16882   7.557   0.397   9.137  0.1341 -0.3687  1.3667
  152SAPE  H13S16883   7.419   0.288   9.139 -0.3123  3.3774 -1.0531
  152SAPE  C21416884   7.594   0.217   9.027  0.0289  0.2730 -0.3428
  152SAPE  H14R16885   7.647   0.123   9.047 -0.3324 -0.0994 -1.0688
  152SAPE  C21516886   7.589   0.243   8.897  0.3883  0.3298  0.6435
  152SAPE  H15R16887   7.647   0.183   8.824  0.3814  1.8847 -0.6930
  152SAPE  C21616888   7.514   0.361   8.846  0.1664 -0.4631  0.2170
  152SAPE  H16R16889   7.583   0.430   8.792 -0.9071  1.6984  1.4629
  152SAPE  H16S16890   7.476   0.421   8.932 -0.5569 -2.1306  1.1153
  152SAPE  C21716891   7.388   0.332   8.768  0.2928 -0.4194 -0.2179
  152SAPE  H17R16892   7.416   0.292   8.668 -1.0372  0.1668 -0.8506
  152SAPE  H17S16893   7.331   0.427   8.765  1.0006  0.0484  0.6470
  152SAPE  C21816894   7.298   0.230   8.834  0.1150  0.1323  0.2865
  152SAPE  H18R16895   7.278   0.263   8.939 -3.5503  0.4751 -0.3885
  152SAPE  H18S16896   7.350   0.132   8.824  1.9320  0.6165  3.5318
  152SAPE  C21916897   7.159   0.229   8.775 -0.0134 -0.1699 -0.0027
  152SAPE  H19R16898   7.162   0.239   8.664  1.0930  2.3227  0.1788
  152SAPE  H19S16899   7.108   0.319   8.815 -4.1482 -1.4355 -1.9298
  152SAPE  C22016900   7.069   0.113   8.815  0.6296 -0.0961  0.1029
  152SAPE  H20R16901   7.112   0.017   8.780 -2.1530 -0.7611 -1.7981
  152SAPE  H20S16902   6.965   0.119   8.777  1.3005 -2.2822 -2.3686
  152SAPE  H20T16903   7.059   0.104   8.926  0.4554 -1.4232  0.0009
  152SAPE   C3316904   6.889   0.386   9.844  0.2532 -0.4225  0.6078
  152SAPE   H3X16905   6.903   0.411   9.737  1.6836  1.8027  1.2397
  152SAPE   H3Y16906   6.793   0.333   9.861 -0.7801  1.1189 -0.2102
  152SAPE   C3416907   7.004   0.303   9.889 -0.3125 -0.3990  0.0985
  152SAPE   H4X16908   7.004   0.281   9.998 -0.8317  0.1625  0.2143
  152SAPE   H4Y16909   7.094   0.360   9.857 -1.2884  1.1036 -0.0720
  152SAPE   C3516910   6.988   0.167   9.822 -0.5154 -0.2304 -0.0729
  152SAPE   H5X16911   6.886   0.126   9.838  0.0901 -0.9093  2.4013
  152SAPE   H5Y16912   7.057   0.101   9.879  1.5388  1.3290 -0.6264
  152SAPE   C3616913   7.027   0.162   9.679  0.4176 -0.7485 -0.1500
  152SAPE   H6X16914   6.956   0.226   9.621  0.6933  0.2286  0.5582
  152SAPE   H6Y16915   7.015   0.056   9.649  1.1146 -1.1339  0.9021
  152SAPE   C3716916   7.161   0.218   9.637  0.4195 -0.5373 -0.3769
  152SAPE   H7X16917   7.238   0.167   9.698  2.9611  0.4116 -2.5659
  152SAPE   H7Y16918   7.169   0.326   9.662 -0.3423 -0.6326  0.3047
  152SAPE   C3816919   7.186   0.195   9.486 -0.2271  0.3265  0.2921
  152SAPE   H8X16920   7.278   0.249   9.455  1.7828 -2.1332  1.6406
  152SAPE   H8Y16921   7.097   0.234   9.431 -1.5813 -1.6626  0.9684
  152SAPE   C3916922   7.206   0.049   9.453  0.1163 -0.0925  0.0439
  152SAPE   H9X16923   7.118  -0.011   9.485 -0.1816  1.0531  1.4933
  152SAPE   H9Y16924   7.286   0.012   9.520 -0.2589 -2.4423 -0.6763
  152SAPE  C31016925   7.266   0.021   9.306  0.1780  0.5524 -1.3113
  152SAPE  H10X16926   7.363   0.074   9.309 -0.4465  1.7235  1.2562
  152SAPE  H10Y16927   7.193   0.075   9.241  0.3922  0.5218 -1.5760
  152SAPE  C31116928   7.258  -0.125   9.257 -0.0147 -0.5293 -0.1646
  152SAPE  H11X16929   7.149  -0.140   9.246 -0.3116  1.5544 -0.4546
  152SAPE  H11Y16930   7.307  -0.205   9.317 -0.8445 -0.0600  1.1712
  152SAPE  C31216931   7.332  -0.141   9.121  0.8707 -1.1517  0.7890
  152SAPE  H12X16932   7.431  -0.094   9.137  1.3768 -2.2962  1.1391
  152SAPE  H12Y16933   7.277  -0.086   9.042  2.2470 -2.0641 -0.8685
  152SAPE  C31316934   7.337  -0.291   9.079  0.4717 -0.3052 -0.4039
  152SAPE  H13X16935   7.234  -0.334   9.074 -0.3702  1.6156 -0.3792
  152SAPE  H13Y16936   7.403  -0.343   9.151  0.6179  0.7690  0.2519
  152SAPE  C31416937   7.407  -0.312   8.942  0.2801  0.2058  0.4665
  152SAPE  H14X16938   7.509  -0.270   8.954  0.0011  2.0711 -2.4630
  152SAPE  H14Y16939   7.360  -0.246   8.865  2.2520 -0.5467 -1.4861
  152SAPE  C31516940   7.391  -0.455   8.891  0.0692 -0.2786 -0.6307
  152SAPE  H15X16941   7.290  -0.466   8.848 -0.3508  2.2336 -0.3974
  152SAPE  H15Y16942   7.398  -0.526   8.977 -0.1257 -0.5552 -0.8422
  152SAPE  C31616943   7.493  -0.498   8.786  0.1104  0.1279 -0.0223
  152SAPE  H16X16944   7.599  -0.485   8.818 -0.3039  0.1911  1.3850
  152SAPE  H16Y16945   7.469  -0.425   8.705  2.4838  0.0464 -0.8685
  152SAPE  C31716946   7.461  -0.637   8.729 -0.0904 -0.2080 -0.4444
  152SAPE  H17X16947   7.527  -0.647   8.640  0.0416 -1.4906 -0.2117
  152SAPE  H17Y16948   7.357  -0.635   8.690 -0.3525 -0.6557  0.2342
  152SAPE  C31816949   7.493  -0.760   8.810 -0.1511  0.2715 -0.5788
  152SAPE  H18X16950   7.590  -0.751   8.864 -1.6501  0.8725  2.2082
  152SAPE  H18Y16951   7.488  -0.850   8.744 -1.8496 -0.5292  0.5491
  152SAPE  H18Z16952   7.420  -0.792   8.888 -0.3364  1.3497 -0.2954
  153SAPE     N16953   1.249   6.102  10.499  0.1726 -0.1839 -0.0201
  153SAPE   HN116954   1.258   6.026  10.429  1.4406 -0.6101  0.5714
  153SAPE   HN216955   1.332   6.079  10.557 -1.5605 -1.8739  1.9206
  153SAPE   HN316956   1.175   6.081  10.569  0.2452 -1.2688 -0.2575
  153SAPE   C1216957   1.238   6.237  10.440 -0.8103 -0.0331 -0.2382
  153SAPE  H12A16958   1.130   6.252  10.419 -0.5883  1.2003 -0.5923
  153SAPE  H12B16959   1.285   6.245  10.340  0.1221 -1.8146  0.0274
  153SAPE   C1116960   1.289   6.335  10.546 -0.1642  0.1115 -0.1478
  153SAPE  H11A16961   1.295   6.429  10.487 -2.0907 -0.3277 -1.1250
  153SAPE  H11B16962   1.392   6.310  10.578  0.5164  1.8254 -0.8865
  153SAPE     P16963   1.096   6.447  10.660 -0.0584  0.1130  0.2423
  153SAPE   O1316964   1.003   6.433  10.772  0.4579  0.0425  0.0076
  153SAPE   O1416965   1.167   6.579  10.654  0.2433  0.1940  0.0403
  153SAPE   O1216966   1.210   6.333  10.666 -0.2309  0.4422 -0.7213
  153SAPE   O1116967   1.021   6.416  10.528  0.1484  0.0269 -0.4888
  153SAPE    C116968   0.953   6.515  10.460  0.3387 -0.0006  0.3417
  153SAPE    HA16969   0.848   6.521  10.497 -1.2945 -1.9079 -3.3661
  153SAPE    HB16970   0.988   6.618  10.483  0.0877 -0.1715  1.5742
  153SAPE    C216971   0.937   6.499  10.301  0.3306  1.0422  0.2824
  153SAPE    HS16972   0.882   6.404  10.287 -0.5293  1.4242  1.0012
  153SAPE   O2116973   1.062   6.510  10.236  0.0448 -0.1456 -0.1319
  153SAPE   C2116974   1.110   6.399  10.174  0.0414 -1.0064 -0.0257
  153SAPE   O2216975   1.055   6.292  10.174 -0.3126 -0.4271  0.3480
  153SAPE   C2216976   1.240   6.429  10.109  0.1082 -0.0162 -0.7941
  153SAPE   H2R16977   1.238   6.516  10.040  0.7914 -1.5515 -2.8548
  153SAPE   H2S16978   1.311   6.452  10.191 -2.0584 -0.6709  1.3592
  153SAPE    C316979   0.828   6.596  10.250  0.2909  0.2351  0.2766
  153SAPE    HX16980   0.860   6.702  10.260 -1.3302  0.7671  0.0599
  153SAPE    HY16981   0.741   6.575  10.316 -1.3424  1.5696 -1.3675
  153SAPE   O3116982   0.788   6.560  10.119 -0.2459 -0.0158  0.1130
  153SAPE   C3116983   0.863   6.595  10.019  0.0440  0.4188  0.1220
  153SAPE   O3216984   0.956   6.677  10.024 -0.3136 -0.1730  0.1096
  153SAPE   C3216985   0.813   6.515   9.898 -0.6349 -0.6951 -0.4094
  153SAPE   H2X16986   0.702   6.507   9.903 -0.8493  0.1963 -2.8483
  153SAPE   H2Y16987   0.852   6.412   9.912 -0.5987 -0.3368  3.2669
  153SAPE   C2316988   1.300   6.308  10.037 -0.0555 -0.5294 -0.9314
  153SAPE   H3R16989   1.231   6.259   9.965 -0.6644 -0.9772 -0.0727
  153SAPE   H3S16990   1.307   6.230  10.115  1.8450  0.4095 -0.0898
  153SAPE   C2416991   1.440   6.330   9.970  0.4001 -0.5615  0.1508
  153SAPE   H4R16992   1.483   6.233   9.938 -1.0738 -1.4963  0.8977
  153SAPE   H4S16993   1.503   6.370  10.052 -1.3558  3.6163 -0.2870
  153SAPE   C2516994   1.445   6.429   9.854 -0.1452  0.4090  0.5183
  153SAPE   H5R16995   1.502   6.522   9.866 -0.1424  0.9697 -2.7462
  153SAPE   C2616996   1.376   6.414   9.738 -0.8181 -0.8033 -0.7356
  153SAPE   H6R16997   1.401   6.484   9.657 -0.8154 -1.2241 -1.1016
  153SAPE   C2716998   1.279   6.308   9.700  0.2154 -0.0325  0.3850
  153SAPE   H7R16999   1.189   6.312   9.765 -0.2153  1.9216 -0.2623
  153SAPE   H7S17000   1.330   6.211   9.718  0.9815  0.4356  0.7704
  153SAPE   C2817001   1.238   6.318   9.555  0.0551 -0.0873  0.4456
  153SAPE   H8R17002   1.230   6.417   9.509  1.4736 -1.1745 -2.3813
  153SAPE   C2917003   1.229   6.228   9.458  0.1870 -0.2832 -0.1826
  153SAPE   H9R17004   1.216   6.255   9.353 -0.0298 -0.4461 -0.1980
  153SAPE  C21017005   1.260   6.076   9.469 -0.1809 -0.7614 -0.0773
  153SAPE  H10R17006   1.188   6.026   9.537  0.1975 -1.1030  0.0701
  153SAPE  H10S17007   1.358   6.055   9.516  0.3750  0.5756 -0.5812
  153SAPE  C21117008   1.265   6.018   9.335  0.3320 -1.1273  0.0916
  153SAPE  H11R17009   1.351   6.048   9.274 -1.6452  0.5634 -2.0714
  153SAPE  C21217010   1.169   5.939   9.276  0.2071 -0.0637 -0.4689
  153SAPE  H12R17011   1.189   5.885   9.182  0.1040 -1.3878  0.2369
  153SAPE  C21317012   1.043   5.894   9.338  0.0658  0.4812 -0.1514
  153SAPE  H13R17013   1.019   5.962   9.423 -0.2100  0.6520 -0.3637
  153SAPE  H13S17014   1.046   5.799   9.395  1.4080  0.1974 -0.6643
  153SAPE  C21417015   0.931   5.881   9.233  0.1132  0.1983  0.3022
  153SAPE  H14R17016   0.919   5.776   9.202  3.3664 -0.2225  0.1213
  153SAPE  C21517017   0.834   5.962   9.182  0.1769  0.6944  0.5123
  153SAPE  H15R17018   0.778   5.922   9.096 -2.5580  0.2594  2.3732
  153SAPE  C21617019   0.820   6.115   9.201 -0.4750  0.2727 -0.6481
  153SAPE  H16R17020   0.817   6.162   9.100 -1.0559 -0.6111 -1.0624
  153SAPE  H16S17021   0.905   6.171   9.243 -1.9662  1.1938  1.2862
  153SAPE  C21717022   0.700   6.168   9.284 -0.5066  0.5077  0.1274
  153SAPE  H17R17023   0.605   6.135   9.236 -0.0100  0.1437 -0.6267
  153SAPE  H17S17024   0.690   6.278   9.268  0.5505  0.5849 -0.0783
  153SAPE  C21817025   0.732   6.151   9.429 -0.6862 -0.0686 -0.0499
  153SAPE  H18R17026   0.840   6.161   9.454 -0.9864 -0.4628  1.5447
  153SAPE  H18S17027   0.703   6.051   9.469 -1.8939 -0.9260 -2.8358
  153SAPE  C21917028   0.664   6.260   9.512 -0.3691  0.5668 -0.1638
  153SAPE  H19R17029   0.557   6.261   9.482  0.0400  0.8728 -1.6458
  153SAPE  H19S17030   0.715   6.350   9.474  1.7016 -0.8083 -0.7982
  153SAPE  C22017031   0.689   6.242   9.665 -0.3595  0.4209 -0.1011
  153SAPE  H20R17032   0.621   6.303   9.728  2.2622  1.7167  1.6848
  153SAPE  H20S17033   0.794   6.263   9.694 -0.4155 -0.4677  0.8089
  153SAPE  H20T17034   0.663   6.135   9.678 -1.3332  0.5455 -0.9103
  153SAPE   C3317035   0.852   6.584   9.765 -0.2980  0.1298  0.2038
  153SAPE   H3X17036   0.827   6.519   9.679 -0.0660  0.7644 -0.3459
  153SAPE   H3Y17037   0.962   6.587   9.757 -0.2155 -1.8294  0.0023
  153SAPE   C3417038   0.774   6.717   9.750 -0.4194  0.9726 -0.0576
  153SAPE   H4X17039   0.768   6.770   9.847 -2.5103 -1.5571  1.3007
  153SAPE   H4Y17040   0.674   6.686   9.715 -0.8024  2.8220 -0.7356
  153SAPE   C3517041   0.838   6.809   9.651  0.3391 -0.1928  0.4740
  153SAPE   H5X17042   0.924   6.861   9.697  2.6270 -0.2929 -3.2722
  153SAPE   H5Y17043   0.774   6.894   9.618  0.6312 -0.0682  0.2208
  153SAPE   C3617044   0.893   6.750   9.521 -0.2234 -0.6767 -1.1985
  153SAPE   H6X17045   0.967   6.680   9.565 -1.9931 -0.4819  2.5004
  153SAPE   H6Y17046   0.945   6.832   9.468  0.2480  0.0087  0.2709
  153SAPE   C3717047   0.788   6.678   9.438  0.6313  0.5213  0.2988
  153SAPE   H7X17048   0.733   6.749   9.374  1.5685  0.9346 -0.0668
  153SAPE   H7Y17049   0.717   6.633   9.511 -1.6094 -0.1186 -2.1219
  153SAPE   C3817050   0.860   6.572   9.343  0.2762  0.1663  0.4169
  153SAPE   H8X17051   0.783   6.503   9.303  2.0201 -0.8433 -1.3408
  153SAPE   H8Y17052   0.930   6.507   9.399 -2.0484  0.7012  4.3710
  153SAPE   C3917053   0.932   6.626   9.225  0.1810  0.9387 -0.0229
  153SAPE   H9X17054   1.001   6.708   9.253 -0.8196  1.4162  1.1685
  153SAPE   H9Y17055   0.863   6.662   9.145  2.2461  2.9335 -1.0219
  153SAPE  C31017056   0.996   6.512   9.148 -0.3173 -0.6641  0.0410
  153SAPE  H10X17057   0.920   6.449   9.097  0.1579 -1.1312 -0.0991
  153SAPE  H10Y17058   1.063   6.453   9.214 -1.4930 -1.9690  0.1182
  153SAPE  C31117059   1.093   6.546   9.031 -0.4186  0.2843  0.2165
  153SAPE  H11X17060   1.179   6.604   9.073  1.2355 -0.6438 -1.7058
  153SAPE  H11Y17061   1.043   6.620   8.965  0.7516 -1.2670 -2.5821
  153SAPE  C31217062   1.136   6.422   8.959  0.0170  0.7088 -0.4881
  153SAPE  H12X17063   1.051   6.371   8.909 -1.0875  0.4735  1.5525
  153SAPE  H12Y17064   1.185   6.352   9.029  0.2611  0.0173 -1.3273
  153SAPE  C31317065   1.230   6.460   8.847  1.1723  0.2782  0.0831
  153SAPE  H13X17066   1.331   6.491   8.879  0.5820 -0.7643  3.4590
  153SAPE  H13Y17067   1.190   6.549   8.794  1.5167  1.7738  2.2296
  153SAPE  C31417068   1.247   6.347   8.739  0.2430  0.7147  0.0555
  153SAPE  H14X17069   1.144   6.330   8.703 -0.4016  0.8503  1.7525
  153SAPE  H14Y17070   1.292   6.256   8.783 -1.3009 -1.1451 -1.9979
  153SAPE  C31517071   1.334   6.396   8.614  0.1036 -0.1372 -0.4299
  153SAPE  H15X17072   1.433   6.432   8.648 -1.0756  2.0372  0.8949
  153SAPE  H15Y17073   1.273   6.477   8.568  0.7106  0.6399  0.1020
  153SAPE  C31617074   1.367   6.282   8.525  0.1052 -0.1778  0.0485
  153SAPE  H16X17075   1.385   6.188   8.581  1.2790  0.7202  1.2342
  153SAPE  H16Y17076   1.468   6.304   8.484  0.2716  0.0758  0.5843
  153SAPE  C31717077   1.263   6.255   8.412 -0.1698  0.7860  0.1373
  153SAPE  H17X17078   1.325   6.196   8.342 -2.2271 -0.2172 -0.9386
  153SAPE  H17Y17079   1.236   6.349   8.359  0.7344 -0.0400 -1.8799
  153SAPE  C31817080   1.144   6.174   8.451  0.1851  0.7612  0.0708
  153SAPE  H18X17081   1.169   6.070   8.420  2.2664  1.1268  0.3913
  153SAPE  H18Y17082   1.055   6.211   8.395  0.8449  1.1818 -0.7151
  153SAPE  H18Z17083   1.125   6.165   8.560  0.9436  0.1189  0.1524
  154SAPE     N17084   2.096   1.265  11.017  0.4959 -0.2043  0.5932
  154SAPE   HN117085   2.166   1.342  11.011  1.0807 -0.8517 -2.2268
  154SAPE   HN217086   2.047   1.264  11.108 -0.5763 -0.9718  0.0292
  154SAPE   HN317087   2.153   1.178  11.011 -1.9199 -2.0010  2.0205
  154SAPE   C1217088   2.005   1.280  10.895  0.6305 -0.3628  0.7614
  154SAPE  H12A17089   1.925   1.356  10.909 -0.1830 -0.6309 -1.8569
  154SAPE  H12B17090   1.953   1.183  10.886 -1.1937  0.5901  0.6641
  154SAPE   C1117091   2.094   1.314  10.774  0.0588  0.1179 -0.1276
  154SAPE  H11A17092   2.025   1.316  10.686 -1.8806  1.2777  1.3453
  154SAPE  H11B17093   2.173   1.238  10.758 -1.7064 -1.2985 -3.0210
  154SAPE     P17094   2.277   1.494  10.840  0.3953 -0.3311 -0.3095
  154SAPE   O1317095   2.304   1.636  10.792  0.1334  0.1697 -0.0707
  154SAPE   O1417096   2.282   1.474  10.981  0.8214  0.7945 -0.2883
  154SAPE   O1217097   2.138   1.443  10.792 -0.5477 -0.2052  0.5752
  154SAPE   O1117098   2.379   1.392  10.774 -0.1947 -0.2359 -0.5646
  154SAPE    C117099   2.439   1.421  10.644 -0.3165  0.0389  0.2318
  154SAPE    HA17100   2.428   1.526  10.608  1.4284  0.5170  1.0248
  154SAPE    HB17101   2.549   1.414  10.652 -0.1549  0.0899 -1.5007
  154SAPE    C217102   2.393   1.319  10.537  0.4082 -0.1954  0.3991
  154SAPE    HS17103   2.453   1.330  10.444  0.7127 -1.1258  0.4783
  154SAPE   O2117104   2.255   1.338  10.501 -0.2426 -0.7110  0.0302
  154SAPE   C2117105   2.218   1.454  10.445 -0.0521  0.2163  0.1334
  154SAPE   O2217106   2.290   1.554  10.421  0.3105  0.2800  0.1829
  154SAPE   C2217107   2.072   1.457  10.418 -0.0554 -0.2449  0.8119
  154SAPE   H2R17108   2.015   1.439  10.512 -2.3119  2.1357  0.0331
  154SAPE   H2S17109   2.054   1.559  10.377 -0.6220  0.1605  2.0001
  154SAPE    C317110   2.422   1.176  10.588 -0.1537  0.1209 -0.4131
  154SAPE    HX17111   2.372   1.151  10.684  0.1192  0.4063 -0.1966
  154SAPE    HY17112   2.527   1.162  10.620  0.3725 -2.4030 -2.7955
  154SAPE   O3117113   2.393   1.071  10.481 -0.0173 -0.0029 -0.3440
  154SAPE   C3117114   2.276   1.016  10.479 -0.2196  0.0985  0.2103
  154SAPE   O3217115   2.185   1.032  10.559 -0.7498 -0.7673  0.3746
  154SAPE   C3217116   2.267   0.911  10.359  0.4556 -0.2461  0.0211
  154SAPE   H2X17117   2.205   0.823  10.383 -0.6836  0.4653 -0.2063
  154SAPE   H2Y17118   2.373   0.885  10.340  0.4462 -0.2438 -0.0330
  154SAPE   C2317119   2.020   1.346  10.317 -0.5439 -0.0329  0.0962
  154SAPE   H3R17120   1.910   1.366  10.315 -0.4386  0.5308 -0.9728
  154SAPE   H3S17121   2.035   1.242  10.353 -1.9134 -1.0373 -2.0268
  154SAPE   C2417122   2.073   1.352  10.178 -0.3824  0.1961 -0.1077
  154SAPE   H4R17123   2.061   1.248  10.140 -0.0126 -0.4958  1.5840
  154SAPE   H4S17124   2.183   1.360  10.183  0.0512 -3.2833 -1.4532
  154SAPE   C2517125   2.006   1.455  10.090  0.2048  0.1931 -0.5078
  154SAPE   H5R17126   2.006   1.552  10.141  1.4335 -0.9552  1.8283
  154SAPE   C2617127   1.971   1.439   9.964 -0.3335  0.2076  0.5836
  154SAPE   H6R17128   1.907   1.517   9.920 -0.4027 -1.3295 -2.2798
  154SAPE   C2717129   1.990   1.314   9.878  0.6405 -0.1640 -0.5225
  154SAPE   H7R17130   1.985   1.222   9.939 -2.0633 -0.1467 -0.5809
  154SAPE   H7S17131   2.089   1.315   9.828 -0.0390  1.6740 -1.9836
  154SAPE   C2817132   1.884   1.320   9.768  0.3489 -0.1074 -0.4348
  154SAPE   H8R17133   1.800   1.257   9.801  0.0973  0.6898  0.5297
  154SAPE   C2917134   1.878   1.370   9.641  0.1974  0.1300 -0.1061
  154SAPE   H9R17135   1.781   1.362   9.589  0.6548 -0.9440 -0.8283
  154SAPE  C21017136   1.999   1.427   9.572  0.5218  0.2908 -0.3535
  154SAPE  H10R17137   2.087   1.401   9.634  1.6716  1.8073 -1.2564
  154SAPE  H10S17138   1.996   1.538   9.560  1.7884  0.2983 -0.7460
  154SAPE  C21117139   2.025   1.377   9.432  0.8876  0.9503  0.1901
  154SAPE  H11R17140   2.008   1.269   9.421  2.6488  0.6500  0.0683
  154SAPE  C21217141   2.050   1.440   9.317  0.2803  0.4027  0.1869
  154SAPE  H12R17142   2.065   1.374   9.230  1.3995  1.3608 -0.3627
  154SAPE  C21317143   2.075   1.585   9.286  0.5898  0.3727 -1.0035
  154SAPE  H13R17144   2.183   1.600   9.265  1.5951 -2.6598  1.3013
  154SAPE  H13S17145   2.056   1.639   9.381  1.5173 -0.2339 -0.4574
  154SAPE  C21417146   1.995   1.649   9.178  0.7275 -0.5186  0.7364
  154SAPE  H14R17147   1.925   1.726   9.215  0.7688  0.4543 -1.0885
  154SAPE  C21517148   2.014   1.633   9.046  0.4383 -0.1743  0.4431
  154SAPE  H15R17149   1.956   1.690   8.971  0.1987 -1.1266 -0.1175
  154SAPE  C21617150   2.102   1.537   8.979 -0.2012  0.7184 -0.0713
  154SAPE  H16R17151   2.136   1.458   9.049 -1.2267  0.8571  0.5888
  154SAPE  H16S17152   2.186   1.595   8.934  0.0576  0.9498  0.7005
  154SAPE  C21717153   2.033   1.465   8.861 -0.3742  0.0077 -0.2385
  154SAPE  H17R17154   1.969   1.533   8.802  1.8110  1.2058 -1.3372
  154SAPE  H17S17155   1.964   1.393   8.911  0.5204  0.8296  2.3134
  154SAPE  C21817156   2.125   1.388   8.759 -0.0035 -0.3270  0.3505
  154SAPE  H18R17157   2.186   1.325   8.827 -0.4314  1.3490  2.3770
  154SAPE  H18S17158   2.191   1.459   8.704 -0.7061 -0.1716 -0.3035
  154SAPE  C21917159   2.038   1.290   8.673 -0.1275 -0.2573  0.2412
  154SAPE  H19R17160   1.976   1.233   8.746 -0.2186 -0.6105 -0.1091
  154SAPE  H19S17161   2.107   1.218   8.625 -1.1236 -0.9143 -0.2441
  154SAPE  C22017162   1.953   1.358   8.566 -0.2193 -0.3694  0.1205
  154SAPE  H20R17163   1.904   1.286   8.498  1.0041 -0.9542 -0.1740
  154SAPE  H20S17164   2.013   1.418   8.494 -0.5344  0.2861  0.3937
  154SAPE  H20T17165   1.863   1.405   8.611 -1.3752 -0.4565 -1.9907
  154SAPE   C3317166   2.208   0.983  10.236 -0.1952  0.0974 -0.5460
  154SAPE   H3X17167   2.256   1.080  10.213  1.8219 -1.0626 -1.5008
  154SAPE   H3Y17168   2.098   0.991  10.253 -0.4090 -0.9072 -1.3673
  154SAPE   C3417169   2.211   0.901  10.111 -0.2256  0.1655  0.3629
  154SAPE   H4X17170   2.118   0.841  10.114  0.1623 -0.4983 -0.3443
  154SAPE   H4Y17171   2.299   0.834  10.124  1.2918  2.2919  1.6185
  154SAPE   C3517172   2.226   0.986   9.984  0.2451 -0.0771  0.3178
  154SAPE   H5X17173   2.308   1.060   9.993  1.8918 -1.7235 -0.5351
  154SAPE   H5Y17174   2.128   1.038   9.976 -0.4198 -1.0059  1.8896
  154SAPE   C3617175   2.241   0.909   9.852  1.2316  0.6325  0.6015
  154SAPE   H6X17176   2.154   0.842   9.859  1.3289  0.3074 -0.8951
  154SAPE   H6Y17177   2.330   0.843   9.841  0.6213 -0.0932 -0.0705
  154SAPE   C3717178   2.229   0.999   9.728 -0.4263  0.5126 -0.2737
  154SAPE   H7X17179   2.269   1.102   9.745 -1.7378  0.7262  1.9136
  154SAPE   H7Y17180   2.121   1.011   9.703  0.0300 -0.5666 -3.1012
  154SAPE   C3817181   2.292   0.947   9.599 -0.5571  0.3391 -0.0676
  154SAPE   H8X17182   2.246   0.848   9.579  0.3443 -0.3292  1.0088
  154SAPE   H8Y17183   2.401   0.932   9.617 -0.3067  2.2000  0.1671
  154SAPE   C3917184   2.268   1.030   9.474  0.2958  0.3491  0.5841
  154SAPE   H9X17185   2.295   1.136   9.495  2.1983  0.4420 -1.7954
  154SAPE   H9Y17186   2.162   1.029   9.440 -0.0365 -1.4557  1.5671
  154SAPE  C31017187   2.350   0.995   9.345  0.3411  0.5921  0.0482
  154SAPE  H10X17188   2.322   0.888   9.329 -0.4443  0.6792  0.8018
  154SAPE  H10Y17189   2.459   1.000   9.366  0.5158  0.5848 -0.8074
  154SAPE  C31117190   2.317   1.086   9.227  0.2974  0.0323  0.1936
  154SAPE  H11X17191   2.333   1.191   9.262  0.8914 -0.3303  1.0508
  154SAPE  H11Y17192   2.208   1.087   9.205  0.5949  0.0278 -1.3175
  154SAPE  C31217193   2.404   1.050   9.106  0.3437 -0.4770 -0.4482
  154SAPE  H12X17194   2.404   0.940   9.091  4.3301 -0.4562 -1.7518
  154SAPE  H12Y17195   2.513   1.063   9.123 -0.3416  3.2143  2.3556
  154SAPE  C31317196   2.368   1.122   8.971  0.0333 -0.3896 -0.4228
  154SAPE  H13X17197   2.402   1.228   8.974 -0.7829 -0.1296  0.3659
  154SAPE  H13Y17198   2.258   1.140   8.967  0.0121 -0.4205 -0.0150
  154SAPE  C31417199   2.426   1.047   8.852  0.9567  0.0451 -0.0396
  154SAPE  H14X17200   2.534   1.038   8.873  0.9556 -0.5056 -0.2680
  154SAPE  H14Y17201   2.410   1.115   8.766  1.1758 -0.1510 -0.2342
  154SAPE  C31517202   2.360   0.912   8.830 -0.1877 -0.0687 -0.1274
  154SAPE  H15X17203   2.340   0.857   8.924  2.0519 -0.5837  0.0999
  154SAPE  H15Y17204   2.439   0.852   8.780  1.6493  0.3286  2.1698
  154SAPE  C31617205   2.228   0.921   8.761 -0.0304 -0.0853  1.1742
  154SAPE  H16X17206   2.250   0.952   8.657  2.4834 -3.1394  0.6698
  154SAPE  H16Y17207   2.162   1.003   8.798 -0.8632 -0.1560 -0.0951
  154SAPE  C31717208   2.147   0.792   8.748  0.2574  0.5135 -0.3145
  154SAPE  H17X17209   2.109   0.772   8.851 -1.3885  0.0229 -0.9915
  154SAPE  H17Y17210   2.223   0.718   8.713 -1.3842 -1.3938 -0.0627
  154SAPE  C31817211   2.028   0.786   8.643  0.0561 -0.5452 -0.6019
  154SAPE  H18X17212   1.955   0.870   8.652  1.4402  0.6073  0.4878
  154SAPE  H18Y17213   1.964   0.696   8.654  0.5095 -0.5798  6.0051
  154SAPE  H18Z17214   2.066   0.788   8.539 -0.2829 -0.0652 -0.7215
  155SAPE     N17215   3.799   2.597  10.666  0.1972  0.0663  0.0341
  155SAPE   HN117216   3.715   2.535  10.671  0.5692 -0.4689 -0.2575
  155SAPE   HN217217   3.767   2.686  10.622 -0.4357  0.1586  0.6619
  155SAPE   HN317218   3.874   2.551  10.610 -0.4260 -2.4073  1.0927
  155SAPE   C1217219   3.862   2.634  10.800  0.2900  0.5446  0.3681
  155SAPE  H12A17220   3.782   2.635  10.877 -1.4193  0.0605 -1.3171
  155SAPE  H12B17221   3.908   2.735  10.790 -0.3826  0.9497  1.2419
  155SAPE   C1117222   3.968   2.527  10.837  1.0693 -0.0602 -0.3667
  155SAPE  H11A17223   3.926   2.424  10.838  1.4601 -0.2290  1.0633
  155SAPE  H11B17224   4.009   2.536  10.940 -0.5357  2.1920  0.1602
  155SAPE     P17225   4.208   2.600  10.768 -0.2217 -0.5095 -0.4761
  155SAPE   O1317226   4.207   2.739  10.717 -0.2503 -0.1938 -0.3166
  155SAPE   O1417227   4.244   2.579  10.915 -0.2545 -0.2750  0.6189
  155SAPE   O1217228   4.070   2.529  10.738  0.5136 -0.4880 -0.6899
  155SAPE   O1117229   4.314   2.520  10.687  0.0535  0.7374  0.0254
  155SAPE    C117230   4.353   2.554  10.548 -0.0583 -0.5645  0.0279
  155SAPE    HA17231   4.293   2.637  10.506  2.5200  1.9638  0.9899
  155SAPE    HB17232   4.460   2.584  10.545  0.2214 -1.5588 -0.6728
  155SAPE    C217233   4.352   2.432  10.455 -0.1260 -0.0755  0.4328
  155SAPE    HS17234   4.250   2.390  10.472  0.1770 -1.6249 -1.3565
  155SAPE   O2117235   4.454   2.347  10.499  0.0578  0.5758  0.0913
  155SAPE   C2117236   4.433   2.218  10.462  0.8235 -0.6843 -0.9015
  155SAPE   O2217237   4.322   2.178  10.439 -0.5610  0.0010 -0.1054
  155SAPE   C2217238   4.556   2.145  10.472 -0.1811 -0.0588 -0.1356
  155SAPE   H2R17239   4.645   2.209  10.452 -0.0611 -0.4490 -0.8703
  155SAPE   H2S17240   4.554   2.109  10.577 -0.5754  0.3205 -0.0081
  155SAPE    C317241   4.372   2.471  10.306  0.3862 -0.2467  0.1610
  155SAPE    HX17242   4.480   2.493  10.289  0.5123 -1.8498 -1.5279
  155SAPE    HY17243   4.319   2.565  10.279  0.5662  0.3088  1.6706
  155SAPE   O3117244   4.331   2.365  10.211  0.1554  0.8303  0.0920
  155SAPE   C3117245   4.202   2.340  10.196 -0.5210 -0.4208 -0.6721
  155SAPE   O3217246   4.115   2.397  10.256 -0.0029 -0.3858  0.1255
  155SAPE   C3217247   4.192   2.221  10.106  0.5844 -0.2732 -0.6473
  155SAPE   H2X17248   4.117   2.161  10.161  0.3192 -0.9830 -1.7356
  155SAPE   H2Y17249   4.287   2.165  10.094 -0.6244 -2.4547 -0.6257
  155SAPE   C2317250   4.554   2.027  10.373  0.0667 -0.4242 -0.0966
  155SAPE   H3R17251   4.468   1.964  10.406 -0.9969  0.9540 -0.1007
  155SAPE   H3S17252   4.641   1.962  10.394 -0.0834 -0.4617  0.4358
  155SAPE   C2417253   4.540   2.067  10.226  0.3716 -0.7449  0.3040
  155SAPE   H4R17254   4.455   2.138  10.212  0.5852 -0.7436 -1.1800
  155SAPE   H4S17255   4.525   1.981  10.157  0.1956 -0.7490  0.3476
  155SAPE   C2517256   4.660   2.140  10.174  0.0218 -0.2068  0.3628
  155SAPE   H5R17257   4.749   2.140  10.238  0.1366  1.0627  0.2175
  155SAPE   C2617258   4.678   2.196  10.050  0.9069  0.3982 -0.1461
  155SAPE   H6R17259   4.773   2.245  10.022 -0.0740  1.4462 -1.7623
  155SAPE   C2717260   4.570   2.196   9.945 -0.0215 -0.1124  0.3786
  155SAPE   H7R17261   4.479   2.243   9.988  0.2265  0.0707  0.7058
  155SAPE   H7S17262   4.555   2.094   9.905 -0.7746  0.6976 -1.5526
  155SAPE   C2817263   4.618   2.290   9.838  0.1116 -0.1940  0.5020
  155SAPE   H8R17264   4.625   2.398   9.857 -1.5345 -0.3433  2.1945
  155SAPE   C2917265   4.660   2.249   9.719 -0.3576 -0.1641  0.1871
  155SAPE   H9R17266   4.668   2.321   9.637  0.0570 -2.0599 -1.5388
  155SAPE  C21017267   4.654   2.104   9.672 -0.1378 -0.4775  0.7454
  155SAPE  H10R17268   4.547   2.074   9.670 -0.1314 -0.5410  1.2594
  155SAPE  H10S17269   4.710   2.033   9.738 -1.3330 -1.9085  0.2707
  155SAPE  C21117270   4.713   2.093   9.531 -0.1409 -0.4214  0.2065
  155SAPE  H11R17271   4.823   2.094   9.521 -0.2559 -0.8000 -1.3711
  155SAPE  C21217272   4.646   2.084   9.414  0.4487 -0.8929 -0.5466
  155SAPE  H12R17273   4.716   2.074   9.330  0.2833 -4.3448 -0.4457
  155SAPE  C21317274   4.499   2.082   9.384  0.9120 -0.2012  0.1341
  155SAPE  H13R17275   4.468   2.182   9.346  2.1685  0.9960  2.0367
  155SAPE  H13S17276   4.433   2.082   9.473  0.5366 -3.9296  0.0206
  155SAPE  C21417277   4.460   1.976   9.284  0.1111  0.2329 -0.6830
  155SAPE  H14R17278   4.432   1.877   9.322 -0.7913 -0.3297 -2.6699
  155SAPE  C21517279   4.467   1.992   9.147 -0.1569 -0.0882 -0.5497
  155SAPE  H15R17280   4.434   1.906   9.086 -1.5689  1.9912 -2.9191
  155SAPE  C21617281   4.501   2.116   9.068  0.3227 -0.1643 -0.1935
  155SAPE  H16R17282   4.524   2.203   9.133 -0.9100  0.5295 -0.6338
  155SAPE  H16S17283   4.414   2.157   9.012 -1.3935 -0.5276  2.0564
  155SAPE  C21717284   4.609   2.097   8.958  0.0291 -0.4904 -0.2304
  155SAPE  H17R17285   4.573   2.035   8.872 -1.8652 -2.0217  1.5472
  155SAPE  H17S17286   4.695   2.049   9.008 -0.9424 -1.9118  0.1422
  155SAPE  C21817287   4.655   2.235   8.910 -0.1703 -0.5912 -0.2952
  155SAPE  H18R17288   4.720   2.290   8.981 -1.4161  0.5184  0.0207
  155SAPE  H18S17289   4.570   2.302   8.889  1.4141  1.4950 -0.3515
  155SAPE  C21917290   4.743   2.210   8.791 -0.0094 -0.2608  0.9809
  155SAPE  H19R17291   4.700   2.141   8.716 -2.2490  0.1306  1.8399
  155SAPE  H19S17292   4.838   2.164   8.826 -0.4413 -0.9973  1.1836
  155SAPE  C22017293   4.765   2.337   8.710 -0.0096  0.5961  0.5456
  155SAPE  H20R17294   4.847   2.322   8.636  1.7347 -1.3527  2.6966
  155SAPE  H20S17295   4.788   2.423   8.775 -1.0814  1.6545 -0.4420
  155SAPE  H20T17296   4.674   2.348   8.646  0.0927 -2.9689 -0.4634
  155SAPE   C3317297   4.130   2.263   9.973  0.4334  0.2586  0.1876
  155SAPE   H3X17298   4.128   2.170   9.912 -0.9985  0.7121 -0.5114
  155SAPE   H3Y17299   4.185   2.351   9.934  2.0963 -0.8330 -0.0218
  155SAPE   C3417300   3.980   2.305   9.977 -0.3405 -0.2107 -0.4915
  155SAPE   H4X17301   3.973   2.411  10.010  2.3821 -0.7118  2.1990
  155SAPE   H4Y17302   3.916   2.262  10.057 -0.0440  0.0217 -0.1255
  155SAPE   C3517303   3.915   2.301   9.840  0.0702 -0.7017  0.1863
  155SAPE   H5X17304   3.916   2.200   9.793  2.3530 -0.6152 -0.0968
  155SAPE   H5Y17305   3.980   2.346   9.761  1.4833 -1.5467  0.8267
  155SAPE   C3617306   3.782   2.371   9.843 -0.0758 -1.0090 -0.3054
  155SAPE   H6X17307   3.788   2.471   9.892 -2.2661  0.0236 -1.9674
  155SAPE   H6Y17308   3.703   2.307   9.889 -0.6536  0.1775  0.4337
  155SAPE   C3717309   3.728   2.403   9.701  0.1535 -0.2901 -0.3978
  155SAPE   H7X17310   3.618   2.408   9.707  0.2567  0.4726  1.4368
  155SAPE   H7Y17311   3.750   2.313   9.639 -0.0125 -1.9796  1.8846
  155SAPE   C3817312   3.777   2.527   9.625  0.3808  0.7303 -0.1749
  155SAPE   H8X17313   3.883   2.535   9.593  0.3336  0.2704 -0.4420
  155SAPE   H8Y17314   3.770   2.608   9.702  2.8289  1.4076 -0.5835
  155SAPE   C3917315   3.685   2.561   9.503 -0.5939 -0.0537  0.2897
  155SAPE   H9X17316   3.706   2.668   9.481  0.5063 -0.4957 -0.9245
  155SAPE   H9Y17317   3.578   2.548   9.528 -0.7233  1.1712  0.4723
  155SAPE  C31017318   3.737   2.469   9.387  0.5163  0.7034  0.6441
  155SAPE  H10X17319   3.734   2.361   9.414 -0.8617 -0.0887 -2.2319
  155SAPE  H10Y17320   3.844   2.484   9.360  1.0065 -2.0127  0.7769
  155SAPE  C31117321   3.644   2.494   9.268 -0.0217 -0.2683  0.1093
  155SAPE  H11X17322   3.655   2.601   9.241 -1.1892 -0.3312 -0.7104
  155SAPE  H11Y17323   3.540   2.472   9.299 -0.4603  0.1699 -0.9898
  155SAPE  C31217324   3.680   2.400   9.153  0.2393 -0.3098 -0.1022
  155SAPE  H12X17325   3.656   2.295   9.182  2.9148 -1.1860 -0.7837
  155SAPE  H12Y17326   3.788   2.413   9.135  0.0457  2.4325  0.3459
  155SAPE  C31317327   3.604   2.437   9.028 -0.3686  0.1419  0.1133
  155SAPE  H13X17328   3.509   2.483   9.063  0.0509  1.4197 -0.3667
  155SAPE  H13Y17329   3.574   2.352   8.963 -2.5852  0.0745  1.1303
  155SAPE  C31417330   3.668   2.542   8.942  0.2343  0.5337 -0.0747
  155SAPE  H14X17331   3.776   2.517   8.940  0.4954  1.0109  3.0630
  155SAPE  H14Y17332   3.662   2.640   8.992  2.3560  0.1561  1.0521
  155SAPE  C31517333   3.603   2.561   8.805  0.0149  0.3839 -0.2155
  155SAPE  H15X17334   3.493   2.566   8.822  0.0796 -0.3834  0.4627
  155SAPE  H15Y17335   3.624   2.477   8.735  1.6389 -0.8313  1.6467
  155SAPE  C31617336   3.643   2.692   8.739 -0.2363  1.5722 -0.4736
  155SAPE  H16X17337   3.743   2.659   8.705 -0.7528 -0.0295 -0.5266
  155SAPE  H16Y17338   3.665   2.771   8.814  0.9474 -0.9713  2.0505
  155SAPE  C31717339   3.551   2.734   8.629 -1.0813 -1.3757  0.6160
  155SAPE  H17X17340   3.450   2.741   8.674 -1.0674 -1.3495  0.6434
  155SAPE  H17Y17341   3.556   2.658   8.548  1.3355 -0.8441  0.1778
  155SAPE  C31817342   3.591   2.871   8.566 -0.3866 -0.2885 -0.4870
  155SAPE  H18X17343   3.582   2.961   8.632 -1.0635  0.7152 -1.8967
  155SAPE  H18Y17344   3.525   2.892   8.479 -1.3739  1.0923  0.5309
  155SAPE  H18Z17345   3.697   2.865   8.536 -0.0705 -0.5783  0.6242
  156SAPE     N17346   3.182   4.386  10.734 -0.6128 -0.0612  0.9037
  156SAPE   HN117347   3.245   4.442  10.794 -2.1971  1.2181  1.4496
  156SAPE   HN217348   3.103   4.451  10.714 -0.7145 -0.6189 -0.5929
  156SAPE   HN317349   3.147   4.302  10.785 -0.2260 -1.1685 -0.6009
  156SAPE   C1217350   3.264   4.367  10.610 -0.1440 -0.5994 -0.4725
  156SAPE  H12A17351   3.207   4.294  10.549  0.1317 -0.4918 -0.8625
  156SAPE  H12B17352   3.356   4.312  10.641 -0.9495 -1.4622  0.4332
  156SAPE   C1117353   3.293   4.501  10.541 -0.0762 -0.2167 -0.9049
  156SAPE  H11A17354   3.206   4.535  10.479 -0.9916  1.7999  1.3244
  156SAPE  H11B17355   3.372   4.479  10.466  0.8464 -0.6646  0.1839
  156SAPE     P17356   3.418   4.720  10.596 -0.4712  0.3457 -0.3521
  156SAPE   O1317357   3.414   4.815  10.711  0.8550 -0.3921  0.5694
  156SAPE   O1417358   3.541   4.645  10.569 -0.6893  0.3648  0.2394
  156SAPE   O1217359   3.315   4.611  10.633  0.1170 -0.2736  0.5968
  156SAPE   O1117360   3.362   4.782  10.463  0.2364 -0.3911 -0.0642
  156SAPE    C117361   3.231   4.847  10.487  0.0947 -0.0074  0.0883
  156SAPE    HA17362   3.179   4.822  10.582 -0.3056 -0.1061 -0.1589
  156SAPE    HB17363   3.250   4.956  10.492 -1.3284  0.2311  0.7311
  156SAPE    C217364   3.128   4.808  10.377 -0.0426  0.3133 -0.8109
  156SAPE    HS17365   3.138   4.698  10.380  1.0637  0.3502 -2.1399
  156SAPE   O2117366   3.163   4.845  10.239  0.5814 -0.0056 -0.3809
  156SAPE   C2117367   3.174   4.978  10.217  0.8810  0.7356  0.1774
  156SAPE   O2217368   3.151   5.061  10.301 -0.3297 -0.2720  0.7668
  156SAPE   C2217369   3.233   5.009  10.077 -0.1274  0.1716 -0.6222
  156SAPE   H2R17370   3.344   4.998  10.084 -0.2900 -0.9659  0.4188
  156SAPE   H2S17371   3.209   4.918  10.017  0.7922 -1.7466  1.7486
  156SAPE    C317372   2.983   4.849  10.406 -0.6332 -0.4611  0.1064
  156SAPE    HX17373   2.985   4.958  10.430  1.1836 -0.2984 -0.6260
  156SAPE    HY17374   2.950   4.793  10.496  0.4897 -1.1649  0.1018
  156SAPE   O3117375   2.895   4.826  10.296 -0.3259 -0.0720  0.7896
  156SAPE   C3117376   2.780   4.897  10.303  0.1121 -0.0176  0.2860
  156SAPE   O3217377   2.750   4.973  10.391 -0.1738 -1.2080  0.3555
  156SAPE   C3217378   2.698   4.875  10.177 -0.6424 -0.5858  0.4896
  156SAPE   H2X17379   2.614   4.803  10.191  0.1296 -1.6951 -0.4122
  156SAPE   H2Y17380   2.761   4.826  10.100  1.1589 -1.0009  2.1518
  156SAPE   C2317381   3.173   5.144  10.027  0.2652 -0.3387  0.3044
  156SAPE   H3R17382   3.205   5.232  10.088 -0.9132 -0.9871  1.9487
  156SAPE   H3S17383   3.063   5.137  10.028  0.1818  0.4455 -1.2417
  156SAPE   C2417384   3.221   5.175   9.880  0.1248 -0.4219  0.2620
  156SAPE   H4R17385   3.332   5.186   9.885  0.2987 -0.7310 -1.8087
  156SAPE   H4S17386   3.166   5.260   9.835  0.4093  0.6060  1.7994
  156SAPE   C2517387   3.191   5.070   9.779  0.0833 -0.3433  0.7469
  156SAPE   H5R17388   3.170   4.968   9.813  1.6199  0.0298  3.0176
  156SAPE   C2617389   3.210   5.097   9.645 -0.6156  0.4720  0.0251
  156SAPE   H6R17390   3.163   5.023   9.578 -0.6605 -1.6517  2.2529
  156SAPE   C2717391   3.256   5.219   9.581  0.1454 -0.8585 -0.5504
  156SAPE   H7R17392   3.194   5.302   9.618 -0.2455 -0.2463 -2.4738
  156SAPE   H7S17393   3.223   5.230   9.475  0.6312  1.1563 -0.5313
  156SAPE   C2817394   3.403   5.259   9.599  0.4756  0.4317  0.0151
  156SAPE   H8R17395   3.434   5.305   9.694  1.2514 -0.8349  0.4086
  156SAPE   C2917396   3.496   5.235   9.506  0.6962 -0.4783  0.5023
  156SAPE   H9R17397   3.603   5.255   9.518  0.3276  1.6646  0.5761
  156SAPE  C21017398   3.469   5.171   9.374  0.4986  0.3644  0.1624
  156SAPE  H10R17399   3.404   5.242   9.320  2.1983  1.9528  0.1086
  156SAPE  H10S17400   3.410   5.079   9.395 -1.0859  1.9137  3.3097
  156SAPE  C21117401   3.596   5.123   9.300  0.2939 -1.0283 -0.0283
  156SAPE  H11R17402   3.657   5.050   9.354 -0.1493 -1.6144 -0.3067
  156SAPE  C21217403   3.646   5.166   9.184 -0.6789  0.3330 -0.0943
  156SAPE  H12R17404   3.741   5.125   9.148 -1.2956 -0.0942 -1.2965
  156SAPE  C21317405   3.575   5.272   9.101 -0.7142 -0.5322  0.2729
  156SAPE  H13R17406   3.565   5.363   9.164  1.6748 -0.4890  0.6566
  156SAPE  H13S17407   3.471   5.233   9.094 -1.9797  2.0704  2.5928
  156SAPE  C21417408   3.643   5.290   8.968  0.7575 -0.1574  0.0456
  156SAPE  H14R17409   3.731   5.356   8.960 -0.1967  1.2219  0.6215
  156SAPE  C21517410   3.610   5.225   8.855  0.2010 -0.3290  0.1601
  156SAPE  H15R17411   3.659   5.256   8.762 -0.3388  0.8441  0.2506
  156SAPE  C21617412   3.494   5.133   8.831 -0.7771  0.0802 -0.3845
  156SAPE  H16R17413   3.456   5.092   8.927 -2.1700  0.9449 -0.5333
  156SAPE  H16S17414   3.532   5.042   8.780 -0.5898 -0.2455  0.3227
  156SAPE  C21717415   3.370   5.191   8.762  0.9193  0.6775  0.3342
  156SAPE  H17R17416   3.394   5.259   8.678 -0.1511  0.0636 -0.4960
  156SAPE  H17S17417   3.314   5.251   8.837  0.6927  1.7335 -0.6656
  156SAPE  C21817418   3.287   5.074   8.710  0.2115  0.5888  0.3526
  156SAPE  H18R17419   3.257   5.018   8.801 -0.0361  1.2639  0.6933
  156SAPE  H18S17420   3.345   4.996   8.655  0.1049 -0.3336  1.5160
  156SAPE  C21917421   3.161   5.116   8.627 -0.5997  0.2281  0.5230
  156SAPE  H19R17422   3.102   5.023   8.613 -2.7504  1.7796 -1.5872
  156SAPE  H19S17423   3.199   5.141   8.526 -0.3170 -1.2559  0.2456
  156SAPE  C22017424   3.076   5.220   8.696  0.8497 -0.2295 -0.2474
  156SAPE  H20R17425   3.070   5.200   8.806 -0.1061  1.7791  0.1241
  156SAPE  H20S17426   2.979   5.240   8.646  1.4895  3.1527 -0.3520
  156SAPE  H20T17427   3.134   5.315   8.694  1.2419 -0.3899  1.4021
  156SAPE   C3317428   2.632   5.003  10.116 -0.6805  0.6527  0.0649
  156SAPE   H3X17429   2.591   5.061  10.200  0.6295  2.7858 -0.6947
  156SAPE   H3Y17430   2.558   4.974  10.038 -0.4303 -1.6325  0.6021
  156SAPE   C3417431   2.733   5.097  10.046 -0.1090 -0.5966  0.3877
  156SAPE   H4X17432   2.811   5.116  10.123  0.1514  1.6456 -0.3595
  156SAPE   H4Y17433   2.685   5.193  10.018 -0.1515 -1.3650 -2.4651
  156SAPE   C3517434   2.811   5.048   9.925 -0.1652  0.6711  0.2331
  156SAPE   H5X17435   2.869   4.956   9.947 -0.7293  0.0865 -0.6489
  156SAPE   H5Y17436   2.880   5.124   9.881 -0.0732 -0.5790 -1.9464
  156SAPE   C3617437   2.719   5.001   9.812 -0.8574 -0.5889  0.5265
  156SAPE   H6X17438   2.652   5.080   9.773  1.3440  0.3490 -1.6459
  156SAPE   H6Y17439   2.652   4.918   9.843  0.8758 -2.1344  0.3630
  156SAPE   C3717440   2.791   4.949   9.695 -0.2372  0.4967  0.1425
  156SAPE   H7X17441   2.856   4.862   9.717 -0.9617 -0.2073 -0.4300
  156SAPE   H7Y17442   2.863   5.017   9.645  1.6516 -1.3713  0.1754
  156SAPE   C3817443   2.699   4.913   9.573  0.6883  0.2573 -0.3099
  156SAPE   H8X17444   2.647   5.006   9.542 -1.1879 -0.5868  0.1598
  156SAPE   H8Y17445   2.617   4.849   9.612 -0.3876  2.0061  0.4666
  156SAPE   C3917446   2.771   4.836   9.459  0.0319  1.2179 -0.7045
  156SAPE   H9X17447   2.792   4.733   9.494  0.6305  0.8816 -1.9943
  156SAPE   H9Y17448   2.872   4.877   9.436  1.6347 -2.0960 -0.0691
  156SAPE  C31017449   2.697   4.807   9.328  0.1541 -0.0329 -0.0466
  156SAPE  H10X17450   2.613   4.880   9.321  0.9526  0.7426 -2.6048
  156SAPE  H10Y17451   2.670   4.700   9.329  0.8339 -0.2531 -2.1414
  156SAPE  C31117452   2.779   4.825   9.203 -0.0209  0.0009 -0.0530
  156SAPE  H11X17453   2.883   4.786   9.205 -0.0068  0.0333  1.6704
  156SAPE  H11Y17454   2.778   4.936   9.193 -1.7218 -0.0480 -0.7952
  156SAPE  C31217455   2.688   4.779   9.083  0.0646  0.1264  0.1887
  156SAPE  H12X17456   2.596   4.841   9.077  0.2951  0.4865  0.3440
  156SAPE  H12Y17457   2.664   4.675   9.114 -1.2433  0.6628  1.0309
  156SAPE  C31317458   2.768   4.796   8.952  0.1531 -0.1461 -0.2451
  156SAPE  H13X17459   2.854   4.726   8.953  2.0097  2.0285  0.3959
  156SAPE  H13Y17460   2.809   4.898   8.941 -0.6108  0.1915  0.0121
  156SAPE  C31417461   2.679   4.774   8.832 -0.9336  0.0807  0.8838
  156SAPE  H14X17462   2.608   4.859   8.821 -1.5451 -0.6185 -1.0747
  156SAPE  H14Y17463   2.628   4.675   8.839  1.3662 -1.4985 -2.2150
  156SAPE  C31517464   2.747   4.756   8.693 -0.6487 -0.0155 -0.3676
  156SAPE  H15X17465   2.826   4.679   8.694  0.7689  1.3298 -1.9913
  156SAPE  H15Y17466   2.817   4.842   8.685 -2.5942  1.5312 -2.0142
  156SAPE  C31617467   2.669   4.698   8.576  0.4935  0.0287  0.1400
  156SAPE  H16X17468   2.723   4.730   8.484 -3.2324  1.2366 -1.8377
  156SAPE  H16Y17469   2.575   4.757   8.563  0.2928 -0.4483 -0.6349
  156SAPE  C31717470   2.649   4.544   8.570 -0.1809  0.2120 -0.2584
  156SAPE  H17X17471   2.574   4.504   8.642  0.2408 -1.8529 -0.8758
  156SAPE  H17Y17472   2.741   4.482   8.581 -1.4327 -1.6063  0.4264
  156SAPE  C31817473   2.585   4.513   8.435  0.0523  0.3264 -0.6345
  156SAPE  H18X17474   2.481   4.552   8.424  0.2644  0.9005 -0.6589
  156SAPE  H18Y17475   2.595   4.407   8.403 -1.7499  0.5822 -2.2586
  156SAPE  H18Z17476   2.651   4.573   8.367  0.4242 -1.8573 -2.3256
  157SAPE     N17477   4.754   6.721  10.634 -0.2407 -0.9023 -0.0655
  157SAPE   HN117478   4.733   6.686  10.539 -1.5765  1.1626 -0.5768
  157SAPE   HN217479   4.835   6.676  10.682  0.5963  0.3666 -0.2660
  157SAPE   HN317480   4.672   6.697  10.693 -0.6344  2.9083  1.2089
  157SAPE   C1217481   4.764   6.874  10.644 -0.1463 -0.0248  1.2533
  157SAPE  H12A17482   4.759   6.904  10.750 -0.5807 -0.2116  1.2898
  157SAPE  H12B17483   4.667   6.904  10.597  1.1058 -1.0891 -2.3786
  157SAPE   C1117484   4.873   6.929  10.550  0.4449 -0.1911 -0.1187
  157SAPE  H11A17485   4.868   7.040  10.547 -2.8840 -0.2482 -0.1739
  157SAPE  H11B17486   4.849   6.903  10.444 -3.2081 -2.0564  0.9887
  157SAPE     P17487   5.079   6.961  10.699 -0.2780  0.2901 -0.0015
  157SAPE   O1317488   4.981   7.030  10.782 -0.4037  0.0186  0.0894
  157SAPE   O1417489   5.168   6.864  10.767  0.1333  0.1720  0.0421
  157SAPE   O1217490   5.006   6.884  10.584  0.8432 -0.1593 -0.1108
  157SAPE   O1117491   5.157   7.070  10.627  0.6385  0.6218  0.5492
  157SAPE    C117492   5.101   7.183  10.563 -0.1360  0.3028 -0.0971
  157SAPE    HA17493   5.044   7.151  10.473  0.2823 -0.3245 -0.1416
  157SAPE    HB17494   5.018   7.233  10.618 -0.8127 -2.1459  1.2218
  157SAPE    C217495   5.207   7.286  10.532 -0.3037  0.2881  0.1017
  157SAPE    HS17496   5.163   7.374  10.480 -0.8880 -0.0513  0.0237
  157SAPE   O2117497   5.316   7.235  10.448 -0.0577  0.2344 -0.1362
  157SAPE   C2117498   5.290   7.190  10.327 -0.4173  0.2145  0.1160
  157SAPE   O2217499   5.185   7.194  10.269 -0.0257 -0.6850  0.3015
  157SAPE   C2217500   5.428   7.152  10.270  1.0143  0.2739 -0.1288
  157SAPE   H2R17501   5.497   7.236  10.295  1.5204  0.0808 -0.8201
  157SAPE   H2S17502   5.459   7.057  10.320  0.9269 -0.1593 -0.8769
  157SAPE    C317503   5.267   7.323  10.670 -0.8455 -0.1432  0.6346
  157SAPE    HX17504   5.271   7.250  10.754  0.5776  2.5210  3.0657
  157SAPE    HY17505   5.193   7.388  10.721 -0.1656  1.2113 -0.0793
  157SAPE   O3117506   5.385   7.399  10.664  0.1524  0.3737 -0.0687
  157SAPE   C3117507   5.499   7.335  10.709  0.3449  0.9431 -0.6397
  157SAPE   O3217508   5.504   7.213  10.735 -0.9104  0.0651 -0.0088
  157SAPE   C3217509   5.605   7.435  10.747  0.2193 -0.0539 -0.1998
  157SAPE   H2X17510   5.627   7.438  10.856 -0.0570 -1.0642 -0.1105
  157SAPE   H2Y17511   5.562   7.537  10.738  0.2325  0.2069  1.9696
  157SAPE   C2317512   5.412   7.101  10.125 -0.0578  0.1199 -0.2778
  157SAPE   H3R17513   5.315   7.054  10.098 -1.8337  2.9873  0.6665
  157SAPE   H3S17514   5.497   7.042  10.086 -0.6137  0.0454 -1.4171
  157SAPE   C2417515   5.423   7.225  10.028  0.0097  0.1054 -0.1874
  157SAPE   H4R17516   5.516   7.283  10.048 -0.7787  0.7490  1.8767
  157SAPE   H4S17517   5.349   7.302  10.058  1.1041  0.9346  0.4640
  157SAPE   C2517518   5.410   7.208   9.879  0.0665  0.9483  0.1237
  157SAPE   H5R17519   5.500   7.189   9.819 -0.5170  3.9841 -1.9357
  157SAPE   C2617520   5.301   7.190   9.809 -0.1830  0.5435 -0.0602
  157SAPE   H6R17521   5.306   7.163   9.703 -0.5424  0.8319 -0.1548
  157SAPE   C2717522   5.154   7.190   9.854 -0.5627 -0.6542  0.2491
  157SAPE   H7R17523   5.095   7.270   9.803 -4.1691 -2.9013  0.4827
  157SAPE   H7S17524   5.146   7.215   9.962  0.6622 -0.4532  0.3041
  157SAPE   C2817525   5.082   7.069   9.808  0.6202  0.0679 -0.1959
  157SAPE   H8R17526   5.055   6.993   9.883  0.4599 -2.5583 -2.7209
  157SAPE   C2917527   5.010   7.048   9.694 -0.3177 -0.3719 -0.0854
  157SAPE   H9R17528   4.963   6.949   9.682  0.2020 -0.6742  0.3113
  157SAPE  C21017529   4.996   7.134   9.574 -0.0450  0.0337  0.2634
  157SAPE  H10R17530   5.050   7.231   9.584  0.9061 -0.7296  4.2646
  157SAPE  H10S17531   4.891   7.161   9.551  0.3580  1.5399  0.0792
  157SAPE  C21117532   5.053   7.071   9.450 -0.7807 -0.3054  0.2038
  157SAPE  H11R17533   5.140   7.007   9.467 -0.8170 -0.6071 -0.7206
  157SAPE  C21217534   5.016   7.086   9.319  0.2411  0.4571 -0.0827
  157SAPE  H12R17535   5.054   7.019   9.240 -2.7065 -1.5780  0.0722
  157SAPE  C21317536   4.898   7.161   9.267  0.5457 -1.0893  0.3238
  157SAPE  H13R17537   4.822   7.187   9.344  0.3284  0.9040 -0.4945
  157SAPE  H13S17538   4.854   7.091   9.194 -0.4792 -1.6874  1.4750
  157SAPE  C21417539   4.960   7.283   9.199  0.2606 -0.4519  0.0192
  157SAPE  H14R17540   5.018   7.350   9.264 -0.9363  2.3546 -1.5844
  157SAPE  C21517541   4.951   7.326   9.074 -0.0437  0.4454  0.6437
  157SAPE  H15R17542   5.003   7.417   9.039 -1.7733  0.6692 -1.5031
  157SAPE  C21617543   4.877   7.265   8.957 -0.7149  0.1595  0.4033
  157SAPE  H16R17544   4.826   7.344   8.898 -2.6737  0.8408  2.8444
  157SAPE  H16S17545   4.802   7.190   8.992  0.2663 -1.1540 -0.1945
  157SAPE  C21717546   4.968   7.201   8.853  0.1054 -0.5583  0.6224
  157SAPE  H17R17547   5.043   7.127   8.888  0.0256 -2.2278 -2.3957
  157SAPE  H17S17548   5.033   7.283   8.817  0.3448 -1.1841 -0.4301
  157SAPE  C21817549   4.900   7.155   8.715  0.6615 -0.2766  0.3755
  157SAPE  H18R17550   4.965   7.126   8.630 -0.3880  1.7706 -1.1860
  157SAPE  H18S17551   4.844   7.241   8.675  1.0446 -0.1340  0.1364
  157SAPE  C21917552   4.812   7.032   8.730 -0.3598 -0.2837  0.1234
  157SAPE  H19R17553   4.750   7.021   8.639  1.1759 -2.4925 -0.7440
  157SAPE  H19S17554   4.739   7.052   8.811 -1.3270  0.0421 -0.7997
  157SAPE  C22017555   4.889   6.912   8.782  0.0918 -0.3299  0.2165
  157SAPE  H20R17556   4.974   6.876   8.720  1.2264  1.1310  0.8683
  157SAPE  H20S17557   4.824   6.823   8.798 -0.2448 -0.0173  0.6066
  157SAPE  H20T17558   4.925   6.933   8.885  0.5282  1.7682 -0.3104
  157SAPE   C3317559   5.740   7.423  10.672 -0.2948 -0.0233 -0.8468
  157SAPE   H3X17560   5.722   7.423  10.562  0.3540 -1.5192 -0.9646
  157SAPE   H3Y17561   5.787   7.331  10.712 -1.4737 -0.4628 -0.4060
  157SAPE   C3417562   5.831   7.543  10.688 -0.2418 -0.3938  0.4940
  157SAPE   H4X17563   5.821   7.584  10.791 -2.0688 -1.0674  0.6278
  157SAPE   H4Y17564   5.790   7.629  10.631  0.1581  1.1451  2.4257
  157SAPE   C3517565   5.970   7.513  10.642 -0.4978 -0.0142  0.3134
  157SAPE   H5X17566   5.976   7.520  10.531 -0.5294 -0.8688  0.2528
  157SAPE   H5Y17567   6.000   7.408  10.664 -1.2504 -1.1493 -3.4125
  157SAPE   C3617568   6.089   7.607  10.678  0.3440  0.0920  0.1318
  157SAPE   H6X17569   6.089   7.624  10.788  0.1776  0.1431  0.1237
  157SAPE   H6Y17570   6.075   7.706  10.630  1.9118  0.5132  0.4775
  157SAPE   C3717571   6.232   7.573  10.634 -1.3034 -0.8206 -0.4015
  157SAPE   H7X17572   6.258   7.492  10.706  2.2073  1.1769  0.7763
  157SAPE   H7Y17573   6.297   7.662  10.643  0.0215 -1.4790 -2.7423
  157SAPE   C3817574   6.249   7.505  10.498 -0.6572 -0.3289 -0.4450
  157SAPE   H8X17575   6.187   7.566  10.428  0.2587  1.9678  0.6458
  157SAPE   H8Y17576   6.218   7.399  10.502 -0.7679 -0.3369 -1.3832
  157SAPE   C3917577   6.391   7.515  10.445 -0.1234  0.3877  0.4427
  157SAPE   H9X17578   6.463   7.496  10.529 -0.6469 -0.6502  0.6701
  157SAPE   H9Y17579   6.408   7.620  10.411 -1.9003 -0.1485 -2.4165
  157SAPE  C31017580   6.427   7.402  10.336  0.5903 -0.4068  0.5498
  157SAPE  H10X17581   6.341   7.332  10.335  1.6835 -2.0937  4.4623
  157SAPE  H10Y17582   6.521   7.345  10.354  1.7733 -0.1862 -3.8657
  157SAPE  C31117583   6.456   7.469  10.197 -0.3597 -0.3739  0.5253
  157SAPE  H11X17584   6.546   7.533  10.208  0.4559 -1.3004 -0.5307
  157SAPE  H11Y17585   6.361   7.520  10.174  0.4288  1.1149  0.4518
  157SAPE  C31217586   6.465   7.353  10.098  0.0208 -0.8896  0.4490
  157SAPE  H12X17587   6.361   7.313  10.103  0.2549 -2.1709 -2.9069
  157SAPE  H12Y17588   6.540   7.278  10.131 -2.1225 -2.1404  2.8113
  157SAPE  C31317589   6.487   7.399   9.952  0.0943  0.0442 -0.0696
  157SAPE  H13X17590   6.580   7.457   9.938  1.8707 -2.7157 -0.5153
  157SAPE  H13Y17591   6.404   7.464   9.918 -2.5133 -2.2054  1.4691
  157SAPE  C31417592   6.493   7.274   9.860 -0.1999 -0.4227 -0.0298
  157SAPE  H14X17593   6.394   7.225   9.868 -1.1364  0.7088 -3.3159
  157SAPE  H14Y17594   6.569   7.210   9.910  0.0016 -1.2286 -1.3365
  157SAPE  C31517595   6.514   7.310   9.715  0.4706  0.0262 -0.2807
  157SAPE  H15X17596   6.579   7.400   9.707  0.2476  0.0386 -2.5068
  157SAPE  H15Y17597   6.413   7.337   9.676  0.4047 -0.2599 -0.3109
  157SAPE  C31617598   6.570   7.199   9.635  0.1349 -0.5364 -0.2351
  157SAPE  H16X17599   6.661   7.158   9.683  0.9148  2.0040  0.6079
  157SAPE  H16Y17600   6.605   7.234   9.535 -1.3375 -1.7845 -1.2279
  157SAPE  C31717601   6.476   7.075   9.628  0.3036  0.0588  0.3199
  157SAPE  H17X17602   6.447   7.046   9.731  2.4635  1.2069  1.3073
  157SAPE  H17Y17603   6.533   6.990   9.585  2.3263  1.9229 -0.8773
  157SAPE  C31817604   6.353   7.095   9.534 -0.2132  0.0493  0.0343
  157SAPE  H18X17605   6.307   6.996   9.517  0.4505 -0.1201 -0.8743
  157SAPE  H18Y17606   6.370   7.134   9.431 -1.1185 -2.3572 -1.0979
  157SAPE  H18Z17607   6.284   7.164   9.587  0.8975  1.0291  0.2554
  158SAPE     N17608   0.950   5.254  10.706 -0.1166 -0.8820 -0.5095
  158SAPE   HN117609   1.036   5.281  10.759 -0.6106 -1.1754  0.4656
  158SAPE   HN217610   0.870   5.258  10.771 -1.2625  1.6427 -1.9469
  158SAPE   HN317611   0.959   5.155  10.675  1.8216 -0.4397 -1.5484
  158SAPE   C1217612   0.928   5.349  10.596 -0.5134 -0.1441 -0.9383
  158SAPE  H12A17613   0.880   5.439  10.639 -1.0805 -1.3899  1.1961
  158SAPE  H12B17614   0.846   5.312  10.531 -0.6961 -1.1404 -0.1700
  158SAPE   C1117615   1.064   5.371  10.537 -0.0982  0.4309 -0.4198
  158SAPE  H11A17616   1.055   5.467  10.483  0.0990  0.6068 -0.1434
  158SAPE  H11B17617   1.096   5.297  10.461 -1.0643 -1.4804  0.9376
  158SAPE     P17618   1.265   5.494  10.655 -0.1481  0.2463 -0.0065
  158SAPE   O1317619   1.201   5.592  10.747  0.0146 -0.1721  0.0969
  158SAPE   O1417620   1.403   5.446  10.682  0.4985 -0.3712 -0.6791
  158SAPE   O1217621   1.170   5.372  10.629 -0.7300 -0.0315 -0.7597
  158SAPE   O1117622   1.274   5.548  10.511  0.6814 -0.6964  0.6901
  158SAPE    C117623   1.364   5.497  10.410  0.6375  0.0602 -0.1867
  158SAPE    HA17624   1.464   5.523  10.450  0.1674 -1.7228  2.3713
  158SAPE    HB17625   1.349   5.387  10.397  1.8807 -0.1684  0.1955
  158SAPE    C217626   1.342   5.574  10.276 -0.8987 -0.0705 -0.7585
  158SAPE    HS17627   1.358   5.680  10.305 -1.8346 -0.5898  1.9462
  158SAPE   O2117628   1.206   5.549  10.233 -0.8096 -0.4610 -0.1420
  158SAPE   C2117629   1.130   5.643  10.179  0.5337  0.0427 -0.2043
  158SAPE   O2217630   1.174   5.752  10.151 -0.0205 -0.0463  0.1602
  158SAPE   C2217631   1.005   5.576  10.127  0.7120 -0.0853  0.6624
  158SAPE   H2R17632   1.039   5.499  10.054 -2.3097 -2.0837  1.1760
  158SAPE   H2S17633   0.962   5.518  10.212  2.2051 -1.4315  0.5580
  158SAPE    C317634   1.456   5.532  10.167  0.3777 -0.1488 -1.2336
  158SAPE    HX17635   1.422   5.440  10.116  1.9096 -0.4052 -1.8481
  158SAPE    HY17636   1.550   5.516  10.224 -0.4838  2.1306  1.0481
  158SAPE   O3117637   1.477   5.626  10.056 -0.0395 -0.4613 -0.2614
  158SAPE   C3117638   1.515   5.745  10.084 -0.1371 -0.1686  0.6726
  158SAPE   O3217639   1.549   5.785  10.194 -0.0993  0.5757  0.6138
  158SAPE   C3217640   1.506   5.836   9.957 -0.4015 -0.4627 -0.0788
  158SAPE   H2X17641   1.547   5.934   9.987 -0.7084 -0.5183  0.5503
  158SAPE   H2Y17642   1.401   5.873   9.947 -0.2816  0.3670  1.4551
  158SAPE   C2317643   0.891   5.665  10.072 -0.0639  0.5116 -0.5164
  158SAPE   H3R17644   0.921   5.742   9.997  0.0884 -0.3273 -1.3322
  158SAPE   H3S17645   0.833   5.726  10.145 -0.6750  0.1899 -0.7180
  158SAPE   C2417646   0.769   5.591  10.008  0.2144 -0.3111  0.3670
  158SAPE   H4R17647   0.687   5.662   9.987 -0.5001 -0.8858  1.1219
  158SAPE   H4S17648   0.719   5.537  10.092  2.0641 -1.5446  0.7530
  158SAPE   C2517649   0.807   5.517   9.885 -0.0678  0.4729  0.6549
  158SAPE   H5R17650   0.912   5.484   9.888 -0.2967 -0.2118  1.3791
  158SAPE   C2617651   0.746   5.501   9.763 -0.7397  0.5984  0.4768
  158SAPE   H6R17652   0.792   5.431   9.691 -0.5673 -1.0198  2.0802
  158SAPE   C2717653   0.616   5.572   9.729  0.3628  0.4412 -1.0273
  158SAPE   H7R17654   0.541   5.549   9.807  0.6939  0.1276 -0.8011
  158SAPE   H7S17655   0.568   5.519   9.644  2.2772 -1.5788 -0.9440
  158SAPE   C2817656   0.629   5.719   9.707 -0.4761 -0.1281 -0.1954
  158SAPE   H8R17657   0.623   5.783   9.796  0.3518  0.6184 -0.6581
  158SAPE   C2917658   0.619   5.783   9.589 -0.0777  0.3822  0.4916
  158SAPE   H9R17659   0.628   5.893   9.589  0.4254  0.3421  0.2727
  158SAPE  C21017660   0.590   5.714   9.457 -0.2009 -0.5835 -0.0165
  158SAPE  H10R17661   0.648   5.619   9.462 -0.9698 -1.1242 -1.0020
  158SAPE  H10S17662   0.637   5.772   9.375  1.3603 -1.7720 -0.0197
  158SAPE  C21117663   0.444   5.697   9.432 -0.1268 -0.8188  0.4458
  158SAPE  H11R17664   0.387   5.682   9.524 -0.4032  0.3646  0.4855
  158SAPE  C21217665   0.388   5.702   9.307 -0.2459  0.4305 -0.8641
  158SAPE  H12R17666   0.279   5.688   9.304 -0.4754  2.1965 -1.4863
  158SAPE  C21317667   0.446   5.725   9.171  0.0402  0.3462  0.0348
  158SAPE  H13R17668   0.395   5.643   9.117  1.0617  0.3009 -0.9129
  158SAPE  H13S17669   0.557   5.720   9.170  0.1115  1.6700 -0.8709
  158SAPE  C21417670   0.419   5.863   9.112  0.5866 -0.0146  0.1276
  158SAPE  H14R17671   0.453   5.947   9.175 -0.5633  0.3835  0.2370
  158SAPE  C21517672   0.369   5.892   8.991  0.3522  0.1139  0.7548
  158SAPE  H15R17673   0.371   5.997   8.957 -0.2861 -0.4428 -1.0995
  158SAPE  C21617674   0.314   5.798   8.887 -0.8013  0.2365 -0.1460
  158SAPE  H16R17675   0.207   5.823   8.868 -1.1791 -1.3721 -0.2532
  158SAPE  H16S17676   0.307   5.695   8.929  0.3345  0.5693  0.9351
  158SAPE  C21717677   0.402   5.773   8.764  0.1864 -0.4280 -0.4905
  158SAPE  H17R17678   0.507   5.753   8.792  1.2550  4.2054 -0.2934
  158SAPE  H17S17679   0.414   5.865   8.702 -0.2530 -0.1531 -0.1723
  158SAPE  C21817680   0.344   5.665   8.681 -0.4176  0.4749 -0.1595
  158SAPE  H18R17681   0.270   5.701   8.607  0.8742  0.8963 -1.2874
  158SAPE  H18S17682   0.286   5.591   8.741 -3.0840  2.3552 -0.2693
  158SAPE  C21917683   0.447   5.587   8.599  0.3567 -0.0806  0.6628
  158SAPE  H19R17684   0.527   5.544   8.664  1.4625  1.0113  0.0556
  158SAPE  H19S17685   0.496   5.662   8.534  0.1417 -1.1593 -0.7946
  158SAPE  C22017686   0.386   5.482   8.512 -0.3545  0.5007 -0.0694
  158SAPE  H20R17687   0.330   5.411   8.577 -0.7295 -0.8867 -1.8022
  158SAPE  H20S17688   0.448   5.408   8.456 -2.7127 -2.5425  1.0889
  158SAPE  H20T17689   0.321   5.522   8.431 -0.5615  1.8991  0.7639
  158SAPE   C3317690   1.575   5.777   9.830  0.0887 -0.4896  0.3133
  158SAPE   H3X17691   1.510   5.692   9.798 -0.9642  0.5421 -0.3523
  158SAPE   H3Y17692   1.672   5.728   9.854  0.9111  0.1396 -1.5398
  158SAPE   C3417693   1.581   5.892   9.727  0.3040  0.7059 -0.4354
  158SAPE   H4X17694   1.651   5.970   9.762 -0.8336  1.0271  1.2742
  158SAPE   H4Y17695   1.477   5.930   9.719  0.0229  0.0943  0.1798
  158SAPE   C3517696   1.627   5.831   9.589  0.0441 -0.5296  0.2027
  158SAPE   H5X17697   1.718   5.771   9.603  0.8025  0.7410  0.9081
  158SAPE   H5Y17698   1.664   5.918   9.531 -0.3599 -0.2749  0.3218
  158SAPE   C3617699   1.519   5.759   9.505  0.5856  0.1747  0.4196
  158SAPE   H6X17700   1.421   5.812   9.494 -0.4762 -2.0902 -2.9709
  158SAPE   H6Y17701   1.505   5.666   9.563 -0.6983  0.7342  1.0442
  158SAPE   C3717702   1.563   5.738   9.360  0.6043  0.1576 -0.5596
  158SAPE   H7X17703   1.660   5.684   9.363  1.2455  1.2510 -0.7968
  158SAPE   H7Y17704   1.587   5.827   9.297  2.0903  0.6028  0.5705
  158SAPE   C3817705   1.467   5.659   9.267  0.4658 -0.5448 -0.1409
  158SAPE   H8X17706   1.367   5.705   9.284 -0.2108 -1.6180 -1.0716
  158SAPE   H8Y17707   1.463   5.553   9.301 -0.0166 -0.2529  0.7428
  158SAPE   C3917708   1.516   5.648   9.130  0.5125 -0.5396  0.9616
  158SAPE   H9X17709   1.609   5.594   9.105  0.0348 -0.1605 -2.0092
  158SAPE   H9Y17710   1.521   5.754   9.095 -1.8515  0.3419  2.9318
  158SAPE  C31017711   1.419   5.575   9.040  0.6348  0.4492 -0.3523
  158SAPE  H10X17712   1.318   5.622   9.031  0.4790  0.2016  0.0833
  158SAPE  H10Y17713   1.402   5.470   9.070  1.5653 -0.3530 -2.4618
  158SAPE  C31117714   1.480   5.563   8.896 -0.3658 -0.1777  0.6137
  158SAPE  H11X17715   1.581   5.519   8.901 -0.2406  0.1232  0.7543
  158SAPE  H11Y17716   1.505   5.662   8.852 -1.3474 -0.5018 -0.7536
  158SAPE  C31217717   1.407   5.466   8.802  0.0008  0.0681 -0.3757
  158SAPE  H12X17718   1.433   5.360   8.823  0.2999 -0.0869 -1.4391
  158SAPE  H12Y17719   1.443   5.461   8.697 -1.7443  0.1862 -1.0275
  158SAPE  C31317720   1.257   5.460   8.815 -0.9388 -0.2576  0.9987
  158SAPE  H13X17721   1.223   5.562   8.787  0.9856  0.6748  1.8421
  158SAPE  H13Y17722   1.234   5.425   8.918 -1.3471  0.5399  1.1883
  158SAPE  C31417723   1.194   5.365   8.718  0.2262 -0.2861  0.5081
  158SAPE  H14X17724   1.248   5.268   8.731  0.6769 -0.0839  0.1747
  158SAPE  H14Y17725   1.205   5.392   8.611  0.8591  0.4939  0.7510
  158SAPE  C31517726   1.046   5.333   8.757  0.3161 -0.8736 -0.3080
  158SAPE  H15X17727   0.996   5.431   8.773 -1.5010 -1.2869 -2.8940
  158SAPE  H15Y17728   1.055   5.279   8.854  0.7139 -0.8141 -0.3096
  158SAPE  C31617729   0.973   5.255   8.643  1.1316 -0.6922 -0.0777
  158SAPE  H16X17730   1.025   5.163   8.607  2.1802  0.3164 -1.2593
  158SAPE  H16Y17731   0.960   5.333   8.566 -0.0095 -0.0704  0.7220
  158SAPE  C31717732   0.826   5.224   8.688  0.4392  0.3505 -0.6458
  158SAPE  H17X17733   0.792   5.329   8.704  2.5621  0.7345  2.0447
  158SAPE  H17Y17734   0.822   5.177   8.789  0.6043 -2.0434 -1.6917
  158SAPE  C31817735   0.752   5.160   8.577  0.2851  0.7779 -0.4035
  158SAPE  H18X17736   0.783   5.219   8.488 -0.5957 -1.7136 -2.4615
  158SAPE  H18Y17737   0.643   5.171   8.594  0.7192  0.7768  3.1610
  158SAPE  H18Z17738   0.779   5.054   8.558  0.8926  0.4255  2.0639
  159SAPE     N17739   6.052   0.242   6.452  0.5466 -0.1047 -0.0899
  159SAPE   HN117740   5.973   0.299   6.417  1.8919  1.0233 -1.4029
  159SAPE   HN217741   6.038   0.227   6.554  2.9412 -0.3673  0.2690
  159SAPE   HN317742   6.135   0.304   6.456  0.0036  0.6382 -0.2459
  159SAPE   C1217743   6.063   0.103   6.389  0.0512 -0.5817  0.4949
  159SAPE  H12A17744   6.143   0.053   6.447  0.9235  1.4695  1.1812
  159SAPE  H12B17745   6.098   0.128   6.286  1.2338 -1.7673  0.5893
  159SAPE   C1117746   5.923   0.045   6.399  0.5617  0.4870  0.0823
  159SAPE  H11A17747   5.883   0.050   6.503  0.6383 -0.5468  0.1762
  159SAPE  H11B17748   5.927  -0.062   6.369  0.0988  0.1047  1.2998
  159SAPE     P17749   5.681   0.053   6.311  0.3590  0.1860 -0.4457
  159SAPE   O1317750   5.588   0.154   6.263 -0.1683 -0.5148 -0.0401
  159SAPE   O1417751   5.690  -0.067   6.226 -0.5756 -0.6091 -0.7194
  159SAPE   O1217752   5.824   0.118   6.330 -0.5754  0.2540  0.2496
  159SAPE   O1117753   5.657   0.011   6.459  0.5343  0.6491 -0.1190
  159SAPE    C117754   5.608   0.104   6.550 -0.0787  0.2946 -0.4237
  159SAPE    HA17755   5.663   0.200   6.551  2.4041 -0.9974 -1.5906
  159SAPE    HB17756   5.503   0.127   6.522 -0.8967 -0.9018  1.4359
  159SAPE    C217757   5.606   0.033   6.698 -0.2139  0.0822 -0.2255
  159SAPE    HS17758   5.713   0.008   6.719  0.0435  0.7711 -0.6758
  159SAPE   O2117759   5.515  -0.078   6.692  0.3884  0.2258  1.0188
  159SAPE   C2117760   5.551  -0.189   6.747 -0.6640 -0.4014 -0.2935
  159SAPE   O2217761   5.658  -0.225   6.793 -0.3753  0.1772  0.2748
  159SAPE   C2217762   5.432  -0.287   6.735 -0.2725  0.2797 -0.3113
  159SAPE   H2R17763   5.347  -0.229   6.693 -0.0390  0.8056 -0.0646
  159SAPE   H2S17764   5.459  -0.369   6.664  1.3553  2.5960 -2.5483
  159SAPE    C317765   5.567   0.134   6.811  0.1956 -0.1024 -0.1529
  159SAPE    HX17766   5.458   0.156   6.808  0.2819  0.3700 -0.0475
  159SAPE    HY17767   5.616   0.231   6.787  1.2837 -0.6406 -0.1563
  159SAPE   O3117768   5.582   0.091   6.944  0.5689 -0.4466 -0.0726
  159SAPE   C3117769   5.710   0.068   6.992  0.2436  0.2298 -0.1397
  159SAPE   O3217770   5.809   0.072   6.913  0.5277 -0.1756 -0.6392
  159SAPE   C3217771   5.712   0.035   7.145 -0.4279 -0.2367 -0.1031
  159SAPE   H2X17772   5.659  -0.061   7.161 -2.2993  0.8945  0.8092
  159SAPE   H2Y17773   5.673   0.118   7.208 -0.0144 -0.7984  0.9296
  159SAPE   C2317774   5.391  -0.348   6.873  0.5619  0.1182  0.0191
  159SAPE   H3R17775   5.470  -0.415   6.913 -1.1257 -3.2742 -1.8889
  159SAPE   H3S17776   5.309  -0.422   6.860  0.6050 -0.3847  2.3294
  159SAPE   C2417777   5.343  -0.254   6.981  0.2466 -0.2193 -0.1409
  159SAPE   H4R17778   5.248  -0.208   6.944  0.8230  0.2040 -1.1186
  159SAPE   H4S17779   5.420  -0.175   6.992 -1.2843  1.4894 -1.0472
  159SAPE   C2517780   5.306  -0.314   7.113 -0.3749  0.9431 -0.3275
  159SAPE   H5R17781   5.216  -0.376   7.108  0.9670 -1.3768  2.0437
  159SAPE   C2617782   5.378  -0.326   7.231 -0.8425 -0.2605  0.0844
  159SAPE   H6R17783   5.330  -0.397   7.299 -0.4348 -1.3087 -0.6894
  159SAPE   C2717784   5.510  -0.267   7.261  0.3479  0.1871  0.0181
  159SAPE   H7R17785   5.498  -0.184   7.334  0.6025  0.6145 -0.4248
  159SAPE   H7S17786   5.571  -0.237   7.173 -1.2390 -0.3932 -1.3261
  159SAPE   C2817787   5.586  -0.380   7.329  0.7027  0.0386 -0.3875
  159SAPE   H8R17788   5.587  -0.476   7.276 -0.8706 -0.8719  1.1189
  159SAPE   C2917789   5.656  -0.377   7.441 -0.4705 -0.4299 -0.8429
  159SAPE   H9R17790   5.710  -0.468   7.470  0.5335  0.0893 -1.0376
  159SAPE  C21017791   5.668  -0.258   7.530 -0.8292  0.1448 -0.1642
  159SAPE  H10R17792   5.663  -0.168   7.465  2.0158  0.4409 -0.0875
  159SAPE  H10S17793   5.769  -0.247   7.574 -0.8821 -0.4316  0.1208
  159SAPE  C21117794   5.574  -0.246   7.647 -0.8880 -0.0285 -0.5563
  159SAPE  H11R17795   5.478  -0.296   7.631  0.2867 -2.2826 -0.9045
  159SAPE  C21217796   5.603  -0.182   7.765 -0.2386  0.1390  0.4273
  159SAPE  H12R17797   5.532  -0.175   7.848  1.2456  0.9929  1.6781
  159SAPE  C21317798   5.726  -0.105   7.807  0.8001 -0.6561  0.6001
  159SAPE  H13R17799   5.692  -0.014   7.861 -1.1343  1.3615 -3.5816
  159SAPE  H13S17800   5.777  -0.056   7.721 -1.5146  0.7405 -0.0409
  159SAPE  C21417801   5.818  -0.198   7.883  0.0177  0.7018 -0.6315
  159SAPE  H14R17802   5.848  -0.294   7.837 -0.3205 -1.3326  3.0562
  159SAPE  C21517803   5.861  -0.182   8.004 -0.1916 -0.3660  0.3838
  159SAPE  H15R17804   5.913  -0.264   8.056  1.4624  1.3455  1.5492
  159SAPE  C21617805   5.833  -0.054   8.088 -0.3364  0.4584 -0.2511
  159SAPE  H16R17806   5.781   0.034   8.044  0.8897  0.8574 -0.9287
  159SAPE  H16S17807   5.933  -0.011   8.109 -1.1569  1.9665  0.7562
  159SAPE  C21717808   5.755  -0.081   8.215 -0.1012 -0.8759  0.4989
  159SAPE  H17R17809   5.806  -0.167   8.263  0.1808 -3.0592 -3.3375
  159SAPE  H17S17810   5.658  -0.128   8.188  0.1708 -0.6052 -1.0638
  159SAPE  C21817811   5.716   0.046   8.303  0.0980 -0.2681 -0.4947
  159SAPE  H18R17812   5.640   0.016   8.377  0.8324 -1.0505 -0.0445
  159SAPE  H18S17813   5.678   0.121   8.231  1.0238  0.2061 -0.5063
  159SAPE  C21917814   5.831   0.109   8.381 -0.0077 -0.1288  0.5086
  159SAPE  H19R17815   5.903   0.167   8.319 -1.1541  0.2629 -0.4820
  159SAPE  H19S17816   5.887   0.041   8.449  0.8711 -0.8121 -0.8578
  159SAPE  C22017817   5.780   0.208   8.483 -0.5148  0.2234  0.0411
  159SAPE  H20R17818   5.695   0.165   8.539 -1.5992  2.4104  0.1736
  159SAPE  H20S17819   5.744   0.300   8.432  0.4122  0.7624  0.3296
  159SAPE  H20T17820   5.854   0.237   8.561  1.1770  2.4415 -2.2203
  159SAPE   C3317821   5.858   0.033   7.194 -0.0582 -0.1090 -0.7181
  159SAPE   H3X17822   5.914   0.129   7.186  2.0027 -1.2137 -0.0857
  159SAPE   H3Y17823   5.926  -0.030   7.133  0.2542  0.7790 -1.3183
  159SAPE   C3417824   5.866  -0.027   7.334  0.2393  0.0622 -0.2845
  159SAPE   H4X17825   5.837  -0.132   7.317 -1.2726  0.5185 -0.6782
  159SAPE   H4Y17826   5.791   0.031   7.391  0.7346  0.0477  0.3916
  159SAPE   C3517827   6.010  -0.030   7.395  0.0478 -0.2421 -0.1417
  159SAPE   H5X17828   6.056   0.071   7.393 -0.2954  0.0215  2.2146
  159SAPE   H5Y17829   6.071  -0.097   7.330 -0.1899  1.0395 -1.7449
  159SAPE   C3617830   6.007  -0.087   7.539  0.0294 -0.0701  0.1797
  159SAPE   H6X17831   5.961  -0.188   7.531 -0.3774 -0.0843  2.1430
  159SAPE   H6Y17832   5.941  -0.020   7.599 -1.3446 -3.2353  2.4790
  159SAPE   C3717833   6.140  -0.099   7.610  0.4679  0.2514  0.1452
  159SAPE   H7X17834   6.179   0.005   7.604  0.8907  0.0997  0.2757
  159SAPE   H7Y17835   6.213  -0.156   7.549  1.1988 -0.8051  1.9444
  159SAPE   C3817836   6.143  -0.133   7.756  0.1796 -0.5371  0.5762
  159SAPE   H8X17837   6.115  -0.240   7.757  1.3380 -0.8729 -0.0997
  159SAPE   H8Y17838   6.076  -0.072   7.819  0.3234  0.1769  0.0505
  159SAPE   C3917839   6.288  -0.116   7.811  0.6541 -0.2746  0.9705
  159SAPE   H9X17840   6.323  -0.014   7.782 -0.7584 -0.0127  0.0820
  159SAPE   H9Y17841   6.360  -0.191   7.772 -1.8533 -1.7659 -1.1925
  159SAPE  C31017842   6.287  -0.137   7.963 -0.3261  0.0425 -0.2892
  159SAPE  H10X17843   6.212  -0.065   8.004  0.7808 -0.9195  3.9074
  159SAPE  H10Y17844   6.391  -0.112   7.991  0.7030 -2.9725 -1.1208
  159SAPE  C31117845   6.261  -0.282   7.996 -0.2174  0.4942 -0.1412
  159SAPE  H11X17846   6.336  -0.345   7.943 -0.2536 -0.6476  1.1103
  159SAPE  H11Y17847   6.160  -0.317   7.964 -0.3945 -0.3938  1.2857
  159SAPE  C31217848   6.265  -0.306   8.150 -0.7121  0.5542  0.5997
  159SAPE  H12X17849   6.367  -0.279   8.186  0.0586  1.0678 -1.8050
  159SAPE  H12Y17850   6.252  -0.415   8.168 -2.7156  0.8504  1.1451
  159SAPE  C31317851   6.164  -0.235   8.232  0.6115 -0.1855 -0.0148
  159SAPE  H13X17852   6.066  -0.287   8.228 -0.1592  1.2339 -0.1898
  159SAPE  H13Y17853   6.149  -0.138   8.179  2.9188  1.3539  1.9119
  159SAPE  C31417854   6.212  -0.209   8.380 -0.0296  0.0994  0.1724
  159SAPE  H14X17855   6.318  -0.176   8.388  1.1759 -2.8721 -1.7377
  159SAPE  H14Y17856   6.208  -0.315   8.416  0.3670  0.3833  1.0737
  159SAPE  C31517857   6.106  -0.108   8.456  0.0874  0.1139  0.5981
  159SAPE  H15X17858   6.002  -0.147   8.451  0.3758 -0.8326  1.6982
  159SAPE  H15Y17859   6.115  -0.007   8.409 -0.2053  0.1599  0.6368
  159SAPE  C31617860   6.143  -0.104   8.602 -0.0901 -0.2049 -0.0289
  159SAPE  H16X17861   6.250  -0.075   8.602 -0.1293 -0.0117  1.1738
  159SAPE  H16Y17862   6.122  -0.206   8.641 -1.3973 -0.0791 -0.3648
  159SAPE  C31717863   6.068  -0.000   8.691 -0.8262 -0.2905 -0.0008
  159SAPE  H17X17864   6.087  -0.022   8.798 -0.4864 -1.9925 -0.3878
  159SAPE  H17Y17865   5.958  -0.008   8.685 -0.6459 -3.4507 -1.1019
  159SAPE  C31817866   6.109   0.144   8.675 -0.9156 -0.2151 -0.5338
  159SAPE  H18X17867   6.052   0.218   8.736  2.7115  0.8525  1.8848
  159SAPE  H18Y17868   6.092   0.171   8.568  0.5689  0.8351 -0.5397
  159SAPE  H18Z17869   6.215   0.171   8.696  0.0379 -2.4657 -2.1597
  160SAPE     N17870   0.001   1.778   6.402  0.0341  0.2804  0.0296
  160SAPE   HN117871   0.045   1.726   6.323 -2.1187 -1.4882 -0.1031
  160SAPE   HN217872   0.066   1.848   6.442 -1.0290  0.6479  1.1671
  160SAPE   HN317873  -0.021   1.708   6.475  1.5257 -1.0808 -0.7619
  160SAPE   C1217874  -0.124   1.845   6.355  0.1949 -0.7097 -0.0347
  160SAPE  H12A17875  -0.186   1.770   6.300 -0.4457 -1.3037  1.4537
  160SAPE  H12B17876  -0.089   1.918   6.279 -1.8922 -1.1974 -1.5453
  160SAPE   C1117877  -0.204   1.903   6.474 -0.2089  0.1181 -0.5365
  160SAPE  H11A17878  -0.304   1.945   6.449 -0.1244  1.5649  1.3399
  160SAPE  H11B17879  -0.138   1.980   6.519  0.0016 -0.5780  0.3795
  160SAPE     P17880  -0.339   1.752   6.637 -0.0924  0.1425 -0.1529
  160SAPE   O1317881  -0.404   1.660   6.537  0.3295  0.2539 -0.6860
  160SAPE   O1417882  -0.308   1.691   6.769  0.1564 -0.4781  0.3574
  160SAPE   O1217883  -0.205   1.803   6.574 -0.4995 -0.6116 -0.7390
  160SAPE   O1117884  -0.420   1.887   6.656  0.1700 -0.1373  0.1338
  160SAPE    C117885  -0.561   1.876   6.677 -0.4989  0.3750 -0.2689
  160SAPE    HA17886  -0.606   1.966   6.631 -0.5903  1.0973  1.1792
  160SAPE    HB17887  -0.601   1.782   6.632  1.1453 -1.1114  1.2299
  160SAPE    C217888  -0.598   1.888   6.822  0.1245  0.1056  0.4833
  160SAPE    HS17889  -0.567   1.789   6.863  0.5349  0.4586  1.0360
  160SAPE   O2117890  -0.734   1.926   6.832  0.3021 -0.3292  0.0891
  160SAPE   C2117891  -0.812   1.826   6.868 -0.1000  0.7026  0.4752
  160SAPE   O2217892  -0.775   1.711   6.888  0.8266  0.2273  0.4900
  160SAPE   C2217893  -0.956   1.879   6.886 -0.1573  0.2096  0.2937
  160SAPE   H2R17894  -0.973   1.958   6.809 -1.4173  0.4924  0.8303
  160SAPE   H2S17895  -1.024   1.792   6.871 -0.6532  0.7081 -0.3780
  160SAPE    C317896  -0.527   1.994   6.902 -0.0680  0.2760  0.0150
  160SAPE    HX17897  -0.543   2.094   6.856 -2.4807  1.3574  2.8871
  160SAPE    HY17898  -0.420   1.964   6.901 -0.2164 -0.7742 -4.3353
  160SAPE   O3117899  -0.579   2.009   7.039  0.2551 -0.1937  0.0732
  160SAPE   C3117900  -0.530   1.930   7.126  0.0169 -0.1334  0.0587
  160SAPE   O3217901  -0.455   1.836   7.106 -0.2988 -0.6174  0.1559
  160SAPE   C3217902  -0.557   1.986   7.264 -0.7591 -0.1978 -0.4106
  160SAPE   H2X17903  -0.660   2.027   7.265 -0.0794  1.7546 -2.0529
  160SAPE   H2Y17904  -0.500   2.080   7.284 -1.8671  0.2593  0.7958
  160SAPE   C2317905  -0.965   1.950   7.020 -0.3760 -0.1558 -0.4719
  160SAPE   H3R17906  -1.063   2.003   7.020  0.0580  0.7037  0.8170
  160SAPE   H3S17907  -0.887   2.022   7.053 -0.2667 -1.0490  1.3062
  160SAPE   C2417908  -0.970   1.846   7.134 -0.4145  0.6092  0.1079
  160SAPE   H4R17909  -0.874   1.790   7.127  1.1439  3.0855  0.3690
  160SAPE   H4S17910  -1.058   1.783   7.109 -0.9643  2.1311 -1.9919
  160SAPE   C2517911  -0.992   1.918   7.265  0.1010  0.3888 -0.5368
  160SAPE   H5R17912  -1.023   2.023   7.252  1.1158  1.0580  1.8211
  160SAPE   C2617913  -0.948   1.876   7.389 -0.0491  0.4432 -0.2467
  160SAPE   H6R17914  -0.959   1.952   7.467 -1.1746  0.2783 -0.2349
  160SAPE   C2717915  -0.878   1.749   7.417  0.0258 -0.3752  0.4392
  160SAPE   H7R17916  -0.798   1.791   7.482 -3.0512  2.5518  2.6594
  160SAPE   H7S17917  -0.824   1.712   7.327 -2.0368  2.0262 -1.9531
  160SAPE   C2817918  -0.956   1.641   7.480 -0.2654  0.0371  0.0026
  160SAPE   H8R17919  -1.013   1.583   7.406  1.8299 -0.3850 -1.3761
  160SAPE   C2917920  -0.975   1.612   7.613 -0.6894 -0.5385  0.6374
  160SAPE   H9R17921  -1.032   1.520   7.635 -0.3562 -0.6278  1.1468
  160SAPE  C21017922  -0.922   1.697   7.729 -0.3048 -0.1418 -0.2596
  160SAPE  H10R17923  -0.998   1.773   7.758 -1.2477 -1.1390 -0.0667
  160SAPE  H10S17924  -0.835   1.754   7.690 -0.0714  0.4705  1.1014
  160SAPE  C21117925  -0.877   1.609   7.840  1.1223  0.8071  0.5682
  160SAPE  H11R17926  -0.816   1.523   7.807  2.4707  2.2943 -1.0315
  160SAPE  C21217927  -0.890   1.627   7.967  0.6589 -0.1821  1.0127
  160SAPE  H12R17928  -0.846   1.550   8.032  0.9918  0.3420  1.4158
  160SAPE  C21317929  -0.948   1.759   8.028  0.0034  0.4651 -0.4476
  160SAPE  H13R17930  -1.000   1.824   7.955 -1.4682 -1.1046 -0.8692
  160SAPE  H13S17931  -0.865   1.815   8.076  0.8580 -1.7005  0.7669
  160SAPE  C21417932  -1.048   1.740   8.136 -0.1925  0.5787 -0.2216
  160SAPE  H14R17933  -1.154   1.749   8.107 -0.3481 -0.7145 -0.1348
  160SAPE  C21517934  -1.018   1.701   8.267 -0.9980 -0.3327 -0.2819
  160SAPE  H15R17935  -1.095   1.695   8.346  1.6322 -1.9056  2.3678
  160SAPE  C21617936  -0.885   1.676   8.332 -0.4965 -0.2623 -0.3775
  160SAPE  H16R17937  -0.847   1.765   8.386 -0.0094 -0.0547 -1.0479
  160SAPE  H16S17938  -0.807   1.673   8.253 -0.2840  1.8442 -0.3107
  160SAPE  C21717939  -0.890   1.535   8.403  0.1733 -0.1436  0.2621
  160SAPE  H17R17940  -0.954   1.541   8.494 -0.4368 -0.0699 -0.1650
  160SAPE  H17S17941  -0.791   1.503   8.441 -0.1028 -2.2066 -0.6300
  160SAPE  C21817942  -0.935   1.422   8.322 -0.8948  0.6449  0.8992
  160SAPE  H18R17943  -0.861   1.419   8.240 -1.9498 -0.3176 -0.0453
  160SAPE  H18S17944  -1.035   1.444   8.279  0.2767  1.0775 -1.7468
  160SAPE  C21917945  -0.950   1.293   8.404 -0.2186 -0.1665 -0.1675
  160SAPE  H19R17946  -1.026   1.311   8.484  0.8199 -0.1205  0.8359
  160SAPE  H19S17947  -0.852   1.279   8.454 -0.7187 -3.4851  0.0731
  160SAPE  C22017948  -0.994   1.176   8.313  0.1086  0.8111  0.0219
  160SAPE  H20R17949  -0.985   1.073   8.353  0.5618  1.2902  1.2063
  160SAPE  H20S17950  -0.940   1.185   8.216  1.2838 -0.4709  0.5238
  160SAPE  H20T17951  -1.102   1.187   8.294 -0.6395 -0.7126  2.8006
  160SAPE   C3317952  -0.522   1.887   7.379 -0.1064 -0.4688 -0.7343
  160SAPE   H3X17953  -0.413   1.870   7.367  0.1653  0.9051 -0.4714
  160SAPE   H3Y17954  -0.580   1.794   7.363  3.2075 -2.9263  0.2930
  160SAPE   C3417955  -0.536   1.941   7.517  0.3439 -0.3910 -0.3039
  160SAPE   H4X17956  -0.632   1.988   7.546 -0.3100 -1.5425 -0.5396
  160SAPE   H4Y17957  -0.450   2.005   7.545  2.5972 -3.1058 -0.5667
  160SAPE   C3517958  -0.538   1.827   7.624 -0.1759  0.3866  0.1311
  160SAPE   H5X17959  -0.461   1.757   7.585 -2.0798 -1.5064 -0.4575
  160SAPE   H5Y17960  -0.637   1.778   7.608  1.3291 -3.0978  0.5353
  160SAPE   C3617961  -0.508   1.871   7.768  0.0267  1.0281 -0.4269
  160SAPE   H6X17962  -0.578   1.951   7.799  0.5212  1.1107  0.4942
  160SAPE   H6Y17963  -0.409   1.920   7.761  0.3476  0.5862  0.7532
  160SAPE   C3717964  -0.513   1.754   7.865  0.5009  0.4940 -0.0166
  160SAPE   H7X17965  -0.434   1.680   7.841 -0.9481 -0.7431 -1.2031
  160SAPE   H7Y17966  -0.605   1.696   7.843  1.1637 -0.1808 -1.0595
  160SAPE   C3817967  -0.518   1.805   8.006  0.2499 -0.0587  0.1851
  160SAPE   H8X17968  -0.609   1.870   8.007 -0.7788 -1.4500  1.0204
  160SAPE   H8Y17969  -0.432   1.871   8.029 -0.4071  1.3341 -1.1474
  160SAPE   C3917970  -0.516   1.694   8.121  0.4612 -0.0394  0.2115
  160SAPE   H9X17971  -0.572   1.607   8.080  0.6512  0.3064 -0.8105
  160SAPE   H9Y17972  -0.567   1.723   8.215 -3.3433 -2.5530 -0.8376
  160SAPE  C31017973  -0.378   1.644   8.154 -0.4204  0.3045 -0.5817
  160SAPE  H10X17974  -0.312   1.725   8.192  0.5759  0.0438 -1.6820
  160SAPE  H10Y17975  -0.332   1.597   8.064 -1.0102  0.4725 -0.9838
  160SAPE  C31117976  -0.383   1.525   8.256  0.4747 -0.0202 -0.2841
  160SAPE  H11X17977  -0.440   1.444   8.206  0.6375 -0.2015 -0.1737
  160SAPE  H11Y17978  -0.442   1.555   8.345 -1.6382 -0.5150 -1.4296
  160SAPE  C31217979  -0.246   1.474   8.300  0.1919 -0.2929 -0.1649
  160SAPE  H12X17980  -0.177   1.487   8.215  0.2859 -0.2559 -0.0825
  160SAPE  H12Y17981  -0.261   1.365   8.316  0.0692 -0.1171  1.0331
  160SAPE  C31317982  -0.191   1.546   8.423  0.7856  0.2782  0.3128
  160SAPE  H13X17983  -0.194   1.656   8.407  0.3766  0.0137 -1.8019
  160SAPE  H13Y17984  -0.086   1.510   8.418  1.0786  0.9593  1.3990
  160SAPE  C31417985  -0.256   1.503   8.553 -0.0541 -0.7434 -0.5520
  160SAPE  H14X17986  -0.246   1.395   8.578 -1.8992 -0.9560 -0.6156
  160SAPE  H14Y17987  -0.366   1.511   8.555  0.0400  0.6661  0.2260
  160SAPE  C31517988  -0.196   1.594   8.657  0.0168  0.4724  0.3317
  160SAPE  H15X17989  -0.239   1.694   8.634  1.4395  0.9375 -0.3660
  160SAPE  H15Y17990  -0.086   1.581   8.650  0.1585  1.4724  0.4225
  160SAPE  C31617991  -0.250   1.566   8.799 -0.6568  0.3067  0.6650
  160SAPE  H16X17992  -0.238   1.458   8.826  0.5085  0.4458  0.7508
  160SAPE  H16Y17993  -0.360   1.568   8.809 -0.7075  2.3200  0.0759
  160SAPE  C31717994  -0.191   1.666   8.896 -0.8195  0.5547  0.6675
  160SAPE  H17X17995  -0.232   1.660   8.999 -1.9838  2.5964  0.3670
  160SAPE  H17Y17996  -0.219   1.769   8.865 -1.3261  0.9950  2.4533
  160SAPE  C31817997  -0.038   1.658   8.905 -0.0606 -0.0249  0.4571
  160SAPE  H18X17998   0.012   1.679   8.809 -0.6360 -1.2483 -0.1374
  160SAPE  H18Y17999  -0.004   1.563   8.951 -0.7749 -0.4182  0.1931
  160SAPE  H18Z18000  -0.016   1.740   8.976  1.7004 -0.3748  0.3413
  161SAPE     N18001   1.950   3.448   6.243  0.4210  0.3882 -0.3076
  161SAPE   HN118002   1.869   3.384   6.256 -0.2501  1.3519  0.4280
  161SAPE   HN218003   1.932   3.522   6.173  0.6669  0.1833 -0.5895
  161SAPE   HN318004   2.021   3.383   6.204 -1.2731 -0.7385 -1.6753
  161SAPE   C1218005   1.994   3.505   6.378 -0.3218 -0.3729 -0.0042
  161SAPE  H12A18006   2.005   3.420   6.449 -1.2351  1.0876  1.9691
  161SAPE  H12B18007   1.914   3.575   6.410 -0.7689 -0.0150 -1.8068
  161SAPE   C1118008   2.122   3.584   6.366 -0.4038 -0.6505 -0.0285
  161SAPE  H11A18009   2.209   3.519   6.340 -0.0588  0.3300 -1.4552
  161SAPE  H11B18010   2.140   3.644   6.457 -0.0064 -0.0450 -0.4976
  161SAPE     P18011   2.062   3.827   6.265 -0.4087  0.2536 -0.1277
  161SAPE   O1318012   2.185   3.911   6.248  0.5159 -0.2642 -0.5769
  161SAPE   O1418013   1.964   3.839   6.158  0.6428 -0.1095  0.4742
  161SAPE   O1218014   2.118   3.680   6.261  0.0272 -0.2684 -0.1395
  161SAPE   O1118015   2.004   3.848   6.409  0.4469  0.2550  0.1865
  161SAPE    C118016   2.000   3.974   6.476 -0.2586 -0.1876  0.5089
  161SAPE    HA18017   2.102   3.998   6.512 -0.8803  3.5084  0.2157
  161SAPE    HB18018   1.969   4.054   6.405  1.3281 -0.9003 -1.0651
  161SAPE    C218019   1.905   3.975   6.601 -0.2353 -0.2060  0.1100
  161SAPE    HS18020   1.920   4.073   6.651  0.6356 -0.5475  0.5401
  161SAPE   O2118021   1.935   3.872   6.702  0.1308  0.5075 -0.7059
  161SAPE   C2118022   2.053   3.872   6.768  1.2431  0.2565  1.0341
  161SAPE   O2218023   2.142   3.954   6.743 -0.2298  0.0877  0.7105
  161SAPE   C2218024   2.058   3.758   6.863  0.0725 -0.3609 -1.3894
  161SAPE   H2R18025   1.966   3.760   6.926  0.2588  2.2656 -1.0661
  161SAPE   H2S18026   2.059   3.672   6.794 -2.5739 -1.0747 -0.6595
  161SAPE    C318027   1.761   3.963   6.555 -0.8550  0.1617 -0.0454
  161SAPE    HX18028   1.752   3.870   6.495  0.5114 -0.6852  1.0122
  161SAPE    HY18029   1.743   4.053   6.491 -0.1870 -0.7481 -1.5682
  161SAPE   O3118030   1.674   3.963   6.664 -0.6261  0.1605  0.1259
  161SAPE   C3118031   1.647   4.081   6.717  0.1030 -0.4717 -0.1532
  161SAPE   O3218032   1.713   4.187   6.694 -0.7107  0.9144  0.4242
  161SAPE   C3218033   1.543   4.072   6.828 -0.1732 -0.4448 -0.8878
  161SAPE   H2X18034   1.481   3.983   6.804  0.9984 -1.2418 -1.0352
  161SAPE   H2Y18035   1.495   4.171   6.813  1.1041  0.1559 -1.1416
  161SAPE   C2318036   2.189   3.758   6.950 -0.2206 -0.6588 -0.5822
  161SAPE   H3R18037   2.271   3.775   6.877  0.0361  1.0905  0.0403
  161SAPE   H3S18038   2.204   3.671   7.016  0.7643  0.2251  0.3973
  161SAPE   C2418039   2.185   3.878   7.055  0.0599  0.2937 -0.0078
  161SAPE   H4R18040   2.096   3.851   7.116  0.0417  0.9616  0.2731
  161SAPE   H4S18041   2.170   3.978   7.009  0.8872 -0.6089 -2.4172
  161SAPE   C2518042   2.304   3.874   7.152  0.1542 -0.7706  0.1605
  161SAPE   H5R18043   2.388   3.939   7.122  1.9081 -2.6270  0.9178
  161SAPE   C2618044   2.320   3.790   7.254  0.2332 -0.5482  0.0426
  161SAPE   H6R18045   2.419   3.790   7.301  0.1356  0.2035  0.2703
  161SAPE   C2718046   2.228   3.692   7.313  0.0641  0.9068 -0.4444
  161SAPE   H7R18047   2.167   3.637   7.238 -0.6111 -1.1754  1.5207
  161SAPE   H7S18048   2.144   3.749   7.358  1.1384  1.0945  1.4095
  161SAPE   C2818049   2.286   3.589   7.410 -0.3630 -0.3871  0.8616
  161SAPE   H8R18050   2.347   3.515   7.356 -2.2242 -2.2462  1.2172
  161SAPE   C2918051   2.274   3.579   7.543  0.1426 -0.7073 -0.0578
  161SAPE   H9R18052   2.312   3.486   7.588  0.3938 -1.1254 -1.0826
  161SAPE  C21018053   2.207   3.671   7.650  0.2297 -0.5910  0.5064
  161SAPE  H10R18054   2.233   3.636   7.753 -1.1680  1.0455  1.4767
  161SAPE  H10S18055   2.097   3.664   7.638  0.4901  0.4723 -3.9161
  161SAPE  C21118056   2.235   3.821   7.640  0.6155 -0.3675 -0.6759
  161SAPE  H11R18057   2.305   3.857   7.563  1.1735  1.0894  0.4592
  161SAPE  C21218058   2.174   3.911   7.721 -0.0418  0.6688 -0.0169
  161SAPE  H12R18059   2.194   4.019   7.712  1.5601  0.4052 -0.0002
  161SAPE  C21318060   2.070   3.879   7.830  0.8240  0.9577 -0.4146
  161SAPE  H13R18061   2.127   3.865   7.924  0.9555  1.6355 -0.3914
  161SAPE  H13S18062   2.020   3.781   7.810 -1.3234  1.6486  1.1971
  161SAPE  C21418063   1.956   3.981   7.857 -0.7839  0.0028  0.4646
  161SAPE  H14R18064   1.894   3.998   7.768  0.1855 -0.6269 -0.3475
  161SAPE  C21518065   1.934   4.050   7.967 -0.4102  0.0646  0.7710
  161SAPE  H15R18066   1.860   4.130   7.962  0.0702  0.4433 -1.6643
  161SAPE  C21618067   2.002   4.045   8.105  0.0245  0.2325  0.4251
  161SAPE  H16R18068   2.105   4.003   8.096  0.1959  0.5640  0.7872
  161SAPE  H16S18069   1.956   3.968   8.170  0.6650  0.9657  1.7915
  161SAPE  C21718070   2.032   4.172   8.175  0.5724  0.5183  0.2248
  161SAPE  H17R18071   1.958   4.254   8.171  0.6878  0.8685  2.9956
  161SAPE  H17S18072   2.123   4.218   8.130 -0.0828  2.8694  1.1372
  161SAPE  C21818073   2.070   4.155   8.322  0.9595  1.2137  0.4581
  161SAPE  H18R18074   2.154   4.084   8.341  2.2071  2.9530  1.7732
  161SAPE  H18S18075   1.985   4.111   8.378  1.1734 -0.4127 -0.4453
  161SAPE  C21918076   2.099   4.292   8.382  0.1305  0.0702 -1.6074
  161SAPE  H19R18077   2.103   4.273   8.492  0.9841 -0.8929 -1.7882
  161SAPE  H19S18078   2.021   4.367   8.357  0.3663  2.0712  2.6499
  161SAPE  C22018079   2.234   4.355   8.346 -0.2784 -0.1134  0.2806
  161SAPE  H20R18080   2.321   4.293   8.376  0.4860  1.6186  1.8342
  161SAPE  H20S18081   2.246   4.453   8.397 -3.3349  1.6272 -1.9974
  161SAPE  H20T18082   2.232   4.373   8.236 -2.2162 -1.7524  0.0100
  161SAPE   C3318083   1.612   4.062   6.970  0.1072  0.7144 -0.2737
  161SAPE   H3X18084   1.532   4.064   7.047 -1.0294 -1.1492 -1.3347
  161SAPE   H3Y18085   1.678   4.147   6.995  1.9803 -0.3777 -1.2509
  161SAPE   C3418086   1.699   3.938   6.988  0.5020  0.2805 -0.3137
  161SAPE   H4X18087   1.785   3.961   6.922  0.4925  0.1931 -0.3565
  161SAPE   H4Y18088   1.642   3.849   6.953 -0.9499 -0.3721  3.3142
  161SAPE   C3518089   1.772   3.930   7.129  0.1882  0.5835  0.2820
  161SAPE   H5X18090   1.835   4.016   7.160  0.6335  0.4544 -0.2410
  161SAPE   H5Y18091   1.836   3.839   7.125 -1.4392 -0.5887 -0.2111
  161SAPE   C3618092   1.669   3.910   7.239  0.3148  0.1026  0.0871
  161SAPE   H6X18093   1.590   3.835   7.215  0.8282 -0.1770 -0.7636
  161SAPE   H6Y18094   1.625   4.009   7.262  0.4345  0.3023 -0.5235
  161SAPE   C3718095   1.743   3.861   7.367 -0.0511  0.5312 -0.5007
  161SAPE   H7X18096   1.835   3.922   7.381  0.6383  0.0904 -2.7970
  161SAPE   H7Y18097   1.769   3.754   7.359 -1.2991  0.1847 -0.2628
  161SAPE   C3818098   1.647   3.865   7.491 -0.5103 -0.5967 -0.0725
  161SAPE   H8X18099   1.541   3.875   7.459  0.0270 -1.5512 -2.3364
  161SAPE   H8Y18100   1.675   3.955   7.549 -2.1072 -0.1072 -0.0283
  161SAPE   C3918101   1.667   3.749   7.579  0.1936 -0.7433 -0.8772
  161SAPE   H9X18102   1.770   3.718   7.603 -0.6958 -3.5539 -0.3926
  161SAPE   H9Y18103   1.628   3.654   7.538 -1.8101 -0.7190  0.7454
  161SAPE  C31018104   1.606   3.768   7.719  0.3191 -0.4997 -0.6202
  161SAPE  H10X18105   1.496   3.777   7.705  0.2891 -1.8649 -1.3482
  161SAPE  H10Y18106   1.646   3.862   7.764  2.5002 -2.3101  1.5447
  161SAPE  C31118107   1.634   3.662   7.822  0.7768  0.0552  0.2503
  161SAPE  H11X18108   1.743   3.658   7.842  0.5273 -0.5479  1.5972
  161SAPE  H11Y18109   1.598   3.565   7.783  1.1402  0.2491 -0.5785
  161SAPE  C31218110   1.549   3.689   7.946 -0.0687 -0.1378 -0.2814
  161SAPE  H12X18111   1.546   3.601   8.013 -1.8150  0.1616  0.0712
  161SAPE  H12Y18112   1.445   3.697   7.908  0.8540  2.4553 -2.6508
  161SAPE  C31318113   1.570   3.810   8.027 -0.0609  0.3800 -0.5002
  161SAPE  H13X18114   1.548   3.899   7.964 -1.8752  0.1121 -0.2827
  161SAPE  H13Y18115   1.676   3.811   8.062 -0.2708  0.5766  0.1320
  161SAPE  C31418116   1.478   3.824   8.150  0.3513  0.5724  0.1298
  161SAPE  H14X18117   1.474   3.730   8.208  3.2874  0.2713 -0.0155
  161SAPE  H14Y18118   1.375   3.828   8.107  0.5380 -1.6181 -0.6385
  161SAPE  C31518119   1.514   3.955   8.226 -0.0783 -0.2059  0.1167
  161SAPE  H15X18120   1.450   3.982   8.313  1.1098 -0.1488  0.9927
  161SAPE  H15Y18121   1.496   4.038   8.154 -2.9348 -2.0137 -1.4291
  161SAPE  C31618122   1.655   3.961   8.280 -0.4989  0.5951  0.0419
  161SAPE  H16X18123   1.723   3.977   8.194  2.6209 -1.2198  1.9924
  161SAPE  H16Y18124   1.686   3.858   8.306 -0.8051  0.5480  0.2263
  161SAPE  C31718125   1.678   4.054   8.401  0.0664  0.5051 -0.3287
  161SAPE  H17X18126   1.776   4.034   8.450 -0.4358  0.1429  0.5614
  161SAPE  H17Y18127   1.592   4.031   8.467 -0.9297  0.0783 -1.7477
  161SAPE  C31818128   1.673   4.202   8.374  0.0249 -0.3515  0.2084
  161SAPE  H18X18129   1.573   4.224   8.332  0.5690  0.8211 -0.5200
  161SAPE  H18Y18130   1.750   4.218   8.295  1.2345 -1.1584  1.1752
  161SAPE  H18Z18131   1.707   4.265   8.459 -1.5867  0.9388 -0.0535
  162SAPE     N18132   6.442   3.633   5.914 -0.3086 -0.1127 -0.5858
  162SAPE   HN118133   6.545   3.630   5.929 -0.3931  1.4817  0.5398
  162SAPE   HN218134   6.425   3.728   5.876 -0.1236  0.8192  1.5232
  162SAPE   HN318135   6.394   3.615   6.004 -1.0709 -0.5272 -1.0615
  162SAPE   C1218136   6.413   3.519   5.834 -1.0578  0.3989 -0.1535
  162SAPE  H12A18137   6.460   3.525   5.734  0.5996 -0.6552  0.5100
  162SAPE  H12B18138   6.304   3.523   5.813 -0.4383  1.5861 -3.8536
  162SAPE   C1118139   6.452   3.384   5.900 -0.0132  0.2650 -0.2699
  162SAPE  H11A18140   6.431   3.306   5.823  0.3691 -0.6732  0.5540
  162SAPE  H11B18141   6.397   3.370   5.995  1.1655  0.1455  0.4149
  162SAPE     P18142   6.671   3.257   5.990 -0.0715 -0.2760 -0.0260
  162SAPE   O1318143   6.623   3.135   5.931  0.7066 -0.2731 -0.1947
  162SAPE   O1418144   6.813   3.288   5.976 -0.1618  0.7339 -0.4277
  162SAPE   O1218145   6.588   3.382   5.942 -0.2516  0.4370 -0.3189
  162SAPE   O1118146   6.629   3.264   6.143  0.4423  0.2956  0.2649
  162SAPE    C118147   6.623   3.381   6.232  0.6752 -0.2704  0.3430
  162SAPE    HA18148   6.716   3.406   6.286 -1.6873  2.2269  3.7044
  162SAPE    HB18149   6.586   3.473   6.182  0.9920  0.3677  1.2597
  162SAPE    C218150   6.519   3.355   6.342 -0.2105 -0.6178 -0.5652
  162SAPE    HS18151   6.491   3.453   6.386 -1.6900 -0.9405 -0.7316
  162SAPE   O2118152   6.584   3.271   6.443  0.6353 -0.5282 -0.6183
  162SAPE   C2118153   6.658   3.339   6.533 -0.0513 -1.2726 -0.5264
  162SAPE   O2218154   6.690   3.458   6.523 -0.4169 -0.1890 -0.4772
  162SAPE   C2218155   6.671   3.259   6.659 -0.2091 -0.3833 -0.1811
  162SAPE   H2R18156   6.572   3.226   6.696 -2.1425  2.9300 -1.9181
  162SAPE   H2S18157   6.736   3.171   6.635  1.2285  1.1607 -2.3446
  162SAPE    C318158   6.388   3.293   6.293  0.6853 -0.1662 -0.3857
  162SAPE    HX18159   6.404   3.198   6.237 -0.7551  0.1423 -1.3922
  162SAPE    HY18160   6.328   3.364   6.232 -1.1540 -0.4306  1.0266
  162SAPE   O3118161   6.303   3.277   6.411  0.1271  0.2178  0.4621
  162SAPE   C3118162   6.297   3.157   6.467 -0.1887  0.4143 -0.0832
  162SAPE   O3218163   6.351   3.055   6.430 -0.1489 -0.3060 -0.0480
  162SAPE   C3218164   6.237   3.195   6.603  0.0339 -0.3483 -0.7776
  162SAPE   H2X18165   6.145   3.255   6.586  0.8740  0.3908 -2.9760
  162SAPE   H2Y18166   6.305   3.265   6.656  0.1084 -1.0719  0.1082
  162SAPE   C2318167   6.729   3.339   6.777  0.0870 -0.0688 -0.1109
  162SAPE   H3R18168   6.668   3.431   6.792 -0.1112  0.3551 -2.9065
  162SAPE   H3S18169   6.826   3.384   6.746  0.1591  1.1762  1.7374
  162SAPE   C2418170   6.759   3.256   6.900 -0.6523  0.0203 -0.2340
  162SAPE   H4R18171   6.667   3.206   6.937  0.1968 -1.2513  0.2336
  162SAPE   H4S18172   6.787   3.333   6.976 -0.2146 -2.2372  2.0372
  162SAPE   C2518173   6.868   3.149   6.913 -0.1214 -0.1467  0.0111
  162SAPE   H5R18174   6.927   3.131   6.821  0.7459 -2.2028  0.9114
  162SAPE   C2618175   6.896   3.085   7.026 -0.8688  0.5184  0.2562
  162SAPE   H6R18176   6.985   3.021   7.015  0.8617  2.6866  0.9863
  162SAPE   C2718177   6.828   3.096   7.169 -0.3966  0.4022 -0.0574
  162SAPE   H7R18178   6.746   3.021   7.176 -0.1386  0.0492 -0.6974
  162SAPE   H7S18179   6.789   3.195   7.199 -0.8083 -0.1977  1.4777
  162SAPE   C2818180   6.934   3.050   7.271  0.4265  0.1691 -1.0452
  162SAPE   H8R18181   7.040   3.041   7.244  0.7753  1.0575 -0.0204
  162SAPE   C2918182   6.897   3.039   7.399 -0.2022 -0.2471  0.7480
  162SAPE   H9R18183   6.963   2.999   7.478 -1.8051 -2.4334  1.0543
  162SAPE  C21018184   6.763   3.059   7.457 -0.2046  0.8451  0.0789
  162SAPE  H10R18185   6.732   2.963   7.504  0.6374  0.9580  0.8946
  162SAPE  H10S18186   6.684   3.079   7.381  1.5155  3.3552 -1.1967
  162SAPE  C21118187   6.752   3.161   7.560 -0.2540 -0.1926 -0.0280
  162SAPE  H11R18188   6.707   3.253   7.518  0.3796  0.2746  0.3081
  162SAPE  C21218189   6.780   3.164   7.691  0.1596 -0.2786  0.2239
  162SAPE  H12R18190   6.760   3.253   7.752 -0.0768 -0.1169 -0.0812
  162SAPE  C21318191   6.837   3.043   7.766  0.2411 -0.0664 -0.2727
  162SAPE  H13R18192   6.932   3.071   7.816  1.4653 -1.0735 -1.9344
  162SAPE  H13S18193   6.856   2.957   7.698  2.2761 -0.2343  0.4247
  162SAPE  C21418194   6.728   2.992   7.860  0.1412  0.1503  0.5358
  162SAPE  H14R18195   6.637   2.947   7.818  1.0323 -0.5627 -0.6969
  162SAPE  C21518196   6.728   3.002   7.995 -0.2195  0.9529 -0.2337
  162SAPE  H15R18197   6.642   2.961   8.050 -0.7419  1.5443 -0.5891
  162SAPE  C21618198   6.826   3.070   8.089  0.0151  0.2094 -0.4415
  162SAPE  H16R18199   6.855   3.162   8.034  2.6110  1.1338  2.2297
  162SAPE  H16S18200   6.924   3.018   8.094 -0.3217 -0.3821  0.1830
  162SAPE  C21718201   6.775   3.122   8.224 -0.0553  0.7435  0.0308
  162SAPE  H17R18202   6.673   3.167   8.228 -0.1214  0.5340  1.1640
  162SAPE  H17S18203   6.837   3.206   8.262  3.0339 -0.7775 -1.3328
  162SAPE  C21818204   6.778   3.013   8.332  0.2529 -0.1215  0.0519
  162SAPE  H18R18205   6.873   2.980   8.379  0.5022 -1.4936 -1.3492
  162SAPE  H18S18206   6.717   2.930   8.291  0.6188 -1.3204  1.8143
  162SAPE  C21918207   6.685   3.060   8.454 -0.0460  0.6388  0.4312
  162SAPE  H19R18208   6.606   3.125   8.411  0.0809  0.5519  0.0573
  162SAPE  H19S18209   6.744   3.123   8.524 -1.5483  2.0176  0.5058
  162SAPE  C22018210   6.630   2.950   8.543  0.7967  1.0943  0.0238
  162SAPE  H20R18211   6.716   2.892   8.584  1.2883  2.4619  0.9901
  162SAPE  H20S18212   6.567   2.874   8.492 -0.1061  1.3091  0.7849
  162SAPE  H20T18213   6.559   2.995   8.616 -0.6350  2.3773 -2.0515
  162SAPE   C3318214   6.224   3.073   6.699  0.2505 -0.0609 -0.2489
  162SAPE   H3X18215   6.323   3.024   6.696  1.1015  1.5440  0.4517
  162SAPE   H3Y18216   6.144   3.012   6.652  0.9716  0.1375 -1.8015
  162SAPE   C3418217   6.189   3.107   6.845  0.7185  0.0341 -0.3653
  162SAPE   H4X18218   6.158   3.010   6.889  0.2629 -0.8529 -2.5381
  162SAPE   H4Y18219   6.104   3.179   6.844  0.5729 -0.1293 -2.0508
  162SAPE   C3518220   6.320   3.143   6.916 -0.4580 -0.0486 -0.8458
  162SAPE   H5X18221   6.357   3.237   6.869  4.7857 -1.7062 -0.6568
  162SAPE   H5Y18222   6.387   3.055   6.904  1.2694  0.6553  2.4018
  162SAPE   C3618223   6.295   3.175   7.068  0.0177 -1.1044 -0.2377
  162SAPE   H6X18224   6.252   3.081   7.108 -0.9765 -0.3913  0.4151
  162SAPE   H6Y18225   6.219   3.256   7.081  3.3372  2.1255  0.7086
  162SAPE   C3718226   6.425   3.208   7.147  0.9543  0.0383  0.3467
  162SAPE   H7X18227   6.480   3.296   7.107  0.6191  0.5586  1.0121
  162SAPE   H7Y18228   6.493   3.121   7.132 -0.3069 -1.4923  2.7714
  162SAPE   C3818229   6.390   3.251   7.299  0.2035 -0.2879  0.9713
  162SAPE   H8X18230   6.296   3.310   7.306 -1.0122 -1.4587 -2.7099
  162SAPE   H8Y18231   6.473   3.320   7.324 -0.5614  2.0938 -2.3292
  162SAPE   C3918232   6.383   3.132   7.393  0.4069 -0.4205 -0.1555
  162SAPE   H9X18233   6.477   3.073   7.395  0.5365 -0.3550 -2.1114
  162SAPE   H9Y18234   6.297   3.065   7.371  0.6252 -0.7227 -0.0881
  162SAPE  C31018235   6.353   3.192   7.535  0.2542  0.2665 -1.1012
  162SAPE  H10X18236   6.246   3.223   7.533 -0.2190 -1.2436 -0.3198
  162SAPE  H10Y18237   6.416   3.282   7.555  3.6263 -2.1407  0.0054
  162SAPE  C31118238   6.371   3.097   7.657  0.1579  0.1399 -0.4583
  162SAPE  H11X18239   6.479   3.071   7.668  0.1959 -0.4552 -1.9725
  162SAPE  H11Y18240   6.319   3.002   7.635 -0.0750  0.0225  0.5308
  162SAPE  C31218241   6.315   3.151   7.794  0.4474 -0.0196 -0.4390
  162SAPE  H12X18242   6.207   3.172   7.778  0.4436 -0.9496 -1.8713
  162SAPE  H12Y18243   6.378   3.239   7.821  3.8183 -1.8019 -1.9206
  162SAPE  C31318244   6.323   3.047   7.905  0.4884  0.1883 -0.1180
  162SAPE  H13X18245   6.430   3.020   7.918  0.2487  0.3906  2.9908
  162SAPE  H13Y18246   6.277   2.950   7.877  0.6522  0.5515 -1.7736
  162SAPE  C31418247   6.268   3.095   8.042  0.7751 -0.0786 -1.1344
  162SAPE  H14X18248   6.158   3.085   8.027  0.2309 -1.8616  2.7177
  162SAPE  H14Y18249   6.294   3.200   8.068 -0.2931 -0.2125  0.6228
  162SAPE  C31518250   6.295   3.004   8.159 -0.5328  0.5188 -0.0217
  162SAPE  H15X18251   6.400   3.016   8.193 -0.0905 -2.1012 -0.2946
  162SAPE  H15Y18252   6.274   2.901   8.124  0.3063 -0.0261  1.0281
  162SAPE  C31618253   6.211   3.034   8.284  0.2074 -0.2632  0.2156
  162SAPE  H16X18254   6.241   2.975   8.373 -3.2559 -2.2639  0.2204
  162SAPE  H16Y18255   6.104   3.016   8.259  0.2226  0.5467 -0.4700
  162SAPE  C31718256   6.224   3.183   8.327  0.9069 -0.3780 -0.8037
  162SAPE  H17X18257   6.174   3.247   8.251 -0.1393  0.2263  0.3623
  162SAPE  H17Y18258   6.332   3.206   8.339  0.9858 -0.7349 -0.8226
  162SAPE  C31818259   6.160   3.209   8.461 -0.2260 -0.6409  0.4224
  162SAPE  H18X18260   6.183   3.308   8.505 -0.1902 -0.1864 -0.5988
  162SAPE  H18Y18261   6.211   3.135   8.527  0.5249  0.7562  1.4712
  162SAPE  H18Z18262   6.053   3.187   8.482 -1.0782  3.0693  0.5044
  163SAPE     N18263   5.109   1.871   6.372  0.2689  0.0774 -0.1189
  163SAPE   HN118264   5.178   1.823   6.310 -1.6388 -1.5534 -1.0942
  163SAPE   HN218265   5.013   1.864   6.334  0.2456  1.2444 -0.3115
  163SAPE   HN318266   5.148   1.967   6.383 -0.3334  0.2489  0.5809
  163SAPE   C1218267   5.099   1.800   6.502  0.2203 -0.0621  1.1002
  163SAPE  H12A18268   5.001   1.823   6.549 -1.1822 -2.1493 -0.6198
  163SAPE  H12B18269   5.188   1.830   6.562  1.3928 -0.5161 -0.3535
  163SAPE   C1118270   5.115   1.649   6.484 -0.1345 -0.6306  0.8082
  163SAPE  H11A18271   5.090   1.604   6.582 -2.8176 -2.0336 -0.4077
  163SAPE  H11B18272   5.211   1.616   6.440 -0.9873  0.2948 -1.9707
  163SAPE     P18273   4.984   1.454   6.383 -0.2857  0.3255  0.4426
  163SAPE   O1318274   4.844   1.428   6.333 -0.4063  0.0373  0.3245
  163SAPE   O1418275   5.091   1.399   6.303  0.3081 -0.0432 -0.2137
  163SAPE   O1218276   5.009   1.609   6.404 -0.1449 -0.0063  0.6319
  163SAPE   O1118277   4.990   1.397   6.529 -0.2348 -1.1220 -0.3064
  163SAPE    C118278   5.108   1.336   6.578 -0.4783  0.4292 -1.3007
  163SAPE    HA18279   5.135   1.242   6.525  0.6222 -0.7781  1.2220
  163SAPE    HB18280   5.197   1.402   6.565  0.8959 -1.3863 -1.6686
  163SAPE    C218281   5.112   1.293   6.736  0.2259 -1.0005 -0.0327
  163SAPE    HS18282   5.024   1.226   6.748 -1.1900  0.3888 -2.0415
  163SAPE   O2118283   5.112   1.420   6.807  0.4699 -0.0737 -0.4845
  163SAPE   C2118284   5.082   1.418   6.938  0.2474 -0.2949  0.0962
  163SAPE   O2218285   5.042   1.321   6.997  0.6448 -0.0844  0.0011
  163SAPE   C2218286   5.088   1.554   6.999 -0.2972 -0.4424  0.2428
  163SAPE   H2R18287   5.190   1.597   6.996 -0.3069 -0.4591 -0.5266
  163SAPE   H2S18288   5.021   1.627   6.947  1.7214  2.1489  1.0823
  163SAPE    C318289   5.240   1.212   6.761  0.3972  0.2172  0.0250
  163SAPE    HX18290   5.334   1.269   6.742 -0.3743  1.4938 -0.0875
  163SAPE    HY18291   5.258   1.142   6.677 -0.4590  1.0268 -0.8547
  163SAPE   O3118292   5.236   1.146   6.892  0.5440 -0.2705  0.2147
  163SAPE   C3118293   5.194   1.024   6.887  0.2014 -0.6297  0.4007
  163SAPE   O3218294   5.151   0.963   6.787  0.0901 -0.0971 -0.0230
  163SAPE   C3218295   5.219   0.965   7.028  0.2259  0.5849 -0.2305
  163SAPE   H2X18296   5.233   1.052   7.095 -1.1226  0.8508 -0.2768
  163SAPE   H2Y18297   5.314   0.907   7.025 -0.2986 -0.2812 -0.4652
  163SAPE   C2318298   5.042   1.568   7.150 -0.0186 -0.1672  0.7321
  163SAPE   H3R18299   5.059   1.673   7.183 -1.8952  0.8083 -1.1695
  163SAPE   H3S18300   5.110   1.502   7.207  0.8926  0.1526  0.0443
  163SAPE   C2418301   4.893   1.531   7.170  0.8281 -0.1042  0.3167
  163SAPE   H4R18302   4.886   1.509   7.279 -0.8282  0.1156  0.2737
  163SAPE   H4S18303   4.866   1.439   7.114  0.7235  0.9200 -1.3741
  163SAPE   C2518304   4.794   1.635   7.138 -0.1553  0.2385  0.1256
  163SAPE   H5R18305   4.752   1.621   7.037  1.4839  0.5892 -0.6468
  163SAPE   C2618306   4.751   1.728   7.227 -0.1482  0.1869 -0.4232
  163SAPE   H6R18307   4.682   1.807   7.196 -2.6810 -2.1989 -1.2624
  163SAPE   C2718308   4.797   1.740   7.373  0.4385  0.7489 -0.0692
  163SAPE   H7R18309   4.906   1.721   7.378  0.1776 -1.2872 -1.1053
  163SAPE   H7S18310   4.749   1.659   7.433 -1.2451  0.8650 -1.1869
  163SAPE   C2818311   4.732   1.854   7.437  0.2072 -0.3704 -0.7063
  163SAPE   H8R18312   4.632   1.828   7.474  0.2796 -0.2849 -0.4432
  163SAPE   C2918313   4.794   1.973   7.463 -0.2827  0.4844  0.2028
  163SAPE   H9R18314   4.733   2.056   7.503  0.7019  1.0682  0.5186
  163SAPE  C21018315   4.934   2.024   7.439 -1.0466 -0.1175  0.3963
  163SAPE  H10R18316   4.944   2.135   7.437  2.5181 -0.3198  1.4502
  163SAPE  H10S18317   4.965   2.005   7.334 -1.2067 -2.3622  0.7219
  163SAPE  C21118318   5.046   1.960   7.518 -0.6557  0.1561 -0.7243
  163SAPE  H11R18319   5.085   1.861   7.490  0.8929  0.1601  1.2370
  163SAPE  C21218320   5.094   2.015   7.634  0.3262 -0.2222 -0.4330
  163SAPE  H12R18321   5.177   1.961   7.683  0.4066 -0.6466 -1.0229
  163SAPE  C21318322   5.047   2.145   7.698 -0.1814 -0.4187 -0.6273
  163SAPE  H13R18323   4.959   2.124   7.763  0.1104  2.1995  0.7230
  163SAPE  H13S18324   5.011   2.219   7.623 -1.7399  0.7870  1.2050
  163SAPE  C21418325   5.155   2.209   7.788 -0.3651 -0.1577  0.4701
  163SAPE  H14R18326   5.250   2.208   7.732 -0.5961  1.9824 -0.0761
  163SAPE  C21518327   5.150   2.247   7.920 -0.3009  0.3952 -1.0104
  163SAPE  H15R18328   5.238   2.286   7.972 -0.2470  1.9769 -2.2099
  163SAPE  C21618329   5.031   2.247   8.007 -0.4481  1.7155 -0.1322
  163SAPE  H16R18330   4.943   2.201   7.958 -0.4280 -0.6997  1.8725
  163SAPE  H16S18331   4.998   2.349   8.036  0.9551  1.5089  2.5871
  163SAPE  C21718332   5.058   2.172   8.138 -0.4891  0.1879 -0.2285
  163SAPE  H17R18333   5.156   2.203   8.181 -0.0677  1.0783 -1.7463
  163SAPE  H17S18334   5.074   2.063   8.123  1.6066  0.5729 -1.1084
  163SAPE  C21818335   4.946   2.191   8.247 -0.1018 -1.0157 -0.7000
  163SAPE  H18R18336   4.975   2.292   8.285  0.9469  0.0005 -3.9118
  163SAPE  H18S18337   4.975   2.119   8.326 -0.4448 -0.4319 -0.0244
  163SAPE  C21918338   4.797   2.165   8.210  0.6977  0.2215 -0.7787
  163SAPE  H19R18339   4.785   2.055   8.209  0.7818  0.1914  0.1514
  163SAPE  H19S18340   4.767   2.204   8.111 -1.0716 -1.5204 -0.9956
  163SAPE  C22018341   4.688   2.215   8.309 -0.6695  0.4142 -0.1388
  163SAPE  H20R18342   4.709   2.180   8.413 -1.9316  0.1379  0.0415
  163SAPE  H20S18343   4.589   2.176   8.277 -0.2902 -1.0901  0.3973
  163SAPE  H20T18344   4.696   2.325   8.303  2.5103  0.2305 -1.5563
  163SAPE   C3318345   5.101   0.874   7.077  0.3840 -0.1143  0.5688
  163SAPE   H3X18346   5.088   0.784   7.013 -1.2324 -1.1474  2.2654
  163SAPE   H3Y18347   5.008   0.933   7.067  0.1070 -0.5436  0.5781
  163SAPE   C3418348   5.107   0.822   7.219 -0.4356 -0.3208 -0.3199
  163SAPE   H4X18349   5.212   0.793   7.244 -0.4620 -1.1147 -1.0845
  163SAPE   H4Y18350   5.046   0.731   7.236  2.9296 -2.6033  0.4793
  163SAPE   C3518351   5.054   0.934   7.310  0.6417  0.7899  0.2177
  163SAPE   H5X18352   4.952   0.965   7.278  0.7913 -0.1798 -1.3360
  163SAPE   H5Y18353   5.124   1.019   7.302 -1.8104  2.7781 -2.0106
  163SAPE   C3618354   5.051   0.889   7.453  0.3259  0.2592  0.4349
  163SAPE   H6X18355   5.000   0.792   7.467  2.4876 -0.9655  0.2027
  163SAPE   H6Y18356   4.986   0.948   7.522 -1.3128 -0.2420 -0.6225
  163SAPE   C3718357   5.186   0.845   7.516  0.2434  0.1597 -0.2579
  163SAPE   H7X18358   5.261   0.926   7.505 -1.4261  1.6351 -1.2580
  163SAPE   H7Y18359   5.231   0.766   7.451  1.7613  0.9385 -0.1867
  163SAPE   C3818360   5.170   0.791   7.657  0.3436 -0.3144  0.1376
  163SAPE   H8X18361   5.269   0.766   7.698  0.0197  1.0460  1.8581
  163SAPE   H8Y18362   5.112   0.697   7.647  0.1023 -0.1226 -0.3201
  163SAPE   C3918363   5.093   0.878   7.762  0.3699 -0.1439  0.0228
  163SAPE   H9X18364   4.982   0.874   7.749  0.1468  0.8078  1.4031
  163SAPE   H9Y18365   5.117   0.986   7.759  2.6036 -0.5506  0.9066
  163SAPE  C31018366   5.121   0.822   7.900  0.0758  0.4486 -0.8844
  163SAPE  H10X18367   5.223   0.846   7.935  0.8642 -2.8174 -0.5879
  163SAPE  H10Y18368   5.101   0.716   7.927 -0.2886  1.2626  2.4380
  163SAPE  C31118369   5.019   0.885   8.001  0.3902 -0.6467 -0.0383
  163SAPE  H11X18370   4.917   0.868   7.961  0.0326  1.1151  0.0467
  163SAPE  H11Y18371   5.028   0.996   8.006 -0.8735 -0.4247 -2.0149
  163SAPE  C31218372   5.035   0.828   8.141 -0.1111 -0.0157  0.1018
  163SAPE  H12X18373   5.018   0.718   8.135 -2.4390  0.2848  0.2582
  163SAPE  H12Y18374   4.946   0.864   8.196  1.0632 -0.2337  2.2513
  163SAPE  C31318375   5.156   0.880   8.212 -0.6704 -0.3206  0.2186
  163SAPE  H13X18376   5.144   0.991   8.214  0.5485 -0.1765  0.4157
  163SAPE  H13Y18377   5.245   0.866   8.147  0.2784  2.8666  0.6626
  163SAPE  C31418378   5.180   0.816   8.342  0.5263  0.3215 -0.7076
  163SAPE  H14X18379   5.202   0.708   8.323 -2.3156 -0.5479  0.5043
  163SAPE  H14Y18380   5.084   0.824   8.397 -0.1950 -0.2869 -1.8377
  163SAPE  C31518381   5.300   0.869   8.417 -0.1620 -0.1527  0.4995
  163SAPE  H15X18382   5.375   0.891   8.338  0.4396  1.1919  1.4054
  163SAPE  H15Y18383   5.348   0.793   8.483  0.5392  0.4360  0.6833
  163SAPE  C31618384   5.263   1.006   8.485  0.5079  0.5672 -0.5960
  163SAPE  H16X18385   5.201   1.000   8.577  1.3400 -0.3987 -0.0781
  163SAPE  H16Y18386   5.192   1.063   8.422  0.2450  1.5262  0.5133
  163SAPE  C31718387   5.393   1.091   8.506  0.9312 -0.3091 -0.8154
  163SAPE  H17X18388   5.401   1.148   8.411 -0.0836  2.1931  0.4907
  163SAPE  H17Y18389   5.485   1.029   8.506  2.4363  1.8030 -0.3038
  163SAPE  C31818390   5.396   1.185   8.630 -0.5710  0.2572  0.8456
  163SAPE  H18X18391   5.302   1.245   8.629 -0.0130  1.1468  0.2533
  163SAPE  H18Y18392   5.482   1.255   8.642  0.5761 -1.3401  2.5208
  163SAPE  H18Z18393   5.398   1.124   8.723 -0.6412 -1.0485  0.0068
  164SAPE     N18394   3.697   5.743   6.283  0.7569 -0.1259  0.1161
  164SAPE   HN118395   3.652   5.675   6.347 -1.3011  0.9319 -0.1118
  164SAPE   HN218396   3.794   5.758   6.316  0.5331 -1.4172  1.4702
  164SAPE   HN318397   3.646   5.833   6.289  3.2981  1.6921 -2.5079
  164SAPE   C1218398   3.695   5.688   6.140 -0.0870  0.0913  1.0240
  164SAPE  H12A18399   3.716   5.760   6.058 -1.7983 -1.7375 -1.1951
  164SAPE  H12B18400   3.587   5.660   6.134  0.0834 -0.4993  0.5152
  164SAPE   C1118401   3.789   5.572   6.119 -0.4436 -0.4347 -0.4585
  164SAPE  H11A18402   3.882   5.598   6.174 -0.8252  0.2905 -0.1379
  164SAPE  H11B18403   3.822   5.577   6.012 -1.0527 -0.7776 -0.6651
  164SAPE     P18404   3.830   5.325   6.162  0.1653 -0.6171 -0.3726
  164SAPE   O1318405   3.749   5.222   6.103  0.6629  0.2609  0.1555
  164SAPE   O1418406   3.959   5.355   6.097 -0.0528  0.5054  0.7618
  164SAPE   O1218407   3.742   5.452   6.167  0.0787 -0.8973 -0.0933
  164SAPE   O1118408   3.849   5.298   6.320 -0.1487  0.5824  0.3228
  164SAPE    C118409   3.742   5.327   6.412 -0.1280 -0.1325  0.3654
  164SAPE    HA18410   3.786   5.416   6.462 -1.6170 -0.3524  2.1266
  164SAPE    HB18411   3.649   5.361   6.363 -1.0936  0.9834  2.8140
  164SAPE    C218412   3.709   5.215   6.513 -0.3906  0.1529  0.4822
  164SAPE    HS18413   3.616   5.239   6.571  1.0743  3.1537  1.8031
  164SAPE   O2118414   3.808   5.213   6.615  0.2426 -1.0931 -0.2326
  164SAPE   C2118415   3.807   5.321   6.702 -0.1890  0.2763 -0.2516
  164SAPE   O2218416   3.718   5.398   6.711  0.1784  0.1299 -0.0771
  164SAPE   C2218417   3.931   5.305   6.796  0.2781 -0.0428 -1.1115
  164SAPE   H2R18418   3.920   5.199   6.828  3.5916 -0.6403 -1.6615
  164SAPE   H2S18419   4.021   5.334   6.738  0.3385  1.9914 -0.0570
  164SAPE    C318420   3.700   5.082   6.443  1.0599  0.6956 -0.5642
  164SAPE    HX18421   3.793   5.060   6.387  0.7963 -0.6499 -0.4962
  164SAPE    HY18422   3.617   5.092   6.370  0.1291  0.7272  0.4679
  164SAPE   O3118423   3.657   4.968   6.530  0.3292  0.5878 -0.1087
  164SAPE   C3118424   3.529   4.963   6.569  0.1075 -0.0113 -0.8284
  164SAPE   O3218425   3.439   5.038   6.547 -0.6614 -0.5916 -0.7816
  164SAPE   C3218426   3.521   4.848   6.664  0.1471 -0.3809  0.3204
  164SAPE   H2X18427   3.614   4.856   6.724 -0.8016  1.8465  1.6221
  164SAPE   H2Y18428   3.534   4.754   6.606  0.1847  0.5189 -1.1835
  164SAPE   C2318429   3.941   5.394   6.930 -0.0556  0.1646  0.3658
  164SAPE   H3R18430   3.932   5.500   6.898 -2.0132  0.2367  1.0144
  164SAPE   H3S18431   4.045   5.381   6.967  0.3357 -0.3792 -0.8799
  164SAPE   C2418432   3.822   5.359   7.019  0.5553 -0.4247  0.5194
  164SAPE   H4R18433   3.813   5.248   7.030 -0.7010 -0.5040 -0.9885
  164SAPE   H4S18434   3.734   5.384   6.956  1.3423  2.4735  0.4694
  164SAPE   C2518435   3.821   5.443   7.142  0.2524  0.7174 -0.1101
  164SAPE   H5R18436   3.813   5.551   7.123 -3.5235  0.8757  1.4779
  164SAPE   C2618437   3.802   5.393   7.262 -0.0355 -0.7910 -0.3474
  164SAPE   H6R18438   3.776   5.462   7.344  0.0337 -0.9434 -0.1953
  164SAPE   C2718439   3.782   5.246   7.285 -0.1692  0.4181  0.2588
  164SAPE   H7R18440   3.701   5.209   7.219  1.1407 -0.8052 -0.7137
  164SAPE   H7S18441   3.740   5.226   7.386  2.2221  0.4176  1.3177
  164SAPE   C2818442   3.916   5.167   7.290  0.2524 -0.2329 -0.0392
  164SAPE   H8R18443   3.959   5.150   7.190 -2.7343  0.0188 -1.4964
  164SAPE   C2918444   3.988   5.127   7.396  0.0903 -0.3476  0.7100
  164SAPE   H9R18445   4.085   5.080   7.376 -1.0433 -3.2236  1.5505
  164SAPE  C21018446   3.955   5.149   7.544 -0.0864 -0.2840  0.1052
  164SAPE  H10R18447   4.000   5.065   7.601  1.1049  0.3161  0.0985
  164SAPE  H10S18448   3.847   5.157   7.568 -0.2304 -2.6089  0.4162
  164SAPE  C21118449   4.023   5.272   7.602  0.0479  0.3200 -0.5248
  164SAPE  H11R18450   4.086   5.328   7.532  1.1124 -0.0986  0.0704
  164SAPE  C21218451   4.002   5.322   7.726 -0.2798 -0.1523  0.4303
  164SAPE  H12R18452   4.058   5.413   7.752 -2.0491  1.0903  0.0541
  164SAPE  C21318453   3.917   5.271   7.841  0.8857 -0.2462  0.0858
  164SAPE  H13R18454   3.978   5.204   7.906 -1.7840 -0.9799  2.0239
  164SAPE  H13S18455   3.837   5.208   7.798 -1.3457  2.3711  0.1091
  164SAPE  C21418456   3.843   5.370   7.920 -0.8424 -0.7152 -0.1793
  164SAPE  H14R18457   3.868   5.473   7.890  1.3838 -0.7310  1.3599
  164SAPE  C21518458   3.762   5.347   8.013 -0.2501 -0.2088  0.1132
  164SAPE  H15R18459   3.715   5.427   8.073  0.3217 -0.0119  0.3048
  164SAPE  C21618460   3.715   5.211   8.053 -0.3385  0.6525 -0.4703
  164SAPE  H16R18461   3.776   5.139   7.994  1.0366  2.0073 -0.7797
  164SAPE  H16S18462   3.610   5.190   8.026 -0.6799  0.5516  0.8659
  164SAPE  C21718463   3.721   5.192   8.206  0.0392  0.1259 -1.0135
  164SAPE  H17R18464   3.661   5.275   8.251  1.1491  0.9200 -0.9592
  164SAPE  H17S18465   3.825   5.212   8.238  0.0451  0.6299 -1.3418
  164SAPE  C21818466   3.678   5.050   8.253 -0.6056  0.1387 -0.6200
  164SAPE  H18R18467   3.579   5.024   8.209  0.0960 -3.2160 -0.4822
  164SAPE  H18S18468   3.662   5.046   8.363 -3.4490 -1.2733 -0.9827
  164SAPE  C21918469   3.763   4.929   8.208 -1.0684  0.5264 -0.7395
  164SAPE  H19R18470   3.860   4.935   8.263 -2.2746  1.1106  1.4180
  164SAPE  H19S18471   3.777   4.942   8.099 -1.3111  1.4860 -0.6672
  164SAPE  C22018472   3.698   4.791   8.251 -0.0027  0.4648 -0.0805
  164SAPE  H20R18473   3.623   4.762   8.174  1.4272 -1.9932 -0.6377
  164SAPE  H20S18474   3.643   4.793   8.347  1.7515  0.4721  0.9779
  164SAPE  H20T18475   3.780   4.718   8.267  0.6252  1.1817  0.0830
  164SAPE   C3318476   3.393   4.854   6.745  0.5155  0.7142 -0.1256
  164SAPE   H3X18477   3.305   4.903   6.697 -1.0487 -0.8382  1.0058
  164SAPE   H3Y18478   3.415   4.904   6.842  2.6344  0.5104 -0.4509
  164SAPE   C3418479   3.329   4.722   6.788 -0.1484 -0.7615  0.2658
  164SAPE   H4X18480   3.419   4.680   6.840  1.4982 -0.5910 -2.2709
  164SAPE   H4Y18481   3.312   4.671   6.691  1.9670  1.9783 -1.6883
  164SAPE   C3518482   3.217   4.723   6.891  0.3304  0.0334 -0.7396
  164SAPE   H5X18483   3.137   4.792   6.856  0.0725  2.7463  4.1761
  164SAPE   H5Y18484   3.254   4.763   6.988  1.3831  0.0184 -1.1208
  164SAPE   C3618485   3.165   4.584   6.930 -0.2346  0.9798  0.1560
  164SAPE   H6X18486   3.238   4.547   7.006  0.9783  0.8858 -1.0148
  164SAPE   H6Y18487   3.167   4.510   6.847 -2.2431 -0.6057  1.4200
  164SAPE   C3718488   3.031   4.567   7.000  0.4413  0.7082  0.2354
  164SAPE   H7X18489   3.011   4.459   7.015  2.0438  0.3193 -0.2031
  164SAPE   H7Y18490   2.945   4.602   6.940  0.3738  0.4681  0.1914
  164SAPE   C3818491   3.020   4.612   7.147 -0.7783  0.3573 -0.0663
  164SAPE   H8X18492   2.998   4.721   7.146 -0.3960  0.4579  1.1735
  164SAPE   H8Y18493   3.114   4.584   7.199 -2.2024 -1.6228  1.5659
  164SAPE   C3918494   2.901   4.554   7.229  0.4817  0.0833 -0.1761
  164SAPE   H9X18495   2.893   4.443   7.220  2.7526 -0.6706  4.3107
  164SAPE   H9Y18496   2.803   4.601   7.207  0.4426  0.1883  0.2156
  164SAPE  C31018497   2.931   4.598   7.372  0.1893 -0.7003 -0.0435
  164SAPE  H10X18498   2.949   4.707   7.363  0.2132 -0.7655 -0.8850
  164SAPE  H10Y18499   3.026   4.552   7.405 -0.0794 -2.0969 -1.0846
  164SAPE  C31118500   2.821   4.564   7.479  0.0023  0.3587 -0.1752
  164SAPE  H11X18501   2.787   4.458   7.472 -1.5346  0.5636  2.7372
  164SAPE  H11Y18502   2.728   4.623   7.462  2.0242  3.1595 -2.5989
  164SAPE  C31218503   2.866   4.571   7.617 -0.4119  0.0477 -0.1316
  164SAPE  H12X18504   2.881   4.677   7.647 -0.6745 -0.5172  2.2055
  164SAPE  H12Y18505   2.960   4.513   7.628 -0.9487 -2.0023 -4.4325
  164SAPE  C31318506   2.769   4.508   7.717 -0.0766 -0.0793 -0.0270
  164SAPE  H13X18507   2.755   4.399   7.704  0.1407 -0.0566 -0.4822
  164SAPE  H13Y18508   2.664   4.540   7.702 -0.9401 -2.7180 -0.0881
  164SAPE  C31418509   2.799   4.554   7.866  1.1983 -0.7465 -0.4484
  164SAPE  H14X18510   2.705   4.591   7.912  0.7805 -2.6502  0.3250
  164SAPE  H14Y18511   2.869   4.640   7.859 -0.7564  0.9070 -0.6032
  164SAPE  C31518512   2.865   4.439   7.944  0.1472 -0.2642  0.3754
  164SAPE  H15X18513   2.952   4.410   7.881  0.4072  4.0499 -1.6244
  164SAPE  H15Y18514   2.792   4.355   7.946  2.5358 -2.4400  0.3286
  164SAPE  C31618515   2.898   4.483   8.092  0.4063  0.9626  0.4267
  164SAPE  H16X18516   2.909   4.389   8.150  0.0787  1.1103  0.7294
  164SAPE  H16Y18517   2.815   4.541   8.139 -1.3816 -0.3592 -0.9584
  164SAPE  C31718518   3.024   4.549   8.081  0.0704  0.0227  0.2217
  164SAPE  H17X18519   3.023   4.618   7.994  0.5081  1.3022  1.2042
  164SAPE  H17Y18520   3.107   4.475   8.076  0.0718  0.0814 -0.9142
  164SAPE  C31818521   3.043   4.642   8.204 -1.0413 -0.1737  0.6571
  164SAPE  H18X18522   3.072   4.574   8.286  1.3390 -0.0462 -0.0090
  164SAPE  H18Y18523   2.957   4.708   8.231 -1.3986 -0.9050  1.3392
  164SAPE  H18Z18524   3.134   4.702   8.187 -0.4873 -1.3713 -0.8232
  165SAPE     N18525   6.760   0.154   6.296 -0.7279 -0.1470 -0.2460
  165SAPE   HN118526   6.803   0.249   6.300 -1.8537  0.3476  1.0365
  165SAPE   HN218527   6.674   0.169   6.353  0.9576  2.0586  1.9718
  165SAPE   HN318528   6.812   0.090   6.360 -0.6360 -0.9256 -1.0909
  165SAPE   C1218529   6.758   0.087   6.162  0.3400  0.2806  0.1358
  165SAPE  H12A18530   6.860   0.079   6.120  0.4483  0.8012  0.2882
  165SAPE  H12B18531   6.706   0.163   6.100  0.9071  0.9444  0.4583
  165SAPE   C1118532   6.690  -0.050   6.166 -0.9522  0.3846 -0.0959
  165SAPE  H11A18533   6.676  -0.097   6.066 -0.9010 -3.1114  1.3643
  165SAPE  H11B18534   6.594  -0.039   6.222 -0.5856 -1.6111  1.0516
  165SAPE     P18535   6.723  -0.281   6.285  0.1892  0.0939  0.1754
  165SAPE   O1318536   6.645  -0.338   6.175  0.6894  0.3075 -0.6322
  165SAPE   O1418537   6.830  -0.367   6.342 -0.3395  0.5934 -0.2134
  165SAPE   O1218538   6.776  -0.134   6.246  0.1866  1.1199  0.2437
  165SAPE   O1118539   6.637  -0.241   6.408 -0.5259  0.3147  0.6459
  165SAPE    C118540   6.687  -0.184   6.530  0.3980 -0.0572 -0.0383
  165SAPE    HA18541   6.783  -0.130   6.515  0.3633  0.2257  0.7417
  165SAPE    HB18542   6.608  -0.113   6.559 -2.6984 -2.4884 -1.8324
  165SAPE    C218543   6.704  -0.296   6.631  0.0817  0.4599 -1.1712
  165SAPE    HS18544   6.742  -0.382   6.572  2.6291  2.5688 -2.8480
  165SAPE   O2118545   6.583  -0.322   6.704  1.0587  0.2914 -0.1871
  165SAPE   C2118546   6.569  -0.453   6.725  0.6580 -0.1387  0.8817
  165SAPE   O2218547   6.645  -0.544   6.709  0.5473 -0.3348 -0.1134
  165SAPE   C2218548   6.431  -0.467   6.785 -0.1178 -0.0143 -0.9716
  165SAPE   H2R18549   6.369  -0.378   6.764  1.9905  2.2834  1.7684
  165SAPE   H2S18550   6.381  -0.551   6.731 -0.8819  1.4702 -2.6634
  165SAPE    C318551   6.813  -0.247   6.734 -0.2945  0.3455  0.1015
  165SAPE    HX18552   6.765  -0.174   6.802 -0.6585 -1.2391  1.6148
  165SAPE    HY18553   6.898  -0.201   6.679  0.8448 -2.4594 -0.7024
  165SAPE   O3118554   6.857  -0.360   6.813  0.2427 -0.2954 -0.4107
  165SAPE   C3118555   6.944  -0.439   6.755  0.3595 -0.3545 -0.1806
  165SAPE   O3218556   6.989  -0.425   6.642 -0.4180  0.5084 -0.1240
  165SAPE   C3218557   6.955  -0.558   6.847  0.0521  0.2477  0.2691
  165SAPE   H2X18558   6.855  -0.566   6.896  0.8398 -0.8650  1.8107
  165SAPE   H2Y18559   7.040  -0.540   6.915 -0.2304  1.3284  0.3438
  165SAPE   C2318560   6.432  -0.496   6.938 -0.1091 -0.0209  0.8358
  165SAPE   H3R18561   6.326  -0.504   6.971 -0.7565  2.6446 -0.2951
  165SAPE   H3S18562   6.471  -0.405   6.989 -1.6632  2.5998 -2.2733
  165SAPE   C2418563   6.505  -0.628   6.990 -0.7623 -0.0861  0.0846
  165SAPE   H4R18564   6.612  -0.626   6.959 -0.3679  0.6585  1.3967
  165SAPE   H4S18565   6.459  -0.713   6.936 -0.3936 -0.2495  0.0262
  165SAPE   C2518566   6.482  -0.646   7.134 -0.5314  0.4969  0.1153
  165SAPE   H5R18567   6.400  -0.716   7.158  0.4492 -0.5148  0.6344
  165SAPE   C2618568   6.570  -0.614   7.233  0.1802  0.4460 -0.3029
  165SAPE   H6R18569   6.542  -0.641   7.336  0.5024 -0.9957 -0.5619
  165SAPE   C2718570   6.694  -0.531   7.213  0.5073 -0.2375 -0.3661
  165SAPE   H7R18571   6.687  -0.461   7.299 -0.9478 -2.2127  1.2396
  165SAPE   H7S18572   6.681  -0.466   7.125 -0.9713 -0.7866 -0.5741
  165SAPE   C2818573   6.829  -0.597   7.215 -0.1050  0.9139 -0.8764
  165SAPE   H8R18574   6.846  -0.631   7.111 -0.7733 -2.9230  0.1059
  165SAPE   C2918575   6.913  -0.615   7.313 -0.5129 -0.5592 -1.1669
  165SAPE   H9R18576   7.001  -0.675   7.285  3.0176  4.1752 -1.5547
  165SAPE  C21018577   6.897  -0.571   7.453  0.6049 -0.8223  0.6291
  165SAPE  H10R18578   6.788  -0.573   7.474  0.5429 -1.2385  0.2743
  165SAPE  H10S18579   6.942  -0.470   7.464  1.2425 -1.0960  0.5902
  165SAPE  C21118580   6.968  -0.669   7.543 -0.2596 -0.6697 -0.0949
  165SAPE  H11R18581   7.059  -0.719   7.507  0.1159 -0.2478  0.2515
  165SAPE  C21218582   6.933  -0.690   7.676  0.4530  0.2588  0.3118
  165SAPE  H12R18583   7.000  -0.762   7.723 -1.9395 -0.3268  3.1016
  165SAPE  C21318584   6.818  -0.628   7.752 -0.4034 -0.1614  0.6876
  165SAPE  H13R18585   6.778  -0.541   7.694 -1.7815 -0.5184  1.0583
  165SAPE  H13S18586   6.846  -0.602   7.856 -0.1087 -1.2062  0.8816
  165SAPE  C21418587   6.714  -0.741   7.751 -0.7076 -0.0052  0.1565
  165SAPE  H14R18588   6.677  -0.777   7.653 -1.1077  0.1985  0.2319
  165SAPE  C21518589   6.681  -0.814   7.860 -0.1175 -0.1482 -0.2187
  165SAPE  H15R18590   6.593  -0.878   7.841 -1.0004  0.1971  2.2877
  165SAPE  C21618591   6.729  -0.797   8.003 -0.4882 -0.9381 -0.2772
  165SAPE  H16R18592   6.645  -0.760   8.064  0.2448  0.2826  0.0129
  165SAPE  H16S18593   6.817  -0.732   8.020 -0.6376 -0.6660 -0.5435
  165SAPE  C21718594   6.760  -0.933   8.077 -0.2196 -0.3231 -0.4915
  165SAPE  H17R18595   6.845  -0.988   8.030  2.0135  1.5895  1.0382
  165SAPE  H17S18596   6.665  -0.988   8.065 -1.5831  1.8853 -0.3124
  165SAPE  C21818597   6.797  -0.912   8.225 -0.0871  0.4793 -0.3571
  165SAPE  H18R18598   6.808  -1.016   8.263  1.1118  0.9614  0.6784
  165SAPE  H18S18599   6.709  -0.872   8.280  0.0518 -0.4482  0.5683
  165SAPE  C21918600   6.924  -0.829   8.263 -0.1813 -0.5615  0.6757
  165SAPE  H19R18601   6.909  -0.722   8.241 -0.1975 -0.2595  2.0690
  165SAPE  H19S18602   7.005  -0.850   8.190 -1.7166 -0.4421 -1.1437
  165SAPE  C22018603   6.968  -0.844   8.406 -0.0543  0.6546 -0.5888
  165SAPE  H20R18604   7.072  -0.806   8.420  1.0376 -1.6533 -1.7185
  165SAPE  H20S18605   6.973  -0.952   8.432 -0.6804  1.0089  1.1187
  165SAPE  H20T18606   6.905  -0.791   8.480 -0.4961  0.0710 -0.5455
  165SAPE   C3318607   6.985  -0.698   6.782 -0.3843  0.4237  0.3830
  165SAPE   H3X18608   7.089  -0.699   6.744 -0.5788 -2.7559 -0.3582
  165SAPE   H3Y18609   6.914  -0.708   6.697  0.4368  1.9285 -0.5100
  165SAPE   C3418610   6.964  -0.819   6.881 -0.0711  0.3711 -1.3230
  165SAPE   H4X18611   6.968  -0.918   6.829 -0.7666 -1.2150  1.4166
  165SAPE   H4Y18612   6.864  -0.808   6.929  0.6555 -1.3179  0.7171
  165SAPE   C3518613   7.078  -0.828   6.987 -0.0252  0.5440 -0.4268
  165SAPE   H5X18614   7.107  -0.724   7.012  2.0607 -0.1089  0.0255
  165SAPE   H5Y18615   7.160  -0.881   6.935 -0.9181 -0.6447 -0.6638
  165SAPE   C3618616   7.030  -0.907   7.113 -0.2018 -0.5574  0.3535
  165SAPE   H6X18617   7.004  -1.009   7.077 -0.2759 -0.1561 -0.7726
  165SAPE   H6Y18618   6.931  -0.879   7.155 -1.9951 -0.6978 -3.3480
  165SAPE   C3718619   7.133  -0.928   7.223 -0.9077 -0.3366 -0.1729
  165SAPE   H7X18620   7.156  -0.824   7.257 -1.7106  0.8930 -3.0444
  165SAPE   H7Y18621   7.224  -0.976   7.181 -2.4107 -1.5744 -2.1991
  165SAPE   C3818622   7.079  -1.002   7.343 -0.1844  0.0720  0.5108
  165SAPE   H8X18623   7.037  -1.093   7.296 -2.5690  1.3701 -0.0234
  165SAPE   H8Y18624   6.990  -0.952   7.386 -0.5194 -0.6998  0.7317
  165SAPE   C3918625   7.182  -1.041   7.444  0.2766 -0.1586  0.5372
  165SAPE   H9X18626   7.276  -0.983   7.442  0.1079  0.1133 -0.9689
  165SAPE   H9Y18627   7.221  -1.142   7.418  3.6058  1.3090 -0.6351
  165SAPE  C31018628   7.127  -1.049   7.583  0.1463  0.2389  0.0390
  165SAPE  H10X18629   7.039  -1.118   7.580  0.0131  0.3601  0.8916
  165SAPE  H10Y18630   7.095  -0.947   7.614  2.8870  2.0173 -2.5149
  165SAPE  C31118631   7.225  -1.103   7.691 -0.2209 -0.0401  0.8214
  165SAPE  H11X18632   7.314  -1.038   7.706  0.3921 -1.0759  1.8198
  165SAPE  H11Y18633   7.265  -1.195   7.644  0.6482  2.0585 -3.0106
  165SAPE  C31218634   7.155  -1.129   7.822  0.4323 -0.5878 -0.3611
  165SAPE  H12X18635   7.073  -1.201   7.799 -0.8148  0.8943 -0.6493
  165SAPE  H12Y18636   7.111  -1.034   7.858  1.6576 -0.6513  1.4735
  165SAPE  C31318637   7.248  -1.179   7.933  0.3189  0.7993 -0.8563
  165SAPE  H13X18638   7.316  -1.260   7.897 -0.0106  0.4395 -0.6655
  165SAPE  H13Y18639   7.183  -1.224   8.011  1.2635 -2.3492 -1.7149
  165SAPE  C31418640   7.352  -1.079   7.988 -0.3024  0.2205  0.5907
  165SAPE  H14X18641   7.397  -1.034   7.896  0.4599 -1.8583 -0.1064
  165SAPE  H14Y18642   7.440  -1.124   8.039  0.1241 -0.4746 -0.7067
  165SAPE  C31518643   7.290  -0.970   8.075 -0.0029  0.2591 -0.4760
  165SAPE  H15X18644   7.249  -1.020   8.165 -0.6293 -0.4502 -1.1435
  165SAPE  H15Y18645   7.205  -0.924   8.019 -0.2901 -0.6920 -0.8505
  165SAPE  C31618646   7.382  -0.859   8.126  0.0281  0.3100  0.1871
  165SAPE  H16X18647   7.413  -0.793   8.043  2.3706  0.7994  1.3569
  165SAPE  H16Y18648   7.468  -0.909   8.176 -1.1545 -0.6984  1.2796
  165SAPE  C31718649   7.333  -0.771   8.236 -0.7933 -0.3164 -0.2395
  165SAPE  H17X18650   7.277  -0.821   8.318  0.5271  0.3644  1.1323
  165SAPE  H17Y18651   7.264  -0.692   8.199  1.5502  1.5175 -0.9151
  165SAPE  C31818652   7.442  -0.686   8.305  0.7285 -0.1245 -0.2975
  165SAPE  H18X18653   7.463  -0.604   8.233  0.7637  0.7812  0.7172
  165SAPE  H18Y18654   7.531  -0.750   8.324 -0.0282 -0.6233  1.8897
  165SAPE  H18Z18655   7.407  -0.642   8.400  2.0500 -1.2000  0.7381
  166SAPE     N18656   6.701   4.069   5.871  0.2398 -0.0188 -0.1184
  166SAPE   HN118657   6.673   4.165   5.841 -0.7901 -0.2895 -0.0566
  166SAPE   HN218658   6.770   4.028   5.804 -1.1062  0.0709 -1.6283
  166SAPE   HN318659   6.613   4.017   5.852 -1.1834  2.5441 -0.9113
  166SAPE   C1218660   6.764   4.084   6.011 -0.0230  0.1338  0.1605
  166SAPE  H12A18661   6.750   3.985   6.058 -1.4791 -0.9229 -2.3349
  166SAPE  H12B18662   6.704   4.164   6.060  0.0389  0.4241 -0.2329
  166SAPE   C1118663   6.916   4.121   5.994  0.6134  0.2769  0.0345
  166SAPE  H11A18664   6.967   4.118   6.092 -0.1303 -0.6853  0.4122
  166SAPE  H11B18665   6.913   4.226   5.957 -0.7253 -0.1680 -1.2308
  166SAPE     P18666   7.099   4.070   5.818 -0.0573 -0.0477  0.4139
  166SAPE   O1318667   7.090   3.985   5.704  0.8136  0.1896  0.4694
  166SAPE   O1418668   7.105   4.216   5.780  0.4830  0.1387  0.1710
  166SAPE   O1218669   6.975   4.027   5.911  0.5274  0.2389  0.4116
  166SAPE   O1118670   7.221   4.016   5.907 -0.0811 -0.2131 -0.3279
  166SAPE    C118671   7.199   3.905   5.995 -0.1897  0.2001 -0.0444
  166SAPE    HA18672   7.106   3.848   5.974  0.4243 -0.9852  0.3878
  166SAPE    HB18673   7.273   3.823   5.985 -0.0284  0.2485  0.6550
  166SAPE    C218674   7.188   3.943   6.147 -0.2311 -0.0540 -0.1921
  166SAPE    HS18675   7.140   4.043   6.143 -1.4111 -0.6452 -1.6830
  166SAPE   O2118676   7.318   3.945   6.212 -0.4350  0.3108 -0.1122
  166SAPE   C2118677   7.354   4.057   6.278  0.2003  0.5309 -0.3040
  166SAPE   O2218678   7.285   4.156   6.293 -0.4216  0.4490  0.0751
  166SAPE   C2218679   7.504   4.034   6.323 -0.0451 -0.5433  0.2805
  166SAPE   H2R18680   7.523   3.925   6.336  1.6107 -0.2458  0.5659
  166SAPE   H2S18681   7.572   4.065   6.241  1.2529  0.4728  1.6828
  166SAPE    C318682   7.096   3.839   6.218  0.1415  0.2891  0.0545
  166SAPE    HX18683   7.131   3.736   6.197 -0.7337 -0.2828  1.2615
  166SAPE    HY18684   6.997   3.844   6.167 -1.2095 -0.7955  2.3637
  166SAPE   O3118685   7.087   3.869   6.358 -0.4523  0.3913  0.6919
  166SAPE   C3118686   6.995   3.955   6.391 -0.0361 -0.2801 -0.1076
  166SAPE   O3218687   6.930   4.027   6.318 -0.4166  0.0883 -0.0198
  166SAPE   C3218688   6.999   3.965   6.545 -0.2424  0.3414 -0.1423
  166SAPE   H2X18689   7.107   3.963   6.571 -0.3307 -3.8537  0.5268
  166SAPE   H2Y18690   6.961   3.869   6.585 -0.3927 -0.1822 -1.5144
  166SAPE   C2318691   7.523   4.105   6.464 -0.4054  0.6474  0.0062
  166SAPE   H3R18692   7.493   4.211   6.449 -0.8290  0.3348 -1.4854
  166SAPE   H3S18693   7.626   4.097   6.503 -0.7862 -1.7517  0.6440
  166SAPE   C2418694   7.421   4.047   6.566 -0.2044  0.0543 -0.4009
  166SAPE   H4R18695   7.314   4.034   6.539 -0.5489  1.6796  0.0792
  166SAPE   H4S18696   7.423   4.110   6.657 -0.4248  1.0022 -1.0395
  166SAPE   C2518697   7.462   3.908   6.598 -0.0392 -0.5774 -0.0175
  166SAPE   H5R18698   7.473   3.848   6.506  0.0356  0.1311 -0.4822
  166SAPE   C2618699   7.482   3.862   6.723 -0.1998  0.2899  0.3824
  166SAPE   H6R18700   7.509   3.756   6.722 -1.7324 -0.1207 -0.0077
  166SAPE   C2718701   7.488   3.924   6.856 -0.2155  0.1915 -0.1647
  166SAPE   H7R18702   7.383   3.943   6.889 -0.1824  1.6437 -0.8280
  166SAPE   H7S18703   7.533   4.025   6.845  1.1325 -0.3903 -0.1780
  166SAPE   C2818704   7.562   3.843   6.968  0.4642 -0.1452 -0.3165
  166SAPE   H8R18705   7.648   3.795   6.918  0.5257  0.5972 -0.9333
  166SAPE   C2918706   7.526   3.817   7.096 -0.3212  0.6049  0.3315
  166SAPE   H9R18707   7.600   3.766   7.159 -1.6500 -0.2902  1.2416
  166SAPE  C21018708   7.406   3.860   7.166 -0.5711 -0.3697 -0.5696
  166SAPE  H10R18709   7.372   3.778   7.233  1.7552 -1.6680 -0.8544
  166SAPE  H10S18710   7.320   3.872   7.098  0.3210 -0.9828 -1.8558
  166SAPE  C21118711   7.439   3.990   7.238 -0.1522 -0.3498  0.7026
  166SAPE  H11R18712   7.444   4.083   7.180 -1.5345  0.3579  1.6561
  166SAPE  C21218713   7.467   4.012   7.369 -0.0463  0.3159 -0.2704
  166SAPE  H12R18714   7.513   4.108   7.396 -0.7936  0.0949  2.0676
  166SAPE  C21318715   7.473   3.924   7.496 -0.0782  0.2646  0.7566
  166SAPE  H13R18716   7.577   3.885   7.503  0.1296  0.6720 -0.0093
  166SAPE  H13S18717   7.410   3.833   7.491  1.2706 -0.8807  3.0905
  166SAPE  C21418718   7.446   3.981   7.628  0.5606  0.0052 -0.3101
  166SAPE  H14R18719   7.343   4.009   7.656  0.7301  2.6386 -1.9523
  166SAPE  C21518720   7.540   3.997   7.719  0.2494 -0.4127  0.3088
  166SAPE  H15R18721   7.511   4.060   7.804 -0.1121  0.6638 -0.5913
  166SAPE  C21618722   7.688   3.970   7.698  0.0212 -0.1420  0.1318
  166SAPE  H16R18723   7.739   4.040   7.628  0.3344  0.3648  0.8479
  166SAPE  H16S18724   7.707   3.862   7.682 -2.3301 -0.7520  0.9606
  166SAPE  C21718725   7.761   4.005   7.825 -0.0493 -0.3817  0.1289
  166SAPE  H17R18726   7.735   3.927   7.900  2.9025 -0.0846  1.6057
  166SAPE  H17S18727   7.731   4.100   7.875  0.9319  0.9991 -1.8012
  166SAPE  C21818728   7.908   4.026   7.808 -0.1166  1.4564 -0.2727
  166SAPE  H18R18729   7.921   4.126   7.760 -1.2305  1.4527 -0.6134
  166SAPE  H18S18730   7.956   3.945   7.749  0.9901  1.5531  0.4515
  166SAPE  C21918731   7.984   4.025   7.945 -0.5019  0.5536  0.1196
  166SAPE  H19R18732   8.091   4.013   7.917 -0.3381  1.4053  0.3404
  166SAPE  H19S18733   7.952   3.934   8.001  1.8883 -1.4161 -1.4716
  166SAPE  C22018734   7.973   4.153   8.025  0.6818  0.4901  0.2593
  166SAPE  H20R18735   8.001   4.131   8.130 -0.9314  0.5014  0.7214
  166SAPE  H20S18736   7.865   4.178   8.036  0.3203 -0.3890 -0.9852
  166SAPE  H20T18737   8.023   4.238   7.974 -0.3204 -0.1057 -1.8149
  166SAPE   C3318738   6.928   4.095   6.607 -1.0480  0.5263  0.2011
  166SAPE   H3X18739   6.836   4.064   6.661 -0.9416  0.1714  0.1751
  166SAPE   H3Y18740   6.896   4.172   6.533 -3.6566 -0.1407  0.5195
  166SAPE   C3418741   7.016   4.157   6.721 -0.2865  0.3925 -0.3111
  166SAPE   H4X18742   6.961   4.243   6.765  2.5093  1.9152  0.4741
  166SAPE   H4Y18743   7.109   4.200   6.678 -0.1996 -0.1460 -0.6699
  166SAPE   C3518744   7.055   4.059   6.837 -0.4211 -0.1456 -0.3125
  166SAPE   H5X18745   7.129   3.989   6.793 -1.0201 -0.3325 -1.0464
  166SAPE   H5Y18746   6.966   4.009   6.882 -0.6699 -1.9912 -2.6755
  166SAPE   C3618747   7.108   4.134   6.961 -0.2542 -0.5982 -0.7416
  166SAPE   H6X18748   7.107   4.242   6.933 -1.1186 -0.3743  0.1065
  166SAPE   H6Y18749   7.214   4.105   6.979 -0.5666 -1.8820 -0.8763
  166SAPE   C3718750   7.030   4.108   7.088  0.3451  0.1609 -0.7352
  166SAPE   H7X18751   6.998   4.002   7.102 -1.1047  0.8183  1.7241
  166SAPE   H7Y18752   6.936   4.168   7.089 -0.1760 -0.6338 -0.7605
  166SAPE   C3818753   7.101   4.158   7.218  0.8427  0.2475  0.2800
  166SAPE   H8X18754   7.137   4.260   7.192  0.4754  0.2414 -0.2792
  166SAPE   H8Y18755   7.188   4.094   7.244 -0.3370 -2.0191 -1.0792
  166SAPE   C3918756   7.008   4.175   7.336 -0.2748 -1.0331 -0.5135
  166SAPE   H9X18757   6.947   4.083   7.350 -2.0805  0.1414 -0.2504
  166SAPE   H9Y18758   6.927   4.250   7.320 -0.1306 -1.2229 -2.3168
  166SAPE  C31018759   7.089   4.193   7.468  1.0360 -0.5312  0.0074
  166SAPE  H10X18760   7.167   4.272   7.474  2.2445 -1.6778 -0.1769
  166SAPE  H10Y18761   7.151   4.102   7.479  0.1147 -1.0475  1.2439
  166SAPE  C31118762   7.006   4.197   7.599 -0.4184 -0.1438  0.6656
  166SAPE  H11X18763   6.964   4.096   7.619 -1.3448 -0.3436 -1.9462
  166SAPE  H11Y18764   6.931   4.279   7.600 -1.7380 -1.2896 -0.8789
  166SAPE  C31218765   7.101   4.215   7.715 -0.4651  0.7711 -0.0434
  166SAPE  H12X18766   7.163   4.306   7.697 -0.7733  1.1316  0.6710
  166SAPE  H12Y18767   7.177   4.134   7.710 -2.0202 -0.8240  0.9785
  166SAPE  C31318768   7.043   4.228   7.849  0.8220 -0.2706  0.5224
  166SAPE  H13X18769   6.997   4.133   7.883 -0.7976  0.1339 -0.4488
  166SAPE  H13Y18770   6.949   4.286   7.850  1.4664  0.7963  1.0076
  166SAPE  C31418771   7.146   4.297   7.941  0.4107  0.5357  0.2967
  166SAPE  H14X18772   7.115   4.279   8.046  0.2441 -0.7871  0.0449
  166SAPE  H14Y18773   7.153   4.406   7.921 -0.9335  0.5230 -0.2911
  166SAPE  C31518774   7.288   4.230   7.935 -0.4858 -0.0036  0.8362
  166SAPE  H15X18775   7.336   4.263   7.840  2.4830 -3.2131  1.0655
  166SAPE  H15Y18776   7.289   4.120   7.920  0.4764 -0.1462  1.8329
  166SAPE  C31618777   7.365   4.268   8.060 -0.2666 -0.0252 -0.5558
  166SAPE  H16X18778   7.320   4.210   8.143  1.2191 -2.5702 -1.4161
  166SAPE  H16Y18779   7.365   4.377   8.078  2.6451 -0.3714  2.5175
  166SAPE  C31718780   7.515   4.236   8.051 -0.0944  0.1158  0.4303
  166SAPE  H17X18781   7.573   4.328   8.070 -0.7098  0.5426  0.2850
  166SAPE  H17Y18782   7.553   4.207   7.950  1.6196  0.2109  1.0182
  166SAPE  C31818783   7.567   4.127   8.154  0.1962 -0.3732 -0.1885
  166SAPE  H18X18784   7.562   4.163   8.259 -0.9099  2.8496 -1.2156
  166SAPE  H18Y18785   7.676   4.115   8.139  0.1552 -2.0529  0.6759
  166SAPE  H18Z18786   7.510   4.032   8.141 -0.2672 -0.0164 -0.8539
  167SAPE     N18787   2.626   3.744   6.036  0.0156  0.0356  0.1875
  167SAPE   HN118788   2.530   3.750   6.075 -0.0368 -2.2706  0.5207
  167SAPE   HN218789   2.681   3.675   6.090  1.5586  1.2844  0.2967
  167SAPE   HN318790   2.676   3.835   6.046 -0.0977  0.2168 -0.7866
  167SAPE   C1218791   2.633   3.703   5.889 -0.5155  0.0106  0.1454
  167SAPE  H12A18792   2.742   3.690   5.873 -0.3261  0.0016  1.3797
  167SAPE  H12B18793   2.580   3.781   5.829  0.2161 -0.6890 -1.4719
  167SAPE   C1118794   2.552   3.574   5.857 -0.4160  0.3776 -0.0607
  167SAPE  H11A18795   2.602   3.524   5.772 -1.0790  0.8131 -0.7211
  167SAPE  H11B18796   2.451   3.607   5.826  0.0301  0.5708 -1.3592
  167SAPE     P18797   2.458   3.362   5.966  0.1091  0.3584 -0.0414
  167SAPE   O1318798   2.321   3.401   5.963 -0.6348  0.3185  0.2030
  167SAPE   O1418799   2.503   3.265   5.862  0.1611 -0.1539 -0.4863
  167SAPE   O1218800   2.548   3.490   5.966 -0.2429  0.8666  0.3545
  167SAPE   O1118801   2.475   3.309   6.116 -0.5215 -0.0254 -0.8330
  167SAPE    C118802   2.553   3.392   6.207 -0.6669  0.3204 -0.1133
  167SAPE    HA18803   2.651   3.408   6.158 -0.4261  0.5185  0.4318
  167SAPE    HB18804   2.505   3.492   6.218 -0.4872  0.7848 -2.7256
  167SAPE    C218805   2.568   3.313   6.346  0.5455 -0.6507  0.3114
  167SAPE    HS18806   2.618   3.215   6.332  0.2077 -1.2502  2.8104
  167SAPE   O2118807   2.441   3.308   6.415  0.1048  0.1513  0.2373
  167SAPE   C2118808   2.363   3.204   6.388 -0.2354  0.1850 -0.6468
  167SAPE   O2218809   2.389   3.115   6.308  0.5013  0.3750 -0.6546
  167SAPE   C2218810   2.255   3.196   6.501 -0.2720 -0.3077 -0.6917
  167SAPE   H2R18811   2.311   3.187   6.596 -0.6591 -0.1493 -0.4438
  167SAPE   H2S18812   2.208   3.296   6.497  0.6001  0.1339 -0.0250
  167SAPE    C318813   2.679   3.382   6.432 -0.8231  0.2472  0.1239
  167SAPE    HX18814   2.647   3.488   6.431  0.8577  0.8181  1.8436
  167SAPE    HY18815   2.778   3.379   6.383 -0.9201 -2.7279 -0.1003
  167SAPE   O3118816   2.680   3.330   6.564 -0.1477 -0.1183 -0.2433
  167SAPE   C3118817   2.744   3.211   6.566  0.4907  1.0037 -0.3432
  167SAPE   O3218818   2.770   3.139   6.471  0.0431 -0.0232 -0.7156
  167SAPE   C3218819   2.763   3.167   6.709 -0.4381  0.0266 -0.2033
  167SAPE   H2X18820   2.675   3.141   6.771 -0.3342  2.1614  0.9391
  167SAPE   H2Y18821   2.809   3.250   6.767  0.8708 -2.5597  2.8208
  167SAPE   C2318822   2.162   3.069   6.490  0.2383 -0.3077  0.2420
  167SAPE   H3R18823   2.217   2.973   6.509 -1.7197 -1.3601  0.8638
  167SAPE   H3S18824   2.101   3.051   6.400  0.0405 -1.4547  0.5815
  167SAPE   C2418825   2.049   3.080   6.599 -0.3707  0.4332  0.4490
  167SAPE   H4R18826   2.092   3.057   6.699  1.4097 -2.4120 -0.8247
  167SAPE   H4S18827   1.987   2.990   6.580  0.6371  0.0374 -1.1449
  167SAPE   C2518828   1.959   3.199   6.590 -0.9313 -0.0965 -0.4951
  167SAPE   H5R18829   1.907   3.217   6.495 -1.1947 -1.2977 -0.6011
  167SAPE   C2618830   1.947   3.279   6.694  0.5238  0.3639 -0.0035
  167SAPE   H6R18831   1.875   3.362   6.687 -0.7791 -0.3838  2.9392
  167SAPE   C2718832   2.015   3.256   6.833 -0.5678  0.3940 -0.5096
  167SAPE   H7R18833   2.020   3.150   6.863 -1.4958  0.3655 -0.4343
  167SAPE   H7S18834   1.958   3.286   6.923  1.8710 -1.5610  1.8535
  167SAPE   C2818835   2.150   3.329   6.844 -0.0429  0.1476 -0.5916
  167SAPE   H8R18836   2.192   3.377   6.754 -1.9034  1.1307 -0.9766
  167SAPE   C2918837   2.217   3.348   6.961 -0.3537 -0.2063  0.6681
  167SAPE   H9R18838   2.318   3.393   6.959  0.4341 -1.9090 -1.2318
  167SAPE  C21018839   2.170   3.288   7.090 -0.1576 -0.6118 -0.1156
  167SAPE  H10R18840   2.061   3.264   7.086 -0.0440 -0.9602 -2.7636
  167SAPE  H10S18841   2.175   3.364   7.170 -1.2775 -1.8396  1.1805
  167SAPE  C21118842   2.237   3.163   7.132 -0.0283  0.5157  0.1172
  167SAPE  H11R18843   2.263   3.097   7.047 -1.7547 -0.2893  0.1685
  167SAPE  C21218844   2.271   3.125   7.260 -0.0768 -0.0058 -0.5991
  167SAPE  H12R18845   2.309   3.022   7.261  2.1738  0.7812  1.1238
  167SAPE  C21318846   2.243   3.197   7.394  0.0377  0.2010  0.9577
  167SAPE  H13R18847   2.139   3.177   7.429 -1.3081  2.0170 -1.6705
  167SAPE  H13S18848   2.249   3.307   7.381  0.0361 -0.0003 -0.9464
  167SAPE  C21418849   2.348   3.162   7.497  0.1070  0.2842 -0.8754
  167SAPE  H14R18850   2.425   3.240   7.499 -1.0753  1.4947  1.3730
  167SAPE  C21518851   2.358   3.064   7.594 -0.3802 -0.9137 -0.1931
  167SAPE  H15R18852   2.446   3.064   7.659 -0.8967 -1.3758  0.5078
  167SAPE  C21618853   2.277   2.952   7.626  0.3851  0.6095  0.1853
  167SAPE  H16R18854   2.205   2.942   7.542  0.5793  0.8869 -0.0179
  167SAPE  H16S18855   2.226   2.973   7.722  2.0380  1.5019  0.9126
  167SAPE  C21718856   2.361   2.823   7.631  0.1762  0.0521  0.4066
  167SAPE  H17R18857   2.458   2.828   7.686  0.9298  0.8015 -0.9435
  167SAPE  H17S18858   2.383   2.796   7.526 -2.2374  3.0337 -1.0155
  167SAPE  C21818859   2.300   2.704   7.705  0.0061  0.5735 -0.0999
  167SAPE  H18R18860   2.191   2.697   7.685 -0.1324  0.4738  0.6556
  167SAPE  H18S18861   2.316   2.726   7.813  0.9139 -1.2509  0.1845
  167SAPE  C21918862   2.369   2.573   7.658 -0.0742 -0.3485 -0.8849
  167SAPE  H19R18863   2.370   2.488   7.730 -0.9075 -1.2591 -1.9090
  167SAPE  H19S18864   2.480   2.583   7.649  0.1649 -1.5719  0.2966
  167SAPE  C22018865   2.322   2.521   7.522 -0.4159 -0.3561 -0.1779
  167SAPE  H20R18866   2.337   2.593   7.439  0.2568 -0.3318 -0.0416
  167SAPE  H20S18867   2.214   2.496   7.531 -0.7379  1.4412  2.0692
  167SAPE  H20T18868   2.380   2.431   7.490  0.2525  0.5634 -1.6606
  167SAPE   C3318869   2.866   3.057   6.732 -0.1624 -1.2671  0.7995
  167SAPE   H3X18870   2.953   3.068   6.663 -1.3439  0.7961 -0.4605
  167SAPE   H3Y18871   2.816   2.958   6.735 -2.1813 -0.2708  1.0512
  167SAPE   C3418872   2.937   3.089   6.869  0.0955  0.9756 -0.0101
  167SAPE   H4X18873   2.852   3.108   6.937 -0.4305 -0.8022 -0.1329
  167SAPE   H4Y18874   2.991   3.187   6.869 -1.4634  1.8682  0.6572
  167SAPE   C3518875   3.018   2.972   6.922 -0.1465 -0.1076 -1.1745
  167SAPE   H5X18876   3.106   2.941   6.862 -1.0849 -0.4282 -2.4181
  167SAPE   H5Y18877   2.941   2.892   6.926 -0.4372  0.2017 -0.1980
  167SAPE   C3618878   3.067   3.010   7.060 -0.3050 -0.1669 -1.3164
  167SAPE   H6X18879   2.975   3.028   7.118 -1.3794  0.2928 -3.0871
  167SAPE   H6Y18880   3.128   3.103   7.064  1.0093 -1.0256  0.7814
  167SAPE   C3718881   3.167   2.915   7.129 -0.4908  0.4478 -0.2718
  167SAPE   H7X18882   3.266   2.920   7.079  0.1993  2.7293  1.1413
  167SAPE   H7Y18883   3.128   2.812   7.114  1.6241 -0.6166  0.9744
  167SAPE   C3818884   3.175   2.937   7.282  0.0010  0.9260 -0.8694
  167SAPE   H8X18885   3.071   2.937   7.321  0.2550  2.7423 -0.1424
  167SAPE   H8Y18886   3.216   3.035   7.314  0.3653  0.3323  0.5748
  167SAPE   C3918887   3.256   2.824   7.352 -0.3382  0.2935 -0.5236
  167SAPE   H9X18888   3.365   2.830   7.333 -0.4686 -0.1336 -1.5017
  167SAPE   H9Y18889   3.215   2.725   7.323 -2.1052  0.4453  1.2271
  167SAPE  C31018890   3.234   2.831   7.505 -0.3683  0.1120  0.1002
  167SAPE  H10X18891   3.273   2.734   7.543 -0.6156 -0.2424 -0.5414
  167SAPE  H10Y18892   3.128   2.832   7.541 -0.4320  2.0113 -0.0504
  167SAPE  C31118893   3.315   2.940   7.572  0.2234 -0.3616 -0.2449
  167SAPE  H11X18894   3.274   3.034   7.528 -2.1866 -0.9659  0.5720
  167SAPE  H11Y18895   3.423   2.939   7.542  1.2177 -1.5735  3.0046
  167SAPE  C31218896   3.293   2.958   7.722  0.2877  0.2504 -0.4283
  167SAPE  H12X18897   3.341   3.053   7.756  1.9774 -1.4071  2.2340
  167SAPE  H12Y18898   3.327   2.870   7.780 -1.5989 -0.6365 -0.5846
  167SAPE  C31318899   3.144   2.965   7.759  0.5726 -0.4284  0.3109
  167SAPE  H13X18900   3.087   2.873   7.731 -0.2922  0.0482  0.4680
  167SAPE  H13Y18901   3.101   3.052   7.705  1.8747  1.2043  1.8026
  167SAPE  C31418902   3.122   2.992   7.907  0.1918 -0.5832 -0.6172
  167SAPE  H14X18903   3.163   3.093   7.928 -0.9250  0.1301 -1.7356
  167SAPE  H14Y18904   3.178   2.920   7.970 -0.9183  1.0901  2.4570
  167SAPE  C31518905   2.972   2.982   7.959  0.1323  0.0382 -0.3987
  167SAPE  H15X18906   2.968   3.012   8.066 -0.5063 -1.5160  0.0321
  167SAPE  H15Y18907   2.938   2.877   7.945  3.5344 -1.4231  1.0063
  167SAPE  C31618908   2.887   3.087   7.887  0.2284 -0.0271 -0.2933
  167SAPE  H16X18909   2.880   3.058   7.780  2.0687 -1.2012 -0.1486
  167SAPE  H16Y18910   2.929   3.190   7.898 -1.3960  0.6149  0.1149
  167SAPE  C31718911   2.741   3.078   7.929 -0.6067 -0.4367 -0.3792
  167SAPE  H17X18912   2.724   3.121   8.031 -0.1843 -0.3742 -0.3332
  167SAPE  H17Y18913   2.713   2.971   7.939  0.3234 -0.5369  1.7837
  167SAPE  C31818914   2.643   3.141   7.826 -0.2174  0.0208  0.2238
  167SAPE  H18X18915   2.687   3.241   7.805  2.1805 -1.0610 -0.2388
  167SAPE  H18Y18916   2.538   3.163   7.854 -0.8464 -1.9112 -0.4406
  167SAPE  H18Z18917   2.649   3.076   7.736  1.9844  0.1780  0.2099
  168SAPE     N18918   4.408   6.138   6.363  0.1916 -0.0358  0.4503
  168SAPE   HN118919   4.367   6.148   6.269 -0.7360  0.6597  0.9121
  168SAPE   HN218920   4.478   6.214   6.376 -0.8891  1.1503 -0.5228
  168SAPE   HN318921   4.453   6.044   6.356  0.0975 -0.0867  0.5170
  168SAPE   C1218922   4.288   6.151   6.454  0.5829 -0.3647 -0.7357
  168SAPE  H12A18923   4.284   6.261   6.466 -0.6657 -0.4862  0.2851
  168SAPE  H12B18924   4.314   6.100   6.549 -0.5341  0.6771  0.1683
  168SAPE   C1118925   4.151   6.092   6.402  0.3642 -0.5179  0.5856
  168SAPE  H11A18926   4.121   6.140   6.306  1.5773  0.2000  0.5526
  168SAPE  H11B18927   4.078   6.135   6.474  0.8100  0.3944  0.5093
  168SAPE     P18928   4.067   5.862   6.468 -0.0232  0.1289 -0.0543
  168SAPE   O1318929   3.941   5.825   6.401  0.5134 -0.3491  0.5049
  168SAPE   O1418930   4.147   5.752   6.514 -0.0488 -0.1429 -0.8267
  168SAPE   O1218931   4.152   5.951   6.382  0.1652 -0.0226 -0.2087
  168SAPE   O1118932   4.032   5.964   6.583 -0.2965  0.0887 -0.6849
  168SAPE    C118933   4.077   5.932   6.714 -0.3709  0.7268 -0.2407
  168SAPE    HA18934   4.138   5.841   6.729 -0.5018  0.7375  0.3834
  168SAPE    HB18935   4.142   6.015   6.747 -0.9994 -0.1426  3.6273
  168SAPE    C218936   3.963   5.925   6.812  0.8373 -0.5157 -1.3204
  168SAPE    HS18937   3.895   6.009   6.789 -0.2213 -0.6818  0.9257
  168SAPE   O2118938   4.005   5.947   6.947  0.5407  0.7424 -0.1728
  168SAPE   C2118939   3.920   6.009   7.032 -0.1437  0.3386  0.4169
  168SAPE   O2218940   3.815   6.065   7.003  0.2175 -0.0125 -0.6696
  168SAPE   C2218941   3.992   6.019   7.170  0.3562 -0.3219  0.2623
  168SAPE   H2R18942   4.083   5.957   7.187  1.4100  0.9462 -0.5286
  168SAPE   H2S18943   4.034   6.122   7.176 -3.0110  1.1670  0.5583
  168SAPE    C318944   3.893   5.789   6.809 -0.2126  0.3935 -0.0386
  168SAPE    HX18945   3.971   5.711   6.819  1.5057  1.5406 -3.0326
  168SAPE    HY18946   3.859   5.779   6.703  0.8934 -1.1209 -0.2904
  168SAPE   O3118947   3.785   5.775   6.912 -0.4319 -0.6136 -0.1175
  168SAPE   C3118948   3.666   5.805   6.877  0.5528 -0.4460 -0.2918
  168SAPE   O3218949   3.617   5.805   6.764 -0.5675 -0.0312  0.3832
  168SAPE   C3218950   3.580   5.833   7.004 -0.1547  0.0143 -0.0260
  168SAPE   H2X18951   3.491   5.886   6.965 -2.0745 -0.7078  2.9843
  168SAPE   H2Y18952   3.628   5.902   7.077  1.1469 -0.7404 -0.1272
  168SAPE   C2318953   3.891   6.002   7.281 -0.3640  0.9715 -0.4488
  168SAPE   H3R18954   3.814   6.082   7.276  0.5371  1.9752  1.1366
  168SAPE   H3S18955   3.953   6.004   7.373 -0.1384 -0.9707 -0.5185
  168SAPE   C2418956   3.843   5.861   7.296  0.3356 -0.1897  0.0992
  168SAPE   H4R18957   3.785   5.831   7.207  2.0560 -0.8850 -0.8372
  168SAPE   H4S18958   3.780   5.851   7.387 -2.5710 -3.2355 -1.9957
  168SAPE   C2518959   3.942   5.752   7.314  0.4123  0.5612 -0.2392
  168SAPE   H5R18960   3.979   5.711   7.219  0.9957 -0.5823  0.4528
  168SAPE   C2618961   3.990   5.688   7.424  0.0170  0.6146  0.2062
  168SAPE   H6R18962   4.064   5.608   7.404  0.0040  0.2498  1.4996
  168SAPE   C2718963   3.947   5.708   7.572 -0.1604 -0.4494 -0.6257
  168SAPE   H7R18964   3.962   5.620   7.638 -3.1353 -0.5929 -0.0121
  168SAPE   H7S18965   3.836   5.709   7.583 -0.0755 -0.7895  0.3915
  168SAPE   C2818966   4.017   5.830   7.630  0.3719  0.0867 -0.1454
  168SAPE   H8R18967   4.076   5.898   7.566  1.2230  0.5737  1.1103
  168SAPE   C2918968   4.015   5.872   7.759 -0.0538 -0.1521 -0.0794
  168SAPE   H9R18969   4.046   5.974   7.787 -0.8605 -0.4318  2.0516
  168SAPE  C21018970   3.943   5.803   7.882 -0.1109 -0.6351 -0.7987
  168SAPE  H10R18971   3.980   5.698   7.886  0.3863 -0.5775 -2.8391
  168SAPE  H10S18972   3.834   5.791   7.869 -0.3084  1.9190 -2.0752
  168SAPE  C21118973   3.965   5.870   8.017  0.1302  0.7105 -0.0902
  168SAPE  H11R18974   3.901   5.955   8.048  0.6360  0.2450  2.4554
  168SAPE  C21218975   4.056   5.839   8.108 -0.4686  0.1507  0.1085
  168SAPE  H12R18976   4.070   5.889   8.206  0.5186  1.0564 -0.4680
  168SAPE  C21318977   4.150   5.722   8.084 -0.5236  0.2199 -0.0184
  168SAPE  H13R18978   4.247   5.720   8.138 -0.6696  1.6990  0.3423
  168SAPE  H13S18979   4.195   5.721   7.983 -0.8226  1.0426 -0.1705
  168SAPE  C21418980   4.081   5.593   8.122 -0.0206  0.5290 -0.0912
  168SAPE  H14R18981   4.043   5.534   8.037  0.6911 -0.4206  0.2355
  168SAPE  C21518982   4.061   5.533   8.239 -0.1351  0.6258  0.3333
  168SAPE  H15R18983   4.003   5.439   8.239  0.6377  0.0820 -2.1575
  168SAPE  C21618984   4.097   5.596   8.367  0.0515  0.7500 -0.2038
  168SAPE  H16R18985   4.005   5.599   8.430 -0.6635  0.9090 -1.2279
  168SAPE  H16S18986   4.131   5.701   8.352 -1.0467  1.1495 -0.0243
  168SAPE  C21718987   4.220   5.536   8.443 -0.3707 -0.4525  0.1116
  168SAPE  H17R18988   4.223   5.595   8.538  0.6162  0.9538 -0.7578
  168SAPE  H17S18989   4.317   5.540   8.390 -0.6712 -3.7275 -0.8752
  168SAPE  C21818990   4.198   5.392   8.494  0.3294 -0.6252 -0.0552
  168SAPE  H18R18991   4.278   5.375   8.570 -1.0536 -0.6417  1.4477
  168SAPE  H18S18992   4.195   5.320   8.410  0.5538 -2.1579  1.1869
  168SAPE  C21918993   4.060   5.373   8.561 -0.0032  0.9514 -0.8398
  168SAPE  H19R18994   3.983   5.337   8.489 -0.7418  0.9777 -0.0810
  168SAPE  H19S18995   4.027   5.475   8.590 -0.7877  0.7772 -1.1135
  168SAPE  C22018996   4.059   5.273   8.680  0.0281  0.8658  0.9296
  168SAPE  H20R18997   3.966   5.286   8.741 -0.6108  0.9036 -0.0379
  168SAPE  H20S18998   4.144   5.297   8.748  1.1367  1.6904 -0.6987
  168SAPE  H20T18999   4.059   5.165   8.654 -0.3746  1.0756  0.0249
  168SAPE   C3319000   3.511   5.701   7.062  0.0299 -0.0927  0.2208
  168SAPE   H3X19001   3.593   5.638   7.103 -0.7625 -2.1104 -1.1654
  168SAPE   H3Y19002   3.464   5.644   6.979 -0.0230 -0.5842  0.5833
  168SAPE   C3419003   3.397   5.734   7.159 -0.1051  0.1472 -0.5811
  168SAPE   H4X19004   3.337   5.814   7.111 -0.2608  2.2882  2.8139
  168SAPE   H4Y19005   3.437   5.774   7.255  0.0545  1.0466 -1.0049
  168SAPE   C3519006   3.305   5.620   7.196 -1.0023  0.3709 -0.0895
  168SAPE   H5X19007   3.266   5.576   7.102  0.9732 -2.8179  0.4272
  168SAPE   H5Y19008   3.218   5.653   7.255 -2.1950 -0.9068 -1.0652
  168SAPE   C3619009   3.383   5.510   7.277 -0.7685  0.0908  0.0350
  168SAPE   H6X19010   3.470   5.478   7.217  0.9115  4.0691  0.0474
  168SAPE   H6Y19011   3.318   5.423   7.301 -0.5907  0.3024  1.3554
  168SAPE   C3719012   3.441   5.559   7.403 -0.4925 -0.1740 -0.3005
  168SAPE   H7X19013   3.365   5.624   7.451 -0.9551 -0.4255 -0.6761
  168SAPE   H7Y19014   3.533   5.620   7.388  0.2410 -1.5328 -1.6958
  168SAPE   C3819015   3.485   5.451   7.507  0.0605 -0.6514  0.3400
  168SAPE   H8X19016   3.553   5.381   7.454  0.2153 -1.2978  1.3751
  168SAPE   H8Y19017   3.400   5.390   7.544  1.3674 -3.2269 -0.6057
  168SAPE   C3919018   3.555   5.514   7.633  0.0898  0.7950 -0.5652
  168SAPE   H9X19019   3.636   5.575   7.587  0.9782 -0.3171 -0.5220
  168SAPE   H9Y19020   3.617   5.442   7.690  0.6056  0.9220 -0.9538
  168SAPE  C31019021   3.470   5.594   7.727  0.4003 -1.1283  1.0548
  168SAPE  H10X19022   3.401   5.528   7.783 -2.0224 -0.1501 -0.6170
  168SAPE  H10Y19023   3.403   5.666   7.676 -0.1479  1.4642  4.9460
  168SAPE  C31119024   3.543   5.675   7.836  0.5753 -0.3332  0.4645
  168SAPE  H11X19025   3.604   5.758   7.795  1.6736 -1.0909  0.5239
  168SAPE  H11Y19026   3.616   5.609   7.888 -0.0954 -0.3615  1.3987
  168SAPE  C31219027   3.446   5.729   7.941  0.0201  0.4092 -0.1045
  168SAPE  H12X19028   3.364   5.658   7.966  0.0279  0.4571  0.0617
  168SAPE  H12Y19029   3.390   5.806   7.884 -1.1647 -1.9311 -2.3037
  168SAPE  C31319030   3.505   5.780   8.074  0.1291  0.1033 -0.5637
  168SAPE  H13X19031   3.408   5.800   8.126 -1.5216 -3.0808 -2.1533
  168SAPE  H13Y19032   3.542   5.882   8.051 -2.6196  1.2710 -0.2735
  168SAPE  C31419033   3.596   5.683   8.159  0.4964 -0.6296 -0.1046
  168SAPE  H14X19034   3.692   5.669   8.104  1.0401  0.6442  0.4807
  168SAPE  H14Y19035   3.538   5.588   8.165  1.2925 -1.3378 -2.5084
  168SAPE  C31519036   3.627   5.764   8.288  0.3777  0.3142  0.0154
  168SAPE  H15X19037   3.538   5.812   8.334  0.5433  1.0430 -0.4083
  168SAPE  H15Y19038   3.687   5.853   8.258  3.1171 -0.6932  2.0700
  168SAPE  C31619039   3.697   5.687   8.393 -0.3096 -0.0844 -0.8646
  168SAPE  H16X19040   3.718   5.748   8.484 -0.5234 -1.4957  0.1689
  168SAPE  H16Y19041   3.796   5.663   8.349 -0.2543 -0.0721 -0.7478
  168SAPE  C31719042   3.623   5.557   8.433  0.2506  0.2970  0.3111
  168SAPE  H17X19043   3.639   5.487   8.348 -1.6436 -0.7657  0.7741
  168SAPE  H17Y19044   3.514   5.578   8.436  0.1912 -0.0067  0.2958
  168SAPE  C31819045   3.659   5.496   8.564 -0.9511  0.3125 -0.6463
  168SAPE  H18X19046   3.640   5.568   8.646 -0.5838  1.9651 -1.9681
  168SAPE  H18Y19047   3.769   5.483   8.561 -0.8485  0.7589  0.6782
  168SAPE  H18Z19048   3.608   5.398   8.576 -0.2898 -0.1312 -1.3778
  169SAPE     N19049   1.802   0.745   6.133 -0.7024  0.0154 -0.1580
  169SAPE   HN119050   1.905   0.753   6.146 -0.6848  0.1396 -0.3764
  169SAPE   HN219051   1.800   0.707   6.036  1.2773 -0.6642  0.0119
  169SAPE   HN319052   1.753   0.836   6.128 -1.8171 -0.5703 -0.1756
  169SAPE   C1219053   1.732   0.638   6.218 -0.2837  1.0592  0.1701
  169SAPE  H12A19054   1.776   0.650   6.319  1.1766 -1.0783 -0.1485
  169SAPE  H12B19055   1.762   0.539   6.178 -0.7254  1.1992 -0.5193
  169SAPE   C1119056   1.580   0.657   6.224  0.3729  0.0139  1.0930
  169SAPE  H11A19057   1.530   0.568   6.268 -1.4813  0.7643  0.5994
  169SAPE  H11B19058   1.540   0.667   6.121  1.7052 -1.2414  0.4167
  169SAPE     P19059   1.418   0.854   6.287  0.1766  0.4720 -0.2027
  169SAPE   O1319060   1.440   0.963   6.195  0.0664 -0.5303  0.2030
  169SAPE   O1419061   1.305   0.764   6.250 -1.0467 -0.0952  0.5964
  169SAPE   O1219062   1.555   0.774   6.301  0.2653  0.4252 -0.6769
  169SAPE   O1119063   1.396   0.913   6.432  0.1332  0.0001  0.0054
  169SAPE    C119064   1.256   0.918   6.477  0.5882  0.3330  0.4955
  169SAPE    HA19065   1.186   0.974   6.411 -0.3253 -2.8630 -1.4750
  169SAPE    HB19066   1.214   0.816   6.493 -0.2120  0.5779  0.0355
  169SAPE    C219067   1.246   0.973   6.623  0.1601 -0.4867 -0.0059
  169SAPE    HS19068   1.256   1.083   6.615 -1.5293 -0.4286 -2.6389
  169SAPE   O2119069   1.341   0.908   6.705 -0.4007 -0.1200 -0.3706
  169SAPE   C2119070   1.467   0.963   6.710  1.3906 -0.1623  0.3322
  169SAPE   O2219071   1.491   1.072   6.657  0.7134  0.5202 -0.7717
  169SAPE   C2219072   1.551   0.889   6.816  0.1805 -1.1026 -1.1014
  169SAPE   H2R19073   1.517   0.784   6.826  1.1984 -1.2827  1.0564
  169SAPE   H2S19074   1.658   0.890   6.790  1.2162 -0.2592  2.5809
  169SAPE    C319075   1.099   0.949   6.672  0.3137  0.4495  0.3048
  169SAPE    HX19076   1.088   0.840   6.685 -0.3970  0.3463 -0.9468
  169SAPE    HY19077   1.035   0.985   6.588  1.7250  0.1343 -0.9438
  169SAPE   O3119078   1.071   1.021   6.789 -0.0832 -0.5777 -0.3297
  169SAPE   C3119079   0.979   0.969   6.870 -0.1794  0.0942  0.3999
  169SAPE   O3219080   0.913   0.870   6.837  0.3824 -0.2329 -0.2602
  169SAPE   C3219081   0.989   1.025   7.002 -0.9610 -0.7210 -0.1599
  169SAPE   H2X19082   1.074   1.097   7.005 -2.5995  1.2761  0.4433
  169SAPE   H2Y19083   1.002   0.942   7.074  0.0320 -2.5048 -2.2721
  169SAPE   C2319084   1.531   0.958   6.952 -0.0473 -0.0822  0.1296
  169SAPE   H3R19085   1.574   0.893   7.031  0.7196  0.3408  0.0655
  169SAPE   H3S19086   1.421   0.964   6.966 -0.1260  1.5627 -0.8869
  169SAPE   C2419087   1.605   1.095   6.974 -0.5113 -0.0635  1.2118
  169SAPE   H4R19088   1.576   1.159   6.888 -1.7804 -0.6340  1.1949
  169SAPE   H4S19089   1.712   1.077   6.952 -0.5899  0.4674  0.3730
  169SAPE   C2519090   1.598   1.160   7.109  0.5084 -0.0111  0.6504
  169SAPE   H5R19091   1.525   1.242   7.104 -0.9034 -1.3034 -1.4961
  169SAPE   C2619092   1.657   1.137   7.220  0.0848 -0.0889  0.1478
  169SAPE   H6R19093   1.646   1.199   7.310 -1.2838  1.9142 -1.3203
  169SAPE   C2719094   1.752   1.023   7.240  0.9481  0.3773  0.2605
  169SAPE   H7R19095   1.851   1.068   7.263  0.9761  0.6957 -0.4379
  169SAPE   H7S19096   1.768   0.960   7.149 -1.8199 -0.0109 -0.0545
  169SAPE   C2819097   1.715   0.928   7.349  0.4938  0.2754 -0.6534
  169SAPE   H8R19098   1.656   0.840   7.321 -0.9830  0.7660  0.7660
  169SAPE   C2919099   1.743   0.947   7.478 -0.6148 -0.5107 -0.4547
  169SAPE   H9R19100   1.712   0.873   7.553  0.3609  2.3621  3.0544
  169SAPE  C21019101   1.807   1.065   7.548 -0.6772  0.0355 -0.1881
  169SAPE  H10R19102   1.832   1.153   7.485 -1.1180  1.7417  1.9161
  169SAPE  H10S19103   1.905   1.033   7.591 -2.0357 -1.8441  1.7236
  169SAPE  C21119104   1.698   1.121   7.645  0.0960 -0.4876 -0.7541
  169SAPE  H11R19105   1.591   1.115   7.620  0.0878  0.3846 -0.9543
  169SAPE  C21219106   1.736   1.173   7.766 -0.0264 -0.3046 -0.5970
  169SAPE  H12R19107   1.653   1.220   7.820  0.0861  0.4423 -1.0541
  169SAPE  C21319108   1.875   1.187   7.821  0.0757 -0.0124 -0.2971
  169SAPE  H13R19109   1.951   1.191   7.740  1.2311  2.4818  0.7836
  169SAPE  H13S19110   1.906   1.106   7.890  5.0132  1.9509  0.1983
  169SAPE  C21419111   1.901   1.324   7.886  0.5117  0.3604  0.1651
  169SAPE  H14R19112   1.866   1.416   7.836 -0.7545  0.2940  0.9026
  169SAPE  C21519113   1.956   1.353   8.006 -0.8849 -0.1575  0.3504
  169SAPE  H15R19114   1.970   1.455   8.046  0.9915  0.4708 -1.6474
  169SAPE  C21619115   2.017   1.242   8.091  0.2966  0.2691 -0.0567
  169SAPE  H16R19116   2.107   1.286   8.139  0.2133 -1.1646  1.4888
  169SAPE  H16S19117   2.054   1.154   8.034 -4.4937 -0.0646 -3.2687
  169SAPE  C21719118   1.918   1.196   8.194  0.0678  0.8284 -0.0080
  169SAPE  H17R19119   1.824   1.173   8.138 -1.3223 -1.0660  2.8745
  169SAPE  H17S19120   1.900   1.281   8.263  3.8573  0.8053  1.2155
  169SAPE  C21819121   1.964   1.068   8.270  0.0408 -0.0491  0.0481
  169SAPE  H18R19122   1.870   1.044   8.324 -1.6847  0.0143 -2.7405
  169SAPE  H18S19123   2.047   1.097   8.339 -1.6591  1.3235  1.6310
  169SAPE  C21919124   1.996   0.941   8.183  0.4512 -0.1059 -0.1681
  169SAPE  H19R19125   2.097   0.958   8.139  0.0512  0.8040 -0.7620
  169SAPE  H19S19126   1.909   0.938   8.113 -0.9422 -0.9657  1.5412
  169SAPE  C22019127   1.996   0.810   8.261 -0.6860  0.3489 -0.8341
  169SAPE  H20R19128   1.907   0.814   8.327  0.8514  1.2927  1.3036
  169SAPE  H20S19129   2.092   0.817   8.316 -0.8951 -0.5461 -0.3465
  169SAPE  H20T19130   1.991   0.717   8.200  0.5643  0.5466 -1.2672
  169SAPE   C3319131   0.875   1.114   7.045  0.0699 -0.0475 -0.3249
  169SAPE   H3X19132   0.785   1.052   7.068  0.3455 -0.0102  0.9171
  169SAPE   H3Y19133   0.844   1.184   6.964 -2.0264  1.7656  1.8552
  169SAPE   C3419134   0.913   1.202   7.156 -0.3152  0.0547 -0.2149
  169SAPE   H4X19135   0.981   1.286   7.131  0.0260  0.3431  1.5283
  169SAPE   H4Y19136   0.989   1.147   7.216 -0.5758  1.1580  1.1824
  169SAPE   C3519137   0.801   1.253   7.246 -0.1432  0.0250  0.0328
  169SAPE   H5X19138   0.753   1.165   7.295  1.4603 -2.3712 -2.4074
  169SAPE   H5Y19139   0.723   1.304   7.185  1.4052  1.9046 -0.4627
  169SAPE   C3619140   0.855   1.359   7.341  0.5113 -0.0099  0.0909
  169SAPE   H6X19141   0.772   1.433   7.353 -0.7891 -1.3394 -0.3758
  169SAPE   H6Y19142   0.950   1.412   7.319  0.8268  0.0152  1.4003
  169SAPE   C3719143   0.876   1.291   7.481 -0.3874  0.1741  0.3324
  169SAPE   H7X19144   0.949   1.208   7.475  1.4435  1.4216  3.0983
  169SAPE   H7Y19145   0.773   1.260   7.510 -0.2780  1.8730  2.9546
  169SAPE   C3819146   0.933   1.391   7.584  0.6033 -0.2740 -0.1823
  169SAPE   H8X19147   0.881   1.489   7.598  0.0056 -0.6130 -0.0121
  169SAPE   H8Y19148   1.034   1.420   7.548  0.3164  1.5575  0.3510
  169SAPE   C3919149   0.949   1.329   7.724 -0.5304 -0.4060 -0.4283
  169SAPE   H9X19150   1.018   1.241   7.723  0.1379  0.0651  1.1214
  169SAPE   H9Y19151   0.857   1.290   7.773  0.6082 -3.1395 -0.2722
  169SAPE  C31019152   1.014   1.428   7.817  0.1289 -0.2046  0.1470
  169SAPE  H10X19153   0.948   1.517   7.827  0.4452  0.0225  0.2034
  169SAPE  H10Y19154   1.110   1.472   7.784  0.1086 -0.8038 -0.7436
  169SAPE  C31119155   1.023   1.362   7.959  0.2679  0.3063  0.6196
  169SAPE  H11X19156   1.081   1.268   7.948 -1.3178 -0.5147 -1.4898
  169SAPE  H11Y19157   0.919   1.340   7.992 -0.0566  0.3946 -0.3116
  169SAPE  C31219158   1.087   1.451   8.060  0.0908 -0.2582 -0.3821
  169SAPE  H12X19159   1.044   1.553   8.058  0.3080 -0.1377  0.5081
  169SAPE  H12Y19160   1.193   1.472   8.039  0.0882 -0.0153 -0.1571
  169SAPE  C31319161   1.098   1.395   8.203  0.4128 -0.4242 -0.0883
  169SAPE  H13X19162   1.140   1.292   8.214  2.3728  0.4212  0.8310
  169SAPE  H13Y19163   0.991   1.396   8.233 -0.4616 -1.7629 -2.8580
  169SAPE  C31419164   1.188   1.477   8.291  0.6111 -0.0661 -0.1890
  169SAPE  H14X19165   1.172   1.454   8.399 -0.3803  2.6818  0.3442
  169SAPE  H14Y19166   1.169   1.586   8.283 -1.4631 -0.2848  1.0792
  169SAPE  C31519167   1.341   1.449   8.268  0.6419  0.2143  0.2910
  169SAPE  H15X19168   1.372   1.476   8.165  0.6272  0.3368  0.3178
  169SAPE  H15Y19169   1.358   1.340   8.280  0.8761  0.2844  0.6201
  169SAPE  C31619170   1.432   1.519   8.373 -0.3084  0.1794  0.1576
  169SAPE  H16X19171   1.421   1.477   8.475  2.8214  3.1235  1.9144
  169SAPE  H16Y19172   1.404   1.626   8.385 -1.9777 -0.0565 -1.2069
  169SAPE  C31719173   1.585   1.504   8.341  0.2519  0.2603 -0.2898
  169SAPE  H17X19174   1.609   1.395   8.337 -0.2563 -0.0039  2.1553
  169SAPE  H17Y19175   1.636   1.549   8.429 -0.3158 -0.4289  0.4066
  169SAPE  C31819176   1.638   1.578   8.218 -0.0098 -0.1687  0.1578
  169SAPE  H18X19177   1.567   1.551   8.137  0.7387 -2.0657  0.0854
  169SAPE  H18Y19178   1.742   1.559   8.184  0.4314 -0.7798  1.7320
  169SAPE  H18Z19179   1.632   1.688   8.233  1.0761 -0.2425  1.2933
  170SAPE     N19180   3.214   3.558   6.008  0.0733  0.1379  0.0068
  170SAPE   HN119181   3.123   3.518   6.037 -1.0363  1.5534 -1.3730
  170SAPE   HN219182   3.198   3.659   5.987  1.0684  0.3171  0.0676
  170SAPE   HN319183   3.270   3.518   5.929  1.0871  0.8544  0.3440
  170SAPE   C1219184   3.320   3.564   6.117  0.0318 -0.6635 -0.0448
  170SAPE  H12A19185   3.344   3.458   6.141 -0.4070 -1.0274 -1.1296
  170SAPE  H12B19186   3.275   3.609   6.208 -0.5297 -1.6976  0.2059
  170SAPE   C1119187   3.447   3.642   6.069 -0.2018 -0.3581  0.6121
  170SAPE  H11A19188   3.506   3.574   6.003 -2.9910 -1.1192 -1.2882
  170SAPE  H11B19189   3.519   3.650   6.153 -1.6381 -0.2949  1.8716
  170SAPE     P19190   3.434   3.911   6.084 -0.2235  0.0335  0.1090
  170SAPE   O1319191   3.577   3.949   6.100  0.2547  0.0708  0.0608
  170SAPE   O1419192   3.348   4.007   6.017 -0.0192 -0.0989  0.3012
  170SAPE   O1219193   3.427   3.773   6.008  0.6749  0.1323 -0.3874
  170SAPE   O1119194   3.374   3.868   6.232  0.2217 -0.3210 -0.5951
  170SAPE    C119195   3.251   3.925   6.293  0.4061  0.3604  0.3290
  170SAPE    HA19196   3.174   3.946   6.216  1.2140  0.6268 -0.4286
  170SAPE    HB19197   3.211   3.847   6.361  0.6478  1.3306  1.6378
  170SAPE    C219198   3.280   4.046   6.388  0.0619  0.4435 -0.1291
  170SAPE    HS19199   3.341   4.128   6.342 -0.3659  0.2624 -1.0415
  170SAPE   O2119200   3.346   3.991   6.500 -0.0866 -0.4835  0.3532
  170SAPE   C2119201   3.454   4.048   6.544 -0.0476 -0.0056  0.9955
  170SAPE   O2219202   3.514   4.136   6.490 -0.5751 -0.2505  0.6580
  170SAPE   C2219203   3.488   3.974   6.672 -0.2643 -0.0174  0.2562
  170SAPE   H2R19204   3.401   3.912   6.703 -0.6928 -0.7489 -2.2282
  170SAPE   H2S19205   3.570   3.906   6.641  2.0440  1.8556  1.9018
  170SAPE    C319206   3.144   4.105   6.422  0.0838 -0.2791 -0.4225
  170SAPE    HX19207   3.099   4.029   6.489 -0.7220  0.7133  0.2046
  170SAPE    HY19208   3.085   4.101   6.328  1.0742 -3.6336 -1.0315
  170SAPE   O3119209   3.153   4.228   6.495  0.1905 -0.1314  0.2245
  170SAPE   C3119210   3.123   4.343   6.425 -0.0251  0.1018  0.1801
  170SAPE   O3219211   3.091   4.344   6.308 -0.1356 -0.2308 -0.4254
  170SAPE   C3219212   3.131   4.464   6.521 -0.2433 -0.3010 -0.3100
  170SAPE   H2X19213   3.240   4.484   6.525 -0.1915  0.9400 -4.1025
  170SAPE   H2Y19214   3.091   4.432   6.619  0.3464  1.0217  0.3826
  170SAPE   C2319215   3.527   4.050   6.796 -0.6573 -0.6792  0.8282
  170SAPE   H3R19216   3.633   4.080   6.778 -0.5744 -1.9134 -0.9900
  170SAPE   H3S19217   3.537   3.977   6.879  0.4874 -0.6432  0.7401
  170SAPE   C2419218   3.437   4.161   6.835  0.6770  0.2170  0.1369
  170SAPE   H4R19219   3.417   4.240   6.760 -1.6834  0.3197  0.7975
  170SAPE   H4S19220   3.479   4.215   6.923  0.9898  0.8028 -0.3674
  170SAPE   C2519221   3.297   4.111   6.870  0.3938 -0.0646  0.5777
  170SAPE   H5R19222   3.225   4.098   6.788  1.9716  1.2393 -1.1069
  170SAPE   C2619223   3.252   4.094   6.999  0.5342 -0.5966  0.2855
  170SAPE   H6R19224   3.151   4.053   7.010 -0.1594  1.5517  3.4147
  170SAPE   C2719225   3.320   4.113   7.132 -0.0674  0.1870 -0.7802
  170SAPE   H7R19226   3.427   4.098   7.108  0.2292 -0.8920  1.0671
  170SAPE   H7S19227   3.281   4.028   7.193 -3.5197  1.5067 -0.8992
  170SAPE   C2819228   3.288   4.247   7.189  0.4857 -0.1415 -0.3362
  170SAPE   H8R19229   3.328   4.330   7.130  0.2568  0.7584  0.7482
  170SAPE   C2919230   3.218   4.286   7.299  0.6315  0.4150  1.0475
  170SAPE   H9R19231   3.220   4.392   7.331  1.1659  0.4151  1.0252
  170SAPE  C21019232   3.157   4.191   7.403 -1.1118  0.2945 -0.3438
  170SAPE  H10R19233   3.202   4.221   7.500 -1.4859 -1.9896  0.6063
  170SAPE  H10S19234   3.180   4.084   7.380 -0.6133  0.9216 -3.1310
  170SAPE  C21119235   3.010   4.214   7.411  0.3805 -0.4642 -0.2119
  170SAPE  H11R19236   2.952   4.234   7.319 -0.5953  1.7612  0.8051
  170SAPE  C21219237   2.937   4.214   7.529 -0.1578 -0.6787 -0.2787
  170SAPE  H12R19238   2.829   4.215   7.509  0.0168  1.6435 -1.4399
  170SAPE  C21319239   2.977   4.180   7.673 -0.1760  0.2233  0.5740
  170SAPE  H13R19240   2.882   4.160   7.727 -0.8380 -1.2707 -1.0375
  170SAPE  H13S19241   3.020   4.270   7.722 -1.1052  0.3218  1.2244
  170SAPE  C21419242   3.073   4.060   7.700  0.1343 -0.1140 -0.2604
  170SAPE  H14R19243   3.132   4.022   7.615  2.0632  0.8076  0.5993
  170SAPE  C21519244   3.087   4.009   7.825  0.1712 -0.3619  0.4481
  170SAPE  H15R19245   3.149   3.919   7.838 -0.0024 -0.5926 -0.2519
  170SAPE  C21619246   3.034   4.060   7.953 -0.2729  0.1040 -0.6564
  170SAPE  H16R19247   2.983   4.157   7.935 -0.0091  0.4649  0.4808
  170SAPE  H16S19248   3.123   4.070   8.018  0.5145 -0.1572 -1.6595
  170SAPE  C21719249   2.934   3.960   8.015 -1.7131  0.4951 -0.6726
  170SAPE  H17R19250   2.855   3.942   7.940 -1.6510  0.2420 -0.6783
  170SAPE  H17S19251   2.880   4.008   8.099 -2.8387  0.5078 -1.3799
  170SAPE  C21819252   2.997   3.823   8.047  1.0154 -0.1699  0.8571
  170SAPE  H18R19253   3.032   3.772   7.954 -1.5078 -1.5232  0.5532
  170SAPE  H18S19254   2.910   3.766   8.087  0.1693 -1.2587 -2.2233
  170SAPE  C21919255   3.120   3.823   8.135  0.9400 -0.1828  0.1452
  170SAPE  H19R19256   3.103   3.874   8.232  5.4974  0.8751  0.6323
  170SAPE  H19S19257   3.196   3.879   8.077 -1.5446  0.9343 -2.2833
  170SAPE  C22019258   3.181   3.680   8.160 -0.4166 -0.7469  0.0615
  170SAPE  H20R19259   3.176   3.629   8.061 -1.2705 -0.8510  0.1540
  170SAPE  H20S19260   3.118   3.621   8.230  1.1036 -0.8783  1.3847
  170SAPE  H20T19261   3.279   3.695   8.210 -0.7863  0.7888  0.3839
  170SAPE   C3319262   3.062   4.590   6.464 -0.3312  0.8957 -0.2837
  170SAPE   H3X19263   3.077   4.583   6.354 -1.1195 -0.4886 -0.3222
  170SAPE   H3Y19264   3.101   4.682   6.513 -0.3342  0.4175  0.6465
  170SAPE   C3419265   2.912   4.580   6.501  1.0489 -0.0463 -0.3146
  170SAPE   H4X19266   2.877   4.489   6.448 -0.2604 -0.1953  0.7389
  170SAPE   H4Y19267   2.857   4.668   6.460  1.7646  0.9156  0.7251
  170SAPE   C3519268   2.873   4.573   6.652 -0.3084  0.3442 -0.6111
  170SAPE   H5X19269   2.921   4.657   6.707  0.6904  0.0832 -1.0615
  170SAPE   H5Y19270   2.909   4.477   6.694 -0.8023 -0.4659 -1.9533
  170SAPE   C3619271   2.719   4.569   6.692 -0.6629 -0.0310 -0.0375
  170SAPE   H6X19272   2.665   4.480   6.653 -0.8541  0.2743 -0.4825
  170SAPE   H6Y19273   2.670   4.659   6.648 -1.1544  0.0717  0.7045
  170SAPE   C3719274   2.702   4.584   6.854  0.8894  0.3186  0.3272
  170SAPE   H7X19275   2.747   4.681   6.883  1.9920 -0.6042  1.8228
  170SAPE   H7Y19276   2.753   4.496   6.898  1.7601 -1.0628 -3.0941
  170SAPE   C3819277   2.548   4.582   6.893 -0.0704  0.7416  0.3859
  170SAPE   H8X19278   2.490   4.494   6.857  0.5635  0.0893  0.9244
  170SAPE   H8Y19279   2.493   4.672   6.857 -2.4643  0.3314  2.6970
  170SAPE   C3919280   2.531   4.592   7.040 -0.2520 -0.9477 -0.2661
  170SAPE   H9X19281   2.601   4.672   7.072 -1.7141  0.8266 -1.3097
  170SAPE   H9Y19282   2.559   4.502   7.098 -2.4117 -0.1598  2.2144
  170SAPE  C31019283   2.391   4.630   7.088 -0.6614  0.7202  0.5487
  170SAPE  H10X19284   2.319   4.549   7.064 -0.3632  0.7358 -0.4745
  170SAPE  H10Y19285   2.367   4.725   7.034 -0.1211  0.5901  0.0649
  170SAPE  C31119286   2.384   4.649   7.241  0.6410  0.1055  1.0061
  170SAPE  H11X19287   2.400   4.549   7.287  2.2154 -0.6488 -1.0347
  170SAPE  H11Y19288   2.276   4.666   7.260  0.6294 -0.6284  1.6659
  170SAPE  C31219289   2.455   4.780   7.294  0.6259 -0.6464  0.2306
  170SAPE  H12X19290   2.409   4.861   7.233  0.4584  0.2294  1.4931
  170SAPE  H12Y19291   2.556   4.776   7.249 -0.2543  1.6035 -2.2360
  170SAPE  C31319292   2.441   4.811   7.449 -0.4849  0.2206 -0.1684
  170SAPE  H13X19293   2.488   4.909   7.470 -0.4097 -0.2892  2.4235
  170SAPE  H13Y19294   2.510   4.739   7.499 -0.6367  1.0667  1.3064
  170SAPE  C31419295   2.306   4.817   7.522  0.3845  0.1274  0.2136
  170SAPE  H14X19296   2.315   4.824   7.632  0.9941 -0.4747  0.2100
  170SAPE  H14Y19297   2.248   4.724   7.502  0.1008 -0.3096  2.7403
  170SAPE  C31519298   2.236   4.947   7.476  0.6352 -0.5859  0.2744
  170SAPE  H15X19299   2.262   4.966   7.370 -1.6044 -0.1297 -0.2506
  170SAPE  H15Y19300   2.269   5.034   7.538 -0.1996  2.1205 -2.8163
  170SAPE  C31619301   2.082   4.940   7.508 -0.1608 -0.2566  0.4035
  170SAPE  H16X19302   2.076   4.905   7.614  0.1597  1.6007  1.0728
  170SAPE  H16Y19303   2.020   4.874   7.444 -0.4159  0.0643  0.3176
  170SAPE  C31719304   2.014   5.075   7.502 -0.0478 -0.4873 -0.3349
  170SAPE  H17X19305   2.049   5.128   7.411  1.4146 -1.1835 -0.2114
  170SAPE  H17Y19306   2.029   5.131   7.597  0.6728  1.5066 -1.5681
  170SAPE  C31819307   1.864   5.074   7.492 -0.3792 -0.4702 -0.2947
  170SAPE  H18X19308   1.828   5.179   7.493 -0.2455 -0.4198  0.8610
  170SAPE  H18Y19309   1.816   5.023   7.578 -0.8817  1.3493  0.5553
  170SAPE  H18Z19310   1.843   5.028   7.393 -0.9012  0.3115 -0.5602
  171SAPE     N19311   5.579   0.333   6.065 -0.8694  0.0619 -0.3752
  171SAPE   HN119312   5.491   0.319   6.012 -1.0862 -0.7642  0.1849
  171SAPE   HN219313   5.658   0.301   6.006 -1.3237 -0.8750 -0.4958
  171SAPE   HN319314   5.561   0.267   6.143 -0.7144 -0.1549 -0.5230
  171SAPE   C1219315   5.613   0.467   6.106 -0.2049 -0.0900  0.8929
  171SAPE  H12A19316   5.722   0.465   6.124  0.2851 -0.3048 -1.7705
  171SAPE  H12B19317   5.568   0.502   6.202 -0.0739  0.1101  0.8824
  171SAPE   C1119318   5.572   0.573   6.000  0.3698  0.5933 -1.1207
  171SAPE  H11A19319   5.461   0.567   5.995  0.3120  1.3938 -0.8707
  171SAPE  H11B19320   5.619   0.561   5.900  0.3044 -0.2137 -1.0620
  171SAPE     P19321   5.511   0.786   6.151  0.3799  0.0109 -0.0156
  171SAPE   O1319322   5.484   0.925   6.107  0.2265  0.1225  0.6979
  171SAPE   O1419323   5.393   0.700   6.177  0.2004 -0.4382 -0.1770
  171SAPE   O1219324   5.604   0.701   6.056  0.1605 -0.1837 -0.3286
  171SAPE   O1119325   5.604   0.789   6.287 -0.8191 -0.1536 -0.0581
  171SAPE    C119326   5.743   0.808   6.285  0.0726  0.5544  0.8025
  171SAPE    HA19327   5.783   0.832   6.185 -2.2800 -1.4134 -0.7420
  171SAPE    HB19328   5.753   0.903   6.342 -1.8211  1.8227 -0.8405
  171SAPE    C219329   5.816   0.681   6.340  0.1850 -0.2487 -0.1515
  171SAPE    HS19330   5.798   0.606   6.260  1.3239 -0.8253  0.1173
  171SAPE   O2119331   5.751   0.637   6.457 -0.0894  0.2176  0.4560
  171SAPE   C2119332   5.783   0.513   6.494 -0.6765 -0.6440  0.0306
  171SAPE   O2219333   5.852   0.438   6.430  0.2338  0.1430 -0.5090
  171SAPE   C2219334   5.735   0.493   6.641  0.0781  0.8297 -0.1882
  171SAPE   H2R19335   5.632   0.534   6.648  0.4938  1.7279  0.9563
  171SAPE   H2S19336   5.743   0.385   6.664  2.0136  0.5770 -1.7406
  171SAPE    C319337   5.964   0.711   6.356  0.1146  0.5055 -0.0224
  171SAPE    HX19338   5.994   0.753   6.257  0.6426 -0.2836 -0.2076
  171SAPE    HY19339   6.020   0.617   6.378 -2.9806 -1.5073 -0.1703
  171SAPE   O3119340   5.981   0.805   6.461  0.1192 -0.0021 -0.2179
  171SAPE   C3119341   6.051   0.769   6.573 -0.0329  0.3739  0.1389
  171SAPE   O3219342   6.086   0.654   6.595 -0.0154 -0.1396  0.0095
  171SAPE   C3219343   6.057   0.887   6.669 -0.1260 -0.1744  0.0321
  171SAPE   H2X19344   5.951   0.918   6.680  0.3425  2.0261 -1.0233
  171SAPE   H2Y19345   6.095   0.982   6.625 -0.6873 -0.0711 -0.2482
  171SAPE   C2319346   5.814   0.579   6.751 -0.7123  0.2041  0.2059
  171SAPE   H3R19347   5.804   0.686   6.723  0.3073  0.0605 -0.7458
  171SAPE   H3S19348   5.920   0.548   6.755 -0.1758  1.3225 -2.7165
  171SAPE   C2419349   5.749   0.555   6.888 -0.7659  0.4461  0.2425
  171SAPE   H4R19350   5.643   0.535   6.863 -0.3296 -0.4462 -0.9518
  171SAPE   H4S19351   5.758   0.641   6.958 -1.6896  2.1064 -1.5725
  171SAPE   C2519352   5.809   0.432   6.952 -0.0431  1.2018 -0.0665
  171SAPE   H5R19353   5.876   0.371   6.889 -0.3165  0.1168  0.6703
  171SAPE   C2619354   5.793   0.394   7.081 -0.1964 -0.6375 -0.3139
  171SAPE   H6R19355   5.837   0.300   7.116 -0.7557 -1.6760 -2.2724
  171SAPE   C2719356   5.712   0.466   7.182 -0.0975 -0.0336  0.6583
  171SAPE   H7R19357   5.638   0.395   7.225 -0.2224  0.6145  1.5493
  171SAPE   H7S19358   5.650   0.547   7.139 -0.3240 -0.6464 -0.1949
  171SAPE   C2819359   5.802   0.524   7.292 -0.4421 -0.2449  0.3938
  171SAPE   H8R19360   5.837   0.626   7.270 -2.2636  0.2512 -0.3358
  171SAPE   C2919361   5.836   0.459   7.404  0.1924  0.6113  0.1610
  171SAPE   H9R19362   5.899   0.508   7.479 -2.3064  2.6253  1.0981
  171SAPE  C21019363   5.795   0.319   7.442 -0.6105 -0.2193  0.6134
  171SAPE  H10R19364   5.885   0.254   7.440 -1.0805 -0.8759 -0.7508
  171SAPE  H10S19365   5.732   0.271   7.363  1.5348 -1.1644 -0.6129
  171SAPE  C21119366   5.725   0.326   7.569  0.8322  0.2041  0.8375
  171SAPE  H11R19367   5.618   0.350   7.559  0.3140 -0.8568  3.2502
  171SAPE  C21219368   5.761   0.282   7.694  0.2123 -1.2800  0.2463
  171SAPE  H12R19369   5.694   0.304   7.779  1.0542  2.0598  0.1841
  171SAPE  C21319370   5.898   0.233   7.723  0.0893  0.5024 -0.4546
  171SAPE  H13R19371   5.955   0.199   7.634  2.1090  2.9931 -0.2151
  171SAPE  H13S19372   5.902   0.151   7.798  1.0340 -0.2111 -1.2520
  171SAPE  C21419373   5.977   0.351   7.774 -0.9932  0.3695 -0.3962
  171SAPE  H14R19374   6.000   0.432   7.703  1.6618 -0.3409 -0.4428
  171SAPE  C21519375   6.036   0.366   7.899  0.7134 -0.0178 -0.0162
  171SAPE  H15R19376   6.102   0.453   7.907  0.8863  0.0703 -1.8720
  171SAPE  C21619377   6.038   0.272   8.016  0.0184 -0.6951  0.5167
  171SAPE  H16R19378   5.989   0.173   8.004  0.9862 -1.1014 -0.1996
  171SAPE  H16S19379   5.972   0.327   8.087  0.2206  1.3831 -0.8012
  171SAPE  C21719380   6.176   0.253   8.074 -0.1488 -0.3569 -0.1675
  171SAPE  H17R19381   6.234   0.343   8.047 -1.5399  0.5633 -0.2105
  171SAPE  H17S19382   6.219   0.169   8.015 -0.3244 -0.2802 -0.4065
  171SAPE  C21819383   6.195   0.217   8.218  0.0422 -0.5247 -0.0867
  171SAPE  H18R19384   6.145   0.119   8.233 -1.0913 -0.0441 -0.6346
  171SAPE  H18S19385   6.153   0.298   8.280 -1.3308 -0.7932 -0.6256
  171SAPE  C21919386   6.346   0.188   8.254 -0.1376 -0.8269  0.5321
  171SAPE  H19R19387   6.402   0.283   8.243 -2.8032  0.7757 -0.1068
  171SAPE  H19S19388   6.382   0.125   8.170 -3.9892  0.0402 -2.0645
  171SAPE  C22019389   6.382   0.127   8.390  0.0209 -0.8370 -0.0469
  171SAPE  H20R19390   6.489   0.097   8.396  0.1528 -0.4865 -0.5869
  171SAPE  H20S19391   6.313   0.040   8.398 -1.4894  0.1818 -1.3763
  171SAPE  H20T19392   6.364   0.206   8.466 -1.3395 -0.0749 -1.1082
  171SAPE   C3319393   6.111   0.850   6.812  0.0822 -0.1383 -0.5172
  171SAPE   H3X19394   6.214   0.809   6.810  0.3614  0.4496  0.8155
  171SAPE   H3Y19395   6.046   0.774   6.860 -0.6883  1.2522  0.7615
  171SAPE   C3419396   6.100   0.967   6.909  0.1798 -0.3146  0.1456
  171SAPE   H4X19397   5.997   1.009   6.920  1.1620  1.9259  1.4213
  171SAPE   H4Y19398   6.169   1.043   6.866  0.0417 -1.9000 -3.1870
  171SAPE   C3519399   6.154   0.931   7.047 -0.3178  0.1476  0.0382
  171SAPE   H5X19400   6.207   1.020   7.086 -3.6030  1.0820  2.8450
  171SAPE   H5Y19401   6.227   0.847   7.044  0.6754  0.8823  1.9776
  171SAPE   C3619402   6.058   0.885   7.152 -0.0336 -0.6354 -0.0348
  171SAPE   H6X19403   5.993   0.801   7.118 -1.1263  0.0382  0.3508
  171SAPE   H6Y19404   5.999   0.979   7.159  3.9336  2.2972 -1.5879
  171SAPE   C3719405   6.133   0.866   7.288 -0.2553  0.0013  0.2087
  171SAPE   H7X19406   6.189   0.958   7.316 -1.5927  1.0175 -0.3887
  171SAPE   H7Y19407   6.214   0.794   7.263 -0.7399  0.3198 -2.5673
  171SAPE   C3819408   6.034   0.828   7.396  0.6160 -0.2243  0.0891
  171SAPE   H8X19409   5.981   0.737   7.360  0.7752  0.8091 -2.9762
  171SAPE   H8Y19410   5.968   0.917   7.391  0.2439 -0.4273  1.0365
  171SAPE   C3919411   6.090   0.807   7.540 -0.2363  0.5204 -0.1204
  171SAPE   H9X19412   6.012   0.812   7.619 -0.9435 -0.2937 -0.7571
  171SAPE   H9Y19413   6.156   0.893   7.564 -0.7861  1.0725 -0.5665
  171SAPE  C31019414   6.170   0.683   7.552  0.4995  0.3959 -0.6003
  171SAPE  H10X19415   6.263   0.675   7.492  1.6101 -1.7214  1.2481
  171SAPE  H10Y19416   6.101   0.604   7.515  0.1032  0.1303  0.6635
  171SAPE  C31119417   6.216   0.657   7.701  0.5653  0.6455  0.2196
  171SAPE  H11X19418   6.245   0.550   7.705  1.3378  0.8849  2.1939
  171SAPE  H11Y19419   6.133   0.676   7.773 -1.3699  1.4244 -2.0893
  171SAPE  C31219420   6.333   0.747   7.745 -0.1193 -0.2851  0.1554
  171SAPE  H12X19421   6.311   0.854   7.724  2.6836  0.4403  0.4109
  171SAPE  H12Y19422   6.424   0.730   7.683 -0.5641 -2.7091  0.0560
  171SAPE  C31319423   6.356   0.750   7.896  0.5678 -0.7017  0.8633
  171SAPE  H13X19424   6.269   0.807   7.935 -0.3268 -0.6502 -1.0422
  171SAPE  H13Y19425   6.448   0.812   7.905 -0.9520  1.8245  0.0260
  171SAPE  C31419426   6.370   0.618   7.962 -0.7386 -0.2367 -0.7050
  171SAPE  H14X19427   6.440   0.557   7.901  2.7165  1.2947  1.4272
  171SAPE  H14Y19428   6.270   0.570   7.962 -1.6887  1.4004  2.9219
  171SAPE  C31519429   6.417   0.610   8.108  0.1423 -0.4887 -0.1259
  171SAPE  H15X19430   6.524   0.642   8.107  0.2950 -0.9744  0.1801
  171SAPE  H15Y19431   6.417   0.507   8.148  3.7767  0.0903  1.7835
  171SAPE  C31619432   6.332   0.698   8.209 -0.7955  0.0166  0.0192
  171SAPE  H16X19433   6.227   0.663   8.219 -1.4802  0.8408 -3.2103
  171SAPE  H16Y19434   6.320   0.799   8.164 -2.2978  0.4109  1.2193
  171SAPE  C31719435   6.403   0.716   8.348  0.0064 -0.1523  0.5707
  171SAPE  H17X19436   6.340   0.761   8.428 -0.1524  0.3987  0.1403
  171SAPE  H17Y19437   6.486   0.787   8.326 -0.4635  0.2822  0.1844
  171SAPE  C31819438   6.467   0.588   8.410  0.7078  0.5246 -0.3258
  171SAPE  H18X19439   6.541   0.544   8.341  2.9247  1.7211  1.1549
  171SAPE  H18Y19440   6.383   0.519   8.435 -1.0693  2.8728  0.5050
  171SAPE  H18Z19441   6.516   0.631   8.500  1.0451  0.3720 -0.4359
  172SAPE     N19442   4.354   3.495   6.260  0.1801  0.2404 -0.3912
  172SAPE   HN119443   4.378   3.520   6.162 -2.8900 -1.2146 -1.6184
  172SAPE   HN219444   4.272   3.432   6.251 -0.9213  1.5883 -0.1150
  172SAPE   HN319445   4.318   3.575   6.317 -0.4363 -0.3837  0.1011
  172SAPE   C1219446   4.471   3.440   6.338  0.8050 -0.2437  0.0071
  172SAPE  H12A19447   4.512   3.352   6.284 -1.1603 -1.8925  1.0475
  172SAPE  H12B19448   4.427   3.415   6.437 -2.6906  1.4322 -0.9620
  172SAPE   C1119449   4.566   3.559   6.374  0.0330  0.4998  0.5800
  172SAPE  H11A19450   4.642   3.511   6.438  0.2338 -0.8546 -0.6101
  172SAPE  H11B19451   4.499   3.637   6.417 -2.7606 -0.3118 -1.9199
  172SAPE     P19452   4.750   3.568   6.179 -0.2319  0.1168  0.0465
  172SAPE   O1319453   4.739   3.425   6.138  0.6052 -0.4035 -0.2057
  172SAPE   O1419454   4.793   3.674   6.080  1.0870 -0.5450  0.0860
  172SAPE   O1219455   4.617   3.611   6.244  0.2381  0.3534  0.1219
  172SAPE   O1119456   4.848   3.568   6.299 -0.1407 -0.4821 -0.2222
  172SAPE    C119457   4.883   3.685   6.381  0.7113 -0.2148  0.0859
  172SAPE    HA19458   4.917   3.775   6.324  0.9240 -1.7987 -2.4602
  172SAPE    HB19459   4.790   3.722   6.429  1.0160  2.4979 -1.2155
  172SAPE    C219460   5.002   3.659   6.473 -0.8788 -0.0853  0.2304
  172SAPE    HS19461   5.008   3.750   6.536 -1.1847  1.6722 -2.1231
  172SAPE   O2119462   5.116   3.658   6.392 -0.1939 -0.1815 -0.0149
  172SAPE   C2119463   5.179   3.775   6.376  0.1409  0.6555 -0.5913
  172SAPE   O2219464   5.157   3.882   6.428  0.5606 -0.5081 -0.5307
  172SAPE   C2219465   5.314   3.754   6.293  0.2527  0.3815  0.2599
  172SAPE   H2R19466   5.320   3.663   6.229  2.3962  1.6230 -1.4458
  172SAPE   H2S19467   5.316   3.835   6.217 -0.2652 -0.0200 -0.1866
  172SAPE    C319468   4.997   3.528   6.558  0.6207 -0.2483  0.1543
  172SAPE    HX19469   4.968   3.440   6.496  1.6097 -0.8568  0.5297
  172SAPE    HY19470   4.922   3.533   6.641  1.0520 -3.1638  0.8406
  172SAPE   O3119471   5.123   3.506   6.621  0.3542 -0.3613  0.6570
  172SAPE   C3119472   5.157   3.382   6.643  0.5937 -0.1792  0.4543
  172SAPE   O3219473   5.090   3.283   6.615  0.1855  0.1013 -0.4968
  172SAPE   C3219474   5.301   3.372   6.688  0.6571  0.3395  0.0914
  172SAPE   H2X19475   5.338   3.477   6.688 -0.3148  0.7655  2.4902
  172SAPE   H2Y19476   5.364   3.330   6.607  2.0613  0.9493  0.8292
  172SAPE   C2319477   5.448   3.771   6.373  0.2045  0.2324 -0.2278
  172SAPE   H3R19478   5.425   3.868   6.423 -2.1603 -0.9713  1.1445
  172SAPE   H3S19479   5.538   3.796   6.312  0.9219  0.3005  0.8256
  172SAPE   C2419480   5.464   3.661   6.476 -0.0876  0.1591 -0.0685
  172SAPE   H4R19481   5.486   3.562   6.429  0.4106  0.0551  0.3833
  172SAPE   H4S19482   5.373   3.621   6.526 -0.7701  0.8807 -0.7054
  172SAPE   C2519483   5.564   3.706   6.579 -0.3127 -0.2267 -0.3289
  172SAPE   H5R19484   5.664   3.719   6.537 -0.3770 -0.8483 -0.6821
  172SAPE   C2619485   5.534   3.753   6.704  0.5442 -0.3894 -1.0260
  172SAPE   H6R19486   5.602   3.800   6.777 -1.2532 -0.8373  1.0497
  172SAPE   C2719487   5.391   3.764   6.747 -0.1712 -0.1584  0.4210
  172SAPE   H7R19488   5.363   3.680   6.814  1.7636 -0.3049  1.0895
  172SAPE   H7S19489   5.317   3.753   6.664 -0.3300 -0.1784  0.5636
  172SAPE   C2819490   5.373   3.907   6.807  0.2041  0.7498  0.8136
  172SAPE   H8R19491   5.338   3.982   6.736 -0.6221  0.3436  0.7746
  172SAPE   C2919492   5.384   3.943   6.935 -0.3349 -0.5717 -0.3841
  172SAPE   H9R19493   5.374   4.051   6.951  0.9587 -0.4664 -0.1909
  172SAPE  C21019494   5.430   3.860   7.050 -0.0855 -0.0861  0.6677
  172SAPE  H10R19495   5.389   3.757   7.047  0.3129 -0.2253 -0.3357
  172SAPE  H10S19496   5.383   3.894   7.144 -2.4994 -1.3397  0.0026
  172SAPE  C21119497   5.582   3.861   7.054  0.4658  0.7151  0.2016
  172SAPE  H11R19498   5.642   3.827   6.968  0.4075 -0.5173  0.6327
  172SAPE  C21219499   5.653   3.892   7.158  0.0451 -0.5712  0.1916
  172SAPE  H12R19500   5.762   3.875   7.156  0.6261  2.5372 -2.0327
  172SAPE  C21319501   5.605   3.940   7.298 -0.6813  0.0252  0.6498
  172SAPE  H13R19502   5.534   3.859   7.321  0.8069 -1.6015 -0.2282
  172SAPE  H13S19503   5.542   4.030   7.279 -1.8364 -0.5592  1.6281
  172SAPE  C21419504   5.710   3.957   7.402 -0.2244  0.6190 -0.1151
  172SAPE  H14R19505   5.794   4.023   7.376  1.1231 -0.6942  0.7774
  172SAPE  C21519506   5.706   3.901   7.527  0.7403 -0.3067  0.3324
  172SAPE  H15R19507   5.789   3.908   7.599  0.9425 -0.0530  0.0784
  172SAPE  C21619508   5.594   3.805   7.579  0.3570 -0.5869 -0.0177
  172SAPE  H16R19509   5.576   3.726   7.503  0.9640 -1.6757  0.9443
  172SAPE  H16S19510   5.498   3.862   7.579  0.0306 -1.1302 -0.6576
  172SAPE  C21719511   5.603   3.732   7.709 -0.2925  0.1066 -0.8188
  172SAPE  H17R19512   5.692   3.665   7.707  0.8206  1.5562 -1.9175
  172SAPE  H17S19513   5.510   3.682   7.742 -0.2426  1.9890  2.5732
  172SAPE  C21819514   5.656   3.830   7.821 -0.5463 -0.3315 -0.3626
  172SAPE  H18R19515   5.594   3.922   7.811 -0.0571  0.2574  1.5868
  172SAPE  H18S19516   5.762   3.859   7.802 -0.2567  0.7324  2.4030
  172SAPE  C21919517   5.627   3.787   7.967 -0.0960  0.0920  0.9271
  172SAPE  H19R19518   5.697   3.705   7.994  1.5602  0.8475 -0.8012
  172SAPE  H19S19519   5.519   3.764   7.984 -0.2689  0.4722  0.3882
  172SAPE  C22019520   5.665   3.900   8.060  0.2304 -1.1111  0.4605
  172SAPE  H20R19521   5.628   3.874   8.161  0.6894 -1.2549  0.5957
  172SAPE  H20S19522   5.630   3.999   8.022 -0.2736 -1.3019  0.4168
  172SAPE  H20T19523   5.776   3.909   8.066  0.1154  1.8725 -0.0810
  172SAPE   C3319524   5.321   3.289   6.817 -0.3545  0.3717  0.1866
  172SAPE   H3X19525   5.414   3.234   6.792 -0.3674 -0.1489  1.2341
  172SAPE   H3Y19526   5.237   3.221   6.842 -0.6620 -0.6147 -3.1256
  172SAPE   C3419527   5.360   3.371   6.938 -0.8653  0.0051 -0.3470
  172SAPE   H4X19528   5.271   3.420   6.983 -0.6091  0.5121 -0.3798
  172SAPE   H4Y19529   5.428   3.454   6.909 -1.6944  1.4072  1.5352
  172SAPE   C3519530   5.422   3.274   7.043  0.6878  0.3256  0.5014
  172SAPE   H5X19531   5.518   3.239   7.000  1.6220  0.8526  2.0662
  172SAPE   H5Y19532   5.360   3.184   7.060  0.2014  1.0081  2.6595
  172SAPE   C3619533   5.446   3.341   7.174 -0.7259  0.6620  0.9029
  172SAPE   H6X19534   5.354   3.379   7.224  0.0666  0.1471  2.8642
  172SAPE   H6Y19535   5.515   3.427   7.157 -1.0206  0.6009 -0.7381
  172SAPE   C3719536   5.524   3.264   7.276  0.3112  0.4419 -0.6801
  172SAPE   H7X19537   5.623   3.231   7.238  0.3113 -1.2142  0.6526
  172SAPE   H7Y19538   5.455   3.183   7.308  0.5834  0.1782 -0.7586
  172SAPE   C3819539   5.557   3.342   7.408  0.2853  0.6081  0.5486
  172SAPE   H8X19540   5.458   3.379   7.443 -0.6438  1.0584 -2.2617
  172SAPE   H8Y19541   5.628   3.424   7.383  1.8566 -0.6107  0.8575
  172SAPE   C3919542   5.624   3.254   7.513  0.6515 -0.5307  0.5731
  172SAPE   H9X19543   5.734   3.253   7.505  0.7485 -1.4748  1.7647
  172SAPE   H9Y19544   5.586   3.151   7.498  0.0409  0.0624 -2.8984
  172SAPE  C31019545   5.581   3.317   7.654  0.1772 -0.0357 -0.0442
  172SAPE  H10X19546   5.478   3.359   7.646  0.5338  1.2215  1.4121
  172SAPE  H10Y19547   5.653   3.397   7.680  1.7711 -1.5710  0.4621
  172SAPE  C31119548   5.591   3.218   7.773 -0.4226  0.3856  0.0229
  172SAPE  H11X19549   5.694   3.177   7.774 -0.1254  1.0352 -1.5128
  172SAPE  H11Y19550   5.528   3.137   7.731 -0.3336  0.4894 -0.3094
  172SAPE  C31219551   5.548   3.265   7.914 -0.6379  0.4627  0.1692
  172SAPE  H12X19552   5.439   3.247   7.926 -0.3896 -0.1141  1.7361
  172SAPE  H12Y19553   5.560   3.376   7.908  0.4290  0.5607  2.7839
  172SAPE  C31319554   5.637   3.209   8.032  0.6149 -0.1955 -0.2304
  172SAPE  H13X19555   5.741   3.249   8.030  0.2358  0.9217  0.9451
  172SAPE  H13Y19556   5.638   3.100   8.012  0.1953 -0.3113  0.3471
  172SAPE  C31419557   5.577   3.237   8.172  0.4632 -0.0746 -0.3077
  172SAPE  H14X19558   5.639   3.178   8.243  0.6432  3.0862  2.4354
  172SAPE  H14Y19559   5.475   3.193   8.178  1.5594 -2.8026 -0.2613
  172SAPE  C31519560   5.578   3.389   8.206  0.7082 -0.3993 -0.7259
  172SAPE  H15X19561   5.505   3.440   8.140 -0.8850  0.2056  1.3889
  172SAPE  H15Y19562   5.681   3.421   8.179  1.5012 -1.7947  0.4723
  172SAPE  C31619563   5.549   3.429   8.352  0.6217  0.2339 -0.4484
  172SAPE  H16X19564   5.632   3.392   8.416  1.5398  1.0712 -1.1189
  172SAPE  H16Y19565   5.449   3.389   8.379  0.3973  2.3140  2.3054
  172SAPE  C31719566   5.541   3.586   8.366 -0.2909  0.6572 -0.7236
  172SAPE  H17X19567   5.469   3.613   8.286 -1.3205 -4.1088 -1.7173
  172SAPE  H17Y19568   5.637   3.640   8.352 -0.4342  1.0558 -0.2037
  172SAPE  C31819569   5.479   3.628   8.498  0.2629  0.7082 -0.0488
  172SAPE  H18X19570   5.377   3.584   8.505  1.1424 -1.2151  1.0941
  172SAPE  H18Y19571   5.460   3.738   8.497 -0.1062  0.6699 -1.9207
  172SAPE  H18Z19572   5.541   3.601   8.586 -0.4871 -1.2570 -0.0769
  173SOPE     N19573   6.769   5.605  10.790  0.3896 -0.1863  0.8906
  173SOPE   HN119574   6.743   5.618  10.690  0.3233  0.6621  1.0120
  173SOPE   HN219575   6.845   5.537  10.811 -1.5074 -2.1278  1.9190
  173SOPE   HN319576   6.684   5.566  10.835 -1.5463  2.6963 -0.0192
  173SOPE   C1219577   6.811   5.733  10.848  0.4448 -0.1487  0.0430
  173SOPE  H12A19578   6.919   5.745  10.824  0.8590  0.3735  1.9451
  173SOPE  H12B19579   6.808   5.725  10.959 -1.9749 -1.9055 -0.0675
  173SOPE   C1119580   6.716   5.851  10.818  0.2739 -0.4346 -0.3016
  173SOPE  H11A19581   6.742   5.900  10.722 -0.7802  0.9635  0.0935
  173SOPE  H11B19582   6.740   5.928  10.895  1.2953  1.8877 -2.7791
  173SOPE     P19583   6.460   5.926  10.855 -0.0199  0.0864 -0.2713
  173SOPE   O1319584   6.472   5.960  10.998 -0.3170  0.1238  0.0959
  173SOPE   O1419585   6.323   5.876  10.816 -0.4083 -0.5449 -0.1730
  173SOPE   O1219586   6.577   5.826  10.822 -0.2810  0.0346  0.3821
  173SOPE   O1119587   6.498   6.052  10.766  0.3224  0.3304  0.3099
  173SOPE    C119588   6.458   6.042  10.626 -0.6101  0.0885  0.0750
  173SOPE    HA19589   6.349   6.053  10.604 -0.7363 -1.2469  0.0026
  173SOPE    HB19590   6.490   5.948  10.578 -1.5353  0.9522 -2.3709
  173SOPE    C219591   6.530   6.153  10.544  0.0831  0.1356 -0.0923
  173SOPE    HS19592   6.512   6.249  10.596 -1.8472 -0.7616  1.0244
  173SOPE   O2119593   6.485   6.146  10.405  0.0291  0.3356 -0.1363
  173SOPE   C2119594   6.392   6.240  10.378  0.0351 -0.2699  0.3640
  173SOPE   O2219595   6.339   6.321  10.451 -0.1114  0.7736 -0.0813
  173SOPE   C2219596   6.381   6.255  10.224 -0.3164 -0.2428 -1.0220
  173SOPE   H2R19597   6.327   6.161  10.204  0.4831 -1.4198  1.8007
  173SOPE   H2S19598   6.485   6.246  10.186  0.5271  1.0604  0.8060
  173SOPE    C319599   6.677   6.111  10.548 -0.5110 -0.1256  0.0275
  173SOPE    HX19600   6.684   6.004  10.516 -1.9412 -0.7602  1.6743
  173SOPE    HY19601   6.722   6.123  10.649 -0.5753 -0.0772  0.0492
  173SOPE   O3119602   6.755   6.182  10.452 -1.0337 -0.0393 -0.1475
  173SOPE   C3119603   6.881   6.147  10.441 -0.4186  0.0122 -0.4810
  173SOPE   O3219604   6.938   6.064  10.513  0.3194 -0.1179 -0.3034
  173SOPE   C3219605   6.953   6.230  10.335  0.6384 -0.4494 -0.5044
  173SOPE   H2X19606   7.057   6.234  10.374  0.3721  0.1431  0.1699
  173SOPE   H2Y19607   6.908   6.331  10.341 -0.0411 -0.7913  0.4878
  173SOPE   C2319608   6.304   6.367  10.168  0.0471  0.3084  0.9448
  173SOPE   H3R19609   6.358   6.464  10.173  0.2742  0.1960  0.7017
  173SOPE   H3S19610   6.209   6.390  10.222  0.0214  2.5193  0.1008
  173SOPE   C2419611   6.274   6.345  10.011  0.0410  0.6551  0.1583
  173SOPE   H4R19612   6.368   6.312   9.963  0.4507  1.0939  0.6476
  173SOPE   H4S19613   6.206   6.258   9.998  0.6270  0.2647 -0.3519
  173SOPE   C2519614   6.210   6.461   9.933  0.7305 -0.3833  0.3235
  173SOPE   H5R19615   6.103   6.475   9.956  1.2335  2.9473  1.1142
  173SOPE   H5S19616   6.259   6.554   9.967  1.3928 -0.2749 -0.8999
  173SOPE   C2619617   6.223   6.444   9.781  0.2475  0.8143 -0.4952
  173SOPE   H6R19618   6.333   6.439   9.769  0.8662  0.2912  3.7344
  173SOPE   H6S19619   6.177   6.352   9.740 -0.2927  1.2381 -0.8628
  173SOPE   C2719620   6.176   6.574   9.713 -0.2940 -0.0063 -0.6750
  173SOPE   H7R19621   6.084   6.604   9.767  0.8150  3.8433 -0.6092
  173SOPE   H7S19622   6.254   6.650   9.733 -0.7070 -0.1020  1.5748
  173SOPE   C2819623   6.135   6.547   9.566 -0.1777 -0.3201 -0.3312
  173SOPE   H8R19624   6.212   6.499   9.501 -1.0873 -1.2591 -0.7286
  173SOPE   H8S19625   6.053   6.473   9.566 -0.1886 -0.3122  0.2063
  173SOPE   C2919626   6.076   6.673   9.509  0.3911  0.0304  0.9422
  173SOPE   H9119627   5.987   6.713   9.559 -0.0319  0.6511 -0.2607
  173SOPE  C21019628   6.125   6.729   9.393 -0.0245 -0.2714  0.4753
  173SOPE  H10119629   6.075   6.814   9.344  1.6711  0.1603 -0.5997
  173SOPE  C21119630   6.233   6.675   9.307  0.4144  0.6423  0.3280
  173SOPE  H11R19631   6.210   6.572   9.273 -0.7903  1.0727 -0.2398
  173SOPE  H11S19632   6.325   6.664   9.368  0.0642  0.9840  0.9280
  173SOPE  C21219633   6.250   6.760   9.180  0.0503  0.1475 -0.7764
  173SOPE  H12R19634   6.152   6.784   9.133  0.1754  1.9023 -0.2305
  173SOPE  H12S19635   6.305   6.708   9.099  1.8586  2.2647 -1.0074
  173SOPE  C21319636   6.322   6.903   9.190 -0.3829 -0.0970 -0.4148
  173SOPE  H13R19637   6.420   6.886   9.239 -1.0836 -0.6158  0.8710
  173SOPE  H13S19638   6.261   6.973   9.251  0.0079 -1.6794  1.9251
  173SOPE  C21419639   6.339   6.962   9.048  0.1674 -0.5066 -0.0415
  173SOPE  H14R19640   6.252   6.930   8.987 -0.9294  0.1139  1.1688
  173SOPE  H14S19641   6.429   6.918   8.999  0.0294 -0.9596  0.1061
  173SOPE  C21519642   6.357   7.113   9.042 -0.1351 -0.4337 -0.1041
  173SOPE  H15R19643   6.464   7.131   9.065  0.0833 -2.0570  0.2571
  173SOPE  H15S19644   6.283   7.167   9.106 -0.4540  1.1928 -1.7700
  173SOPE  C21619645   6.331   7.170   8.898 -0.2004  0.2937 -0.0658
  173SOPE  H16R19646   6.228   7.153   8.859  0.4946 -2.1690 -1.0264
  173SOPE  H16S19647   6.388   7.107   8.826 -1.5072  0.4999 -1.3251
  173SOPE  C21719648   6.377   7.322   8.877  0.7597  0.4464 -0.5718
  173SOPE  H17R19649   6.486   7.325   8.899  0.7903  0.3423 -0.7100
  173SOPE  H17S19650   6.322   7.384   8.951  0.1230 -2.4015  1.4963
  173SOPE  C21819651   6.350   7.374   8.734  0.1694  0.8211  0.6488
  173SOPE  H18R19652   6.382   7.478   8.709 -2.9096  1.6563 -0.2440
  173SOPE  H18S19653   6.241   7.367   8.711  0.2557  1.0473  0.1497
  173SOPE  H18T19654   6.404   7.302   8.670  1.7338  0.5357  2.2241
  173SOPE   C3319655   6.965   6.169  10.194  0.3427 -0.0296 -0.1051
  173SOPE   H3X19656   6.987   6.060  10.199  2.3595  0.3581  1.5488
  173SOPE   H3Y19657   7.056   6.204  10.139 -0.4007  0.7558 -0.8614
  173SOPE   C3419658   6.835   6.189  10.123  0.1059 -0.0375  0.1655
  173SOPE   H4X19659   6.807   6.293  10.150  1.4760  0.0707  1.2960
  173SOPE   H4Y19660   6.755   6.126  10.168  1.7534 -1.2931  1.4814
  173SOPE   C3519661   6.830   6.177   9.967  0.7922 -0.2095  0.0404
  173SOPE   H5X19662   6.842   6.069   9.944  1.6946  0.1132 -1.0854
  173SOPE   H5Y19663   6.918   6.231   9.925  1.9661 -0.2567  2.2406
  173SOPE   C3619664   6.704   6.236   9.914  0.4361 -0.1208  0.1279
  173SOPE   H6X19665   6.705   6.341   9.949  1.4076 -0.4496  1.1450
  173SOPE   H6Y19666   6.622   6.174   9.956  0.0486  1.2264  1.4101
  173SOPE   C3719667   6.690   6.215   9.761  0.4560 -0.6253 -0.4071
  173SOPE   H7X19668   6.710   6.108   9.742 -0.1027 -0.7615 -0.2591
  173SOPE   H7Y19669   6.777   6.257   9.706  0.0651  0.3981 -0.2622
  173SOPE   C3819670   6.563   6.267   9.692  0.6656 -0.1860  0.0525
  173SOPE   H8X19671   6.557   6.376   9.712 -0.7219 -0.1465 -0.4654
  173SOPE   H8Y19672   6.473   6.213   9.727  0.4816 -0.9563 -1.4973
  173SOPE   C3919673   6.578   6.260   9.541  0.6297  0.3855  0.5755
  173SOPE   H9X19674   6.583   6.154   9.506 -0.9578 -0.0586  1.5930
  173SOPE   H9Y19675   6.680   6.300   9.522  1.3623 -1.0842  1.2260
  173SOPE  C31019676   6.480   6.339   9.455 -0.1665  0.2955 -0.2432
  173SOPE  H10X19677   6.462   6.430   9.517  1.1809 -0.1051  0.7766
  173SOPE  H10Y19678   6.390   6.273   9.449  0.2731 -0.2176 -1.6051
  173SOPE  C31119679   6.525   6.397   9.319  0.0233  0.0643  0.2604
  173SOPE  H11X19680   6.630   6.429   9.334  1.3235 -3.7782  0.2781
  173SOPE  H11Y19681   6.459   6.483   9.294 -0.0693  0.0396  0.4169
  173SOPE  C31219682   6.492   6.307   9.196 -0.3486  0.2147  0.6250
  173SOPE  H12X19683   6.383   6.284   9.195  0.0838 -2.2206 -1.7188
  173SOPE  H12Y19684   6.548   6.212   9.209  0.1904 -0.1832 -3.4002
  173SOPE  C31319685   6.537   6.367   9.067 -1.0285  0.9183  1.6867
  173SOPE  H13X19686   6.522   6.294   8.985 -1.4519  1.5009  1.2306
  173SOPE  H13Y19687   6.647   6.385   9.069 -0.2288 -2.4978 -1.4606
  173SOPE  C31419688   6.474   6.500   9.021  0.2587 -0.3277  0.6027
  173SOPE  H14X19689   6.495   6.569   9.105 -0.5569 -2.2398  2.4725
  173SOPE  H14Y19690   6.363   6.501   9.010  0.4788 -0.5271 -2.6691
  173SOPE  C31519691   6.527   6.530   8.887  0.4308 -0.8984  0.2183
  173SOPE  H15X19692   6.509   6.440   8.825 -0.1517 -1.3456  1.0200
  173SOPE  H15Y19693   6.634   6.558   8.894  0.6366 -1.7616  0.6640
  173SOPE  C31619694   6.447   6.642   8.818  0.1045 -0.1214 -0.6496
  173SOPE  H16X19695   6.433   6.717   8.898 -2.2578 -1.5017  0.3385
  173SOPE  H16Y19696   6.342   6.615   8.793 -0.4073  1.5218 -0.3967
  173SOPE  C31719697   6.506   6.729   8.706  0.1122 -0.2546 -0.1610
  173SOPE  H17X19698   6.428   6.798   8.669  0.3886  0.6050  0.8065
  173SOPE  H17Y19699   6.553   6.666   8.628 -0.4942 -1.0937  0.1391
  173SOPE  C31819700   6.618   6.815   8.767 -0.0703 -0.4877 -0.4319
  173SOPE  H18X19701   6.636   6.895   8.692 -1.2276  0.3430  0.1340
  173SOPE  H18Y19702   6.707   6.752   8.790  1.3835  1.3119 -0.9382
  173SOPE  H18Z19703   6.589   6.867   8.861 -1.5344 -0.1771 -1.0146
  174SOPE     N19704   6.126   5.701  10.742  0.7954 -0.2244  0.3062
  174SOPE   HN119705   6.205   5.747  10.792 -0.5465 -0.9328  3.2880
  174SOPE   HN219706   6.117   5.745  10.648  3.1335 -0.2782  0.0041
  174SOPE   HN319707   6.044   5.734  10.797  1.1096 -0.4620  0.9287
  174SOPE   C1219708   6.132   5.552  10.738 -0.3687 -0.5359  0.2553
  174SOPE  H12A19709   6.197   5.538  10.649  1.3649 -0.1591  1.4116
  174SOPE  H12B19710   6.032   5.510  10.713 -0.6897  0.6491 -0.5230
  174SOPE   C1119711   6.191   5.497  10.867  0.4791 -0.3462 -1.1479
  174SOPE  H11A19712   6.168   5.391  10.889  1.1498 -0.3869 -0.6253
  174SOPE  H11B19713   6.142   5.549  10.952  1.5676 -2.1881  0.6934
  174SOPE     P19714   6.444   5.408  10.853 -0.1379 -0.4642  0.2142
  174SOPE   O1319715   6.400   5.273  10.899 -0.3370 -0.5088  0.1049
  174SOPE   O1419716   6.567   5.458  10.924 -0.3457 -0.0323  0.2662
  174SOPE   O1219717   6.335   5.520  10.868  0.0548  0.0487  0.2414
  174SOPE   O1119718   6.474   5.429  10.699  0.0678  0.0308 -0.5332
  174SOPE    C119719   6.464   5.326  10.610  0.7733  0.2427 -0.0356
  174SOPE    HA19720   6.358   5.304  10.585  0.5074  1.0242  0.3761
  174SOPE    HB19721   6.495   5.232  10.661  2.1512  0.0535 -1.1685
  174SOPE    C219722   6.544   5.348  10.479  0.6738  0.4197 -0.0793
  174SOPE    HS19723   6.652   5.347  10.502  0.5751 -0.5808  0.4037
  174SOPE   O2119724   6.495   5.466  10.409  0.1839 -0.6477 -0.3051
  174SOPE   C2119725   6.534   5.581  10.465  0.1297 -0.2820  0.2137
  174SOPE   O2219726   6.629   5.602  10.541 -0.5748 -0.3672 -0.1776
  174SOPE   C2219727   6.450   5.684  10.401  0.5281  0.3399  0.2072
  174SOPE   H2R19728   6.491   5.784  10.425  1.2063 -0.1201  1.0633
  174SOPE   H2S19729   6.342   5.682  10.428 -0.0823  0.0993 -2.0764
  174SOPE    C319730   6.512   5.223  10.393  1.1026  0.1334 -0.0202
  174SOPE    HX19731   6.404   5.200  10.380  1.0330 -1.1025  2.1398
  174SOPE    HY19732   6.548   5.135  10.452  1.4858  1.2003  1.3864
  174SOPE   O3119733   6.585   5.229  10.270  0.1183 -0.1361  0.3615
  174SOPE   C3119734   6.525   5.284  10.157 -1.1523 -0.8895 -0.4459
  174SOPE   O3219735   6.408   5.275  10.136 -0.4470  0.6245 -0.2639
  174SOPE   C3219736   6.623   5.368  10.071  0.7306 -0.2721 -0.2026
  174SOPE   H2X19737   6.699   5.300  10.026 -0.8294 -3.4308  1.6119
  174SOPE   H2Y19738   6.681   5.439  10.134  1.4379 -0.8572 -0.1898
  174SOPE   C2319739   6.452   5.680  10.243  0.1212  0.1393 -0.8089
  174SOPE   H3R19740   6.395   5.590  10.212 -0.3315 -0.4482  1.4828
  174SOPE   H3S19741   6.559   5.676  10.211 -0.0641 -0.5716 -1.3702
  174SOPE   C2419742   6.386   5.805  10.190  0.1107 -0.2584  0.4275
  174SOPE   H4R19743   6.277   5.814  10.210 -0.0524  1.4493 -0.9155
  174SOPE   H4S19744   6.448   5.886  10.236 -1.0144 -1.0759  3.6962
  174SOPE   C2519745   6.406   5.812  10.041  0.2745 -0.4556  0.5271
  174SOPE   H5R19746   6.507   5.847  10.011  0.5479 -2.5750 -1.2286
  174SOPE   H5S19747   6.402   5.713   9.992  2.0078 -0.1054 -0.4175
  174SOPE   C2619748   6.296   5.894   9.963  0.5530 -0.3516  0.3121
  174SOPE   H6R19749   6.192   5.869   9.992  0.4249 -1.5018 -1.0165
  174SOPE   H6S19750   6.310   6.003   9.978  1.0589 -0.3514 -0.1353
  174SOPE   C2719751   6.301   5.884   9.807 -0.3049  0.0657  0.2916
  174SOPE   H7R19752   6.387   5.949   9.783  0.1243 -1.0200 -1.2785
  174SOPE   H7S19753   6.323   5.779   9.777 -0.8344  0.0651 -0.0977
  174SOPE   C2819754   6.176   5.946   9.732  0.3132  0.0942  0.2137
  174SOPE   H8R19755   6.078   5.913   9.772 -1.3828 -0.7363 -4.0246
  174SOPE   H8S19756   6.178   6.057   9.739  1.8005  0.0947  0.1410
  174SOPE   C2919757   6.177   5.902   9.589 -0.1725 -0.0272  0.4590
  174SOPE   H9119758   6.197   5.794   9.579 -0.5292 -0.0108 -0.5539
  174SOPE  C21019759   6.144   5.976   9.480 -0.1312  0.1093 -0.1514
  174SOPE  H10119760   6.164   5.936   9.379 -0.9790  1.9167 -1.0878
  174SOPE  C21119761   6.092   6.114   9.492  0.0923  0.3191 -0.5472
  174SOPE  H11R19762   6.145   6.155   9.580 -0.3206  0.5767 -0.4201
  174SOPE  H11S19763   5.984   6.120   9.517  0.1804  0.7096 -0.2534
  174SOPE  C21219764   6.111   6.202   9.366  0.6637 -0.3887 -0.3080
  174SOPE  H12R19765   6.215   6.194   9.327  0.4885 -1.8434 -0.5254
  174SOPE  H12S19766   6.084   6.305   9.398  0.5683  0.7608 -3.7071
  174SOPE  C21319767   6.013   6.170   9.251 -0.1029 -0.4609  0.2789
  174SOPE  H13R19768   5.911   6.166   9.294 -0.1577 -2.5638  0.0903
  174SOPE  H13S19769   6.042   6.068   9.215  2.0420  0.7859 -1.8660
  174SOPE  C21419770   6.018   6.272   9.131 -0.2759 -0.1216  0.2412
  174SOPE  H14R19771   5.988   6.217   9.039  0.6699 -0.2323 -0.0174
  174SOPE  H14S19772   6.128   6.283   9.118 -0.1567 -0.2942  1.0913
  174SOPE  C21519773   5.940   6.407   9.167  0.1676  0.5952 -0.4330
  174SOPE  H15R19774   5.983   6.445   9.263 -1.2727 -1.6855  1.2369
  174SOPE  H15S19775   5.835   6.378   9.188  0.3262  0.8460  0.8339
  174SOPE  C21619776   5.961   6.516   9.061 -0.8061  0.0588 -0.2360
  174SOPE  H16R19777   5.950   6.469   8.961  1.2863 -0.0213 -0.4684
  174SOPE  H16S19778   6.063   6.559   9.073 -0.1264 -1.0422 -1.7261
  174SOPE  C21719779   5.857   6.632   9.078 -0.8322  0.1640 -0.2203
  174SOPE  H17R19780   5.896   6.710   9.009 -3.7591  2.5420  0.6253
  174SOPE  H17S19781   5.869   6.671   9.181  2.7087  0.1612 -0.5158
  174SOPE  C21819782   5.709   6.604   9.045  0.4266  0.5696 -0.3589
  174SOPE  H18R19783   5.674   6.516   9.104  2.9377 -0.4639 -0.2734
  174SOPE  H18S19784   5.693   6.590   8.936 -0.5146  3.1268 -0.6029
  174SOPE  H18T19785   5.651   6.695   9.069  1.2820  0.3686  3.0670
  174SOPE   C3319786   6.564   5.431   9.947 -0.2233 -0.4259 -0.4235
  174SOPE   H3X19787   6.528   5.533   9.973  0.6871  0.5463 -2.6601
  174SOPE   H3Y19788   6.486   5.364   9.905 -0.4622 -0.2832 -0.2055
  174SOPE   C3419789   6.677   5.464   9.845 -0.4481 -0.3267  0.0241
  174SOPE   H4X19790   6.710   5.366   9.802  2.7039  1.3614 -1.7989
  174SOPE   H4Y19791   6.764   5.516   9.891 -1.5092  1.1298  0.4407
  174SOPE   C3519792   6.641   5.554   9.721 -0.1492 -0.4219  0.5145
  174SOPE   H5X19793   6.716   5.561   9.639 -1.3311 -2.0304 -0.7589
  174SOPE   H5Y19794   6.618   5.657   9.756 -1.2566 -0.7770  0.8612
  174SOPE   C3619795   6.508   5.505   9.654 -0.1265  0.0387  0.1941
  174SOPE   H6X19796   6.430   5.485   9.730  0.6176  1.8340  1.5080
  174SOPE   H6Y19797   6.533   5.402   9.622 -0.4978  0.3571 -1.1943
  174SOPE   C3719798   6.464   5.587   9.535  0.3925  0.7035  0.0335
  174SOPE   H7X19799   6.531   5.675   9.526  0.0167  0.8596 -1.5769
  174SOPE   H7Y19800   6.358   5.618   9.548  0.4113  0.6579  0.2906
  174SOPE   C3819801   6.465   5.496   9.411 -0.0892 -0.8609 -0.0800
  174SOPE   H8X19802   6.403   5.406   9.426 -2.1658  0.7124  1.2363
  174SOPE   H8Y19803   6.567   5.459   9.385  0.0068 -0.5998 -0.0841
  174SOPE   C3919804   6.429   5.571   9.280  0.4464  0.4302 -0.4800
  174SOPE   H9X19805   6.413   5.489   9.206 -1.9841 -0.2494  0.6853
  174SOPE   H9Y19806   6.512   5.635   9.243  1.7280 -0.5268  0.6186
  174SOPE  C31019807   6.295   5.649   9.281 -0.6861  0.0405  0.2138
  174SOPE  H10X19808   6.320   5.736   9.345 -0.5774  0.4462 -0.3679
  174SOPE  H10Y19809   6.218   5.587   9.331 -1.7831  0.4997 -0.8733
  174SOPE  C31119810   6.244   5.698   9.147 -0.8240  0.6092  0.0713
  174SOPE  H11X19811   6.329   5.725   9.081 -0.1055 -0.5990  0.4764
  174SOPE  H11Y19812   6.190   5.790   9.181 -0.0309  1.1770 -0.1939
  174SOPE  C31219813   6.154   5.601   9.070 -0.0346  0.0971  0.3805
  174SOPE  H12X19814   6.059   5.581   9.124  0.2251  0.3795  0.9442
  174SOPE  H12Y19815   6.209   5.506   9.055  0.8790  0.9613 -2.3798
  174SOPE  C31319816   6.125   5.652   8.926  0.8001 -0.2209 -0.3894
  174SOPE  H13X19817   6.215   5.667   8.862 -0.4541  2.9841 -1.5968
  174SOPE  H13Y19818   6.074   5.750   8.931  0.8761 -0.2268  0.6954
  174SOPE  C31419819   6.032   5.558   8.850  0.0251 -0.3527  0.5608
  174SOPE  H14X19820   5.945   5.534   8.915 -1.1878 -3.6693 -1.9516
  174SOPE  H14Y19821   6.079   5.457   8.843 -0.2559 -0.6153  2.0218
  174SOPE  C31519822   5.957   5.622   8.730  0.0127  0.1686  0.3254
  174SOPE  H15X19823   5.911   5.720   8.756  1.0516  1.1374 -1.3060
  174SOPE  H15Y19824   5.881   5.557   8.683 -0.1127 -0.5704  1.5237
  174SOPE  C31619825   6.059   5.661   8.619 -0.3580  0.0673 -0.5422
  174SOPE  H16X19826   6.092   5.567   8.570  0.8114 -1.3255  2.6661
  174SOPE  H16Y19827   6.152   5.717   8.645 -1.8484  2.5403 -0.1845
  174SOPE  C31719828   5.996   5.752   8.512  0.0833  0.4681 -0.4888
  174SOPE  H17X19829   5.885   5.745   8.519  0.2544 -1.9360  0.6907
  174SOPE  H17Y19830   6.023   5.711   8.413  0.1164  2.7233 -1.4919
  174SOPE  C31819831   6.025   5.907   8.523  0.1935  0.3486  0.2715
  174SOPE  H18X19832   5.974   5.954   8.609  1.4930  0.4467  1.0076
  174SOPE  H18Y19833   6.001   5.951   8.424  0.2459  0.1988  0.1913
  174SOPE  H18Z19834   6.136   5.913   8.529  0.1998  1.5839 -0.5492
  175SOPE     N19835   0.394   5.877  10.955 -0.1291  0.0397  0.5555
  175SOPE   HN119836   0.367   5.929  11.041 -1.4898 -1.1164  0.8478
  175SOPE   HN219837   0.343   5.936  10.886 -1.7314  1.3885  2.7768
  175SOPE   HN319838   0.349   5.784  10.953 -0.9174  0.3557  2.1893
  175SOPE   C1219839   0.546   5.863  10.931 -0.4779 -0.3457 -0.1770
  175SOPE  H12A19840   0.574   5.772  10.987 -3.1784  0.6731  3.1752
  175SOPE  H12B19841   0.595   5.944  10.989 -0.5999 -0.2636 -0.1868
  175SOPE   C1119842   0.584   5.868  10.788 -0.0941  0.6062  0.0756
  175SOPE  H11A19843   0.694   5.881  10.793 -0.1528  1.3817 -0.3580
  175SOPE  H11B19844   0.544   5.962  10.743 -0.4608  1.1371  1.4708
  175SOPE     P19845   0.635   5.636  10.688 -0.1994  0.3076 -0.0617
  175SOPE   O1319846   0.637   5.566  10.818  0.2026  0.2561  0.0025
  175SOPE   O1419847   0.762   5.684  10.627  0.6716 -0.5596 -0.5261
  175SOPE   O1219848   0.538   5.762  10.711 -0.9533 -0.3285  0.5202
  175SOPE   O1119849   0.562   5.545  10.582  0.7566  0.0793  0.2701
  175SOPE    C119850   0.417   5.542  10.581 -0.8291  0.3984 -0.3325
  175SOPE    HA19851   0.367   5.637  10.549 -1.1398  0.7101  1.0256
  175SOPE    HB19852   0.383   5.532  10.686 -2.3429  0.4888 -0.7815
  175SOPE    C219853   0.345   5.428  10.499 -0.4391  0.0073  0.4602
  175SOPE    HS19854   0.391   5.330  10.526  0.0870 -0.2171 -1.1340
  175SOPE   O2119855   0.380   5.463  10.362  0.3880  0.1215  0.4563
  175SOPE   C2119856   0.399   5.356  10.285  0.7759 -0.3670 -0.2300
  175SOPE   O2219857   0.379   5.242  10.317 -0.1616  0.5658 -0.1257
  175SOPE   C2219858   0.437   5.392  10.149 -0.5942  0.0132  0.1706
  175SOPE   H2R19859   0.541   5.357  10.130  0.4980  2.0813  1.9565
  175SOPE   H2S19860   0.445   5.503  10.147 -0.4771 -0.0005 -1.2165
  175SOPE    C319861   0.190   5.429  10.513  0.3562 -0.3161  0.3900
  175SOPE    HX19862   0.160   5.405  10.617 -0.3373  2.1950  0.8259
  175SOPE    HY19863   0.148   5.348  10.449  0.3363  0.1065 -0.1344
  175SOPE   O3119864   0.132   5.553  10.488  0.0182 -0.5551 -0.1416
  175SOPE   C3119865   0.117   5.580  10.360  0.3204 -0.4439  0.1020
  175SOPE   O3219866   0.119   5.494  10.273 -0.1252  0.4459  0.2150
  175SOPE   C3219867   0.096   5.733  10.339  0.9083 -0.8099 -0.3647
  175SOPE   H2X19868   0.191   5.783  10.368 -0.8796  2.3223  0.6752
  175SOPE   H2Y19869   0.016   5.766  10.410  0.7222 -1.5053 -0.2491
  175SOPE   C2319870   0.332   5.331  10.045 -0.4755  0.3359  0.7245
  175SOPE   H3R19871   0.227   5.362  10.066 -0.2692  1.4899  0.1897
  175SOPE   H3S19872   0.343   5.221  10.043 -3.0227 -0.0154  1.8866
  175SOPE   C2419873   0.357   5.381   9.904 -0.4385 -0.1583  0.1300
  175SOPE   H4R19874   0.358   5.492   9.911  1.0243 -0.2542  2.8985
  175SOPE   H4S19875   0.461   5.352   9.880  0.4916  0.8831  2.5680
  175SOPE   C2519876   0.261   5.326   9.808  1.4057 -0.0278  0.0170
  175SOPE   H5R19877   0.288   5.218   9.802 -0.5040 -0.5226 -0.0387
  175SOPE   H5S19878   0.153   5.335   9.832  1.0618  3.0945 -2.1507
  175SOPE   C2619879   0.271   5.383   9.670 -0.4839 -0.3494 -0.0843
  175SOPE   H6R19880   0.247   5.491   9.679 -0.8251 -0.6067  2.7429
  175SOPE   H6S19881   0.361   5.353   9.612  0.1523 -0.0873  0.7471
  175SOPE   C2719882   0.159   5.334   9.571  0.1086  0.4507 -0.7028
  175SOPE   H7R19883   0.175   5.228   9.544 -1.9922 -0.1060  0.0329
  175SOPE   H7S19884   0.070   5.345   9.638  0.7887  1.6697  0.0368
  175SOPE   C2819885   0.168   5.426   9.451 -0.6059  0.4562 -0.7951
  175SOPE   H8R19886   0.178   5.531   9.486 -0.4489 -0.4685  2.1433
  175SOPE   H8S19887   0.260   5.410   9.392  1.7846 -0.0479  2.7730
  175SOPE   C2919888   0.040   5.400   9.377  0.4873 -0.3842  0.2547
  175SOPE   H9119889  -0.033   5.350   9.442 -0.5381  1.3475  0.5099
  175SOPE  C21019890   0.018   5.415   9.245 -0.6387  0.1693 -0.5614
  175SOPE  H10119891  -0.080   5.385   9.205  0.7570 -3.8715 -1.4424
  175SOPE  C21119892   0.126   5.474   9.153  0.4560  0.2612 -0.6754
  175SOPE  H11R19893   0.232   5.442   9.163  1.0271  1.1784 -2.9205
  175SOPE  H11S19894   0.125   5.584   9.174  0.8542  0.0207  0.6899
  175SOPE  C21219895   0.101   5.470   9.004 -0.6481 -0.0918 -0.3283
  175SOPE  H12R19896   0.198   5.500   8.957 -0.0027 -1.2599  0.2247
  175SOPE  H12S19897   0.027   5.546   8.973 -0.3293  0.1265 -0.5706
  175SOPE  C21319898   0.069   5.328   8.953  0.1247 -0.4898  0.7046
  175SOPE  H13R19899  -0.026   5.296   9.001 -0.7734  0.5412 -0.3261
  175SOPE  H13S19900   0.154   5.259   8.972 -0.2302 -0.6947  1.6018
  175SOPE  C21419901   0.041   5.331   8.803 -0.4397  0.0379 -0.0888
  175SOPE  H14R19902   0.134   5.348   8.744 -0.5360 -1.2272 -0.6499
  175SOPE  H14S19903  -0.038   5.407   8.788  0.3039  1.0875  1.1217
  175SOPE  C21519904  -0.008   5.190   8.755  0.0895  0.2028  0.3544
  175SOPE  H15R19905  -0.108   5.169   8.797 -0.7614  0.8153 -1.2842
  175SOPE  H15S19906   0.065   5.113   8.789  0.3655 -0.7766 -2.2155
  175SOPE  C21619907  -0.022   5.170   8.599  0.0147  0.2661 -0.3304
  175SOPE  H16R19908   0.076   5.182   8.548 -0.2368 -1.0835 -1.1870
  175SOPE  H16S19909  -0.092   5.249   8.565  0.3476  0.4723 -0.5447
  175SOPE  C21719910  -0.066   5.022   8.578  0.0025 -0.0730  0.1701
  175SOPE  H17R19911  -0.154   5.000   8.641 -0.1063 -1.1474 -0.3372
  175SOPE  H17S19912   0.013   4.950   8.610 -1.5591 -2.7508 -1.6116
  175SOPE  C21819913  -0.102   4.980   8.432  0.1961  0.3365  0.2656
  175SOPE  H18R19914  -0.015   5.000   8.366 -1.0311  2.4957 -0.8307
  175SOPE  H18S19915  -0.186   5.038   8.388  0.7870  0.7714 -0.3063
  175SOPE  H18T19916  -0.126   4.872   8.431 -4.1458  1.1054  0.0500
  175SOPE   C3319917   0.063   5.766  10.192  0.1231 -0.3757  0.1796
  175SOPE   H3X19918   0.027   5.871  10.188 -0.4332 -0.5961 -1.2926
  175SOPE   H3Y19919  -0.016   5.698  10.152 -1.4503  0.1566  2.1924
  175SOPE   C3419920   0.189   5.773  10.105  0.8035 -0.0479  0.3305
  175SOPE   H4X19921   0.262   5.703  10.149 -0.3292 -1.3951  0.1283
  175SOPE   H4Y19922   0.234   5.874  10.121 -0.7250  0.5877  0.8560
  175SOPE   C3519923   0.165   5.752   9.955 -0.2244  0.0468  0.2677
  175SOPE   H5X19924   0.070   5.809   9.945  0.0844  0.8801  1.7849
  175SOPE   H5Y19925   0.159   5.644   9.930  1.9327  0.1317 -0.8440
  175SOPE   C3619926   0.273   5.813   9.864  1.2610 -0.4202  0.7648
  175SOPE   H6X19927   0.369   5.763   9.885  2.9430  1.2254 -2.2971
  175SOPE   H6Y19928   0.296   5.914   9.905  2.6623 -0.4939  0.2065
  175SOPE   C3719929   0.222   5.811   9.718  0.1980  0.0448 -0.0135
  175SOPE   H7X19930   0.180   5.710   9.701 -1.4954  0.8370 -0.6743
  175SOPE   H7Y19931   0.317   5.827   9.663  2.1485 -2.3182  2.3887
  175SOPE   C3819932   0.113   5.913   9.693 -0.4091 -0.4747 -0.6138
  175SOPE   H8X19933   0.157   6.012   9.721 -0.3668 -0.4922 -0.6177
  175SOPE   H8Y19934   0.023   5.901   9.756 -0.4570 -0.7948 -0.7419
  175SOPE   C3919935   0.069   5.929   9.540  0.7554  0.2360 -0.9920
  175SOPE   H9X19936   0.156   5.925   9.472  0.5969 -1.3060 -1.1278
  175SOPE   H9Y19937   0.022   6.030   9.541  0.1655 -0.0202  0.7265
  175SOPE  C31019938  -0.040   5.830   9.498  0.5677  0.2600  0.7668
  175SOPE  H10X19939  -0.133   5.860   9.552 -0.2836 -0.4657 -0.2465
  175SOPE  H10Y19940  -0.008   5.733   9.541  1.0675  0.3440  0.5916
  175SOPE  C31119941  -0.051   5.811   9.341  0.0738 -0.2846 -0.0328
  175SOPE  H11X19942  -0.146   5.752   9.335 -0.8480  1.2680 -1.8662
  175SOPE  H11Y19943   0.028   5.756   9.286  0.4409  0.2503 -0.0477
  175SOPE  C31219944  -0.070   5.948   9.269  0.0745  0.1486 -0.3645
  175SOPE  H12X19945   0.031   5.985   9.240  0.6149 -0.0681  1.1220
  175SOPE  H12Y19946  -0.115   6.013   9.347  1.1380 -2.8335  3.0181
  175SOPE  C31319947  -0.171   5.949   9.153  0.5125 -0.3166  0.5217
  175SOPE  H13X19948  -0.178   6.054   9.118  1.8058 -0.3335  0.1527
  175SOPE  H13Y19949  -0.271   5.916   9.189  0.8178 -1.4309  0.3829
  175SOPE  C31419950  -0.130   5.856   9.040 -0.2527  0.3568 -0.2848
  175SOPE  H14X19951  -0.131   5.752   9.081  3.0328  0.1730 -0.3515
  175SOPE  H14Y19952  -0.021   5.876   9.026  0.0873 -0.3068  1.1886
  175SOPE  C31519953  -0.209   5.877   8.912  0.3782  1.2784 -0.3981
  175SOPE  H15X19954  -0.206   5.982   8.875 -1.0112  1.2320 -0.7289
  175SOPE  H15Y19955  -0.316   5.849   8.926  0.8613 -0.7005 -0.2612
  175SOPE  C31619956  -0.151   5.779   8.806  0.7536  0.1914 -0.8318
  175SOPE  H16X19957  -0.187   5.678   8.838 -1.0722  0.9679 -0.3099
  175SOPE  H16Y19958  -0.041   5.776   8.813  0.6776  0.2573  0.6170
  175SOPE  C31719959  -0.191   5.806   8.662  0.0753 -0.0293  0.1879
  175SOPE  H17X19960  -0.185   5.914   8.639 -0.4191  0.1906  1.0112
  175SOPE  H17Y19961  -0.297   5.775   8.649  0.8573 -2.1281 -1.7712
  175SOPE  C31819962  -0.096   5.737   8.564  0.0260 -0.2197  0.0829
  175SOPE  H18X19963  -0.117   5.766   8.459 -2.0349 -3.7309 -0.6416
  175SOPE  H18Y19964  -0.097   5.626   8.574  0.8888 -0.2631 -0.2287
  175SOPE  H18Z19965   0.004   5.782   8.579 -0.0826  0.3750 -0.8786
  176SOPE     N19966   0.590   0.368  10.644 -0.1946  0.3742  0.0770
  176SOPE   HN119967   0.614   0.453  10.589 -0.0768  0.5844  0.4451
  176SOPE   HN219968   0.519   0.387  10.718  0.1866  2.6998 -0.0730
  176SOPE   HN319969   0.677   0.350  10.698 -0.3100 -0.2073  0.0708
  176SOPE   C1219970   0.535   0.257  10.562  0.0981 -0.7717  0.3851
  176SOPE  H12A19971   0.580   0.267  10.461  1.7971  3.3530  1.3627
  176SOPE  H12B19972   0.425   0.274  10.562 -0.1277 -2.0497  1.6159
  176SOPE   C1119973   0.586   0.122  10.621  0.2594 -0.2239 -0.1987
  176SOPE  H11A19974   0.696   0.107  10.626 -0.0099 -2.4937  0.0653
  176SOPE  H11B19975   0.542   0.042  10.557  0.3281 -1.0597  0.7748
  176SOPE     P19976   0.561  -0.028  10.827 -0.0438  0.2009  0.2862
  176SOPE   O1319977   0.466  -0.046  10.936  0.3900 -0.0756 -0.4078
  176SOPE   O1419978   0.701  -0.015  10.859 -0.7970  0.4087 -0.2029
  176SOPE   O1219979   0.522   0.101  10.745 -0.0226 -0.0460 -0.3580
  176SOPE   O1119980   0.554  -0.150  10.724  0.0349 -0.0990 -0.8880
  176SOPE    C119981   0.443  -0.236  10.736 -0.3366 -0.0016  0.1108
  176SOPE    HA19982   0.341  -0.199  10.760  0.8834  2.7469  1.4861
  176SOPE    HB19983   0.477  -0.318  10.803 -0.2367  0.1923  0.2973
  176SOPE    C219984   0.416  -0.304  10.600 -0.1286 -0.6369 -1.4495
  176SOPE    HS19985   0.334  -0.378  10.614 -0.8488  0.6778  2.0487
  176SOPE   O2119986   0.540  -0.360  10.552  0.2569 -0.4981  0.9254
  176SOPE   C2119987   0.550  -0.491  10.545 -1.0301  0.6258  0.7388
  176SOPE   O2219988   0.461  -0.570  10.568 -1.0714 -0.0510  0.4987
  176SOPE   C2219989   0.688  -0.533  10.497 -0.5829 -0.3803  0.2329
  176SOPE   H2R19990   0.749  -0.558  10.587 -0.0035 -1.2668 -0.3863
  176SOPE   H2S19991   0.728  -0.444  10.445  1.7942 -0.7867  1.2348
  176SOPE    C319992   0.361  -0.200  10.499  0.3673 -0.6430 -0.0223
  176SOPE    HX19993   0.442  -0.125  10.487  0.7805 -1.2143 -1.0323
  176SOPE    HY19994   0.266  -0.149  10.526 -0.1858 -1.9893  0.6645
  176SOPE   O3119995   0.350  -0.274  10.373 -0.3966  0.0972  0.1426
  176SOPE   C3119996   0.347  -0.188  10.260  0.0478  0.8707 -0.4941
  176SOPE   O3219997   0.373  -0.073  10.263  0.4628 -0.2390  0.2966
  176SOPE   C3219998   0.317  -0.280  10.147 -0.0706  0.3558  0.3933
  176SOPE   H2X19999   0.209  -0.309  10.147  0.5246 -2.0432 -0.1631
  176SOPE   H2Y20000   0.378  -0.373  10.146 -2.8554 -1.6498  1.7320
  176SOPE   C2320001   0.694  -0.654  10.401 -0.4424 -0.6352 -0.2976
  176SOPE   H3R20002   0.618  -0.644  10.322  1.0318 -0.1982 -1.7128
  176SOPE   H3S20003   0.670  -0.750  10.451 -1.4513  0.4375  1.3844
  176SOPE   C2420004   0.831  -0.673  10.331 -0.6698  0.5540  0.1232
  176SOPE   H4R20005   0.879  -0.578  10.300  1.5734 -0.0676  1.5258
  176SOPE   H4S20006   0.899  -0.722  10.403  0.3832  0.9311 -0.5934
  176SOPE   C2520007   0.824  -0.760  10.200  0.1300 -0.0609  0.2879
  176SOPE   H5R20008   0.932  -0.772  10.177  0.9492  0.1954  3.4597
  176SOPE   H5S20009   0.779  -0.860  10.217  2.0749 -1.1587 -0.7732
  176SOPE   C2620010   0.751  -0.687  10.086 -0.3444 -0.4414 -0.5512
  176SOPE   H6R20011   0.641  -0.693  10.096 -0.4457  1.5868  0.0141
  176SOPE   H6S20012   0.781  -0.581  10.071 -0.0675 -0.5789 -0.9934
  176SOPE   C2720013   0.776  -0.765   9.956 -0.0634  0.4296 -0.8735
  176SOPE   H7R20014   0.768  -0.874   9.975  2.0229 -0.3732 -3.8908
  176SOPE   H7S20015   0.689  -0.737   9.893 -1.2877 -3.2841 -1.0795
  176SOPE   C2820016   0.903  -0.728   9.888 -0.5080  0.0117 -0.1887
  176SOPE   H8R20017   0.898  -0.619   9.867 -1.4479 -0.0158 -0.1780
  176SOPE   H8S20018   0.989  -0.754   9.953  2.4769  2.3464 -2.9030
  176SOPE   C2920019   0.910  -0.795   9.758 -0.4551 -0.5936 -0.3836
  176SOPE   H9120020   0.816  -0.781   9.704 -0.5665 -0.3231 -0.1235
  176SOPE  C21020021   1.002  -0.879   9.711  0.0817  0.4515  0.4790
  176SOPE  H10120022   0.991  -0.931   9.614  0.1922  0.5980  0.3866
  176SOPE  C21120023   1.132  -0.930   9.777  1.0403 -0.3844  0.1044
  176SOPE  H11R20024   1.104  -0.949   9.883  0.4871 -0.9995 -0.1400
  176SOPE  H11S20025   1.207  -0.848   9.770 -0.5850  1.0327 -2.0425
  176SOPE  C21220026   1.195  -1.047   9.705 -0.1900 -0.6758 -0.5226
  176SOPE  H12R20027   1.294  -1.074   9.749  0.4977  1.7451 -0.4870
  176SOPE  H12S20028   1.214  -1.017   9.600  0.2329 -0.0131 -0.2629
  176SOPE  C21320029   1.104  -1.170   9.727  0.0353  0.0705  0.0214
  176SOPE  H13R20030   1.007  -1.153   9.676 -0.4511  0.1318  0.9590
  176SOPE  H13S20031   1.091  -1.186   9.836  2.0034 -0.6219  0.1997
  176SOPE  C21420032   1.178  -1.300   9.678  0.5322  0.5818  0.1258
  176SOPE  H14R20033   1.139  -1.395   9.719  0.5304  0.7862  0.6020
  176SOPE  H14S20034   1.280  -1.286   9.719  0.7545  3.1602 -1.0924
  176SOPE  C21520035   1.167  -1.312   9.518  0.5385  0.2276 -0.3400
  176SOPE  H15R20036   1.228  -1.402   9.494 -1.0698 -0.8186 -0.6093
  176SOPE  H15S20037   1.221  -1.228   9.468 -1.0167  0.3050 -2.0290
  176SOPE  C21620038   1.031  -1.329   9.462  0.0754 -1.2079  0.4795
  176SOPE  H16R20039   0.962  -1.245   9.485 -0.2556 -1.7656  1.5704
  176SOPE  H16S20040   0.988  -1.421   9.507 -0.1748 -1.7607 -0.8321
  176SOPE  C21720041   1.039  -1.351   9.310 -0.2834  0.5004  0.0890
  176SOPE  H17R20042   1.101  -1.439   9.282 -3.8589 -2.1708 -0.1438
  176SOPE  H17S20043   1.083  -1.261   9.262  1.4948 -0.3826 -0.0305
  176SOPE  C21820044   0.904  -1.384   9.249 -0.1268 -0.4618  1.0370
  176SOPE  H18R20045   0.919  -1.432   9.150  0.7154  0.4684  0.6999
  176SOPE  H18S20046   0.841  -1.293   9.238  2.4998  1.2025 -1.9906
  176SOPE  H18T20047   0.835  -1.443   9.314 -0.6532  1.1872  2.0515
  176SOPE   C3320048   0.337  -0.210  10.006 -0.0675  0.4859 -0.1886
  176SOPE   H3X20049   0.444  -0.179  10.008 -0.6263  2.6785 -1.6155
  176SOPE   H3Y20050   0.280  -0.115  10.002 -0.1593  0.4983  0.8994
  176SOPE   C3420051   0.300  -0.307   9.899  0.1305 -0.2586 -0.4389
  176SOPE   H4X20052   0.190  -0.323   9.910 -0.1254 -0.8034 -3.0779
  176SOPE   H4Y20053   0.352  -0.405   9.906  1.1592  0.3094 -0.1110
  176SOPE   C3520054   0.332  -0.245   9.761  0.0702 -0.6939  0.7279
  176SOPE   H5X20055   0.442  -0.254   9.749  0.3458  0.3070  2.1567
  176SOPE   H5Y20056   0.310  -0.136   9.767 -1.0972 -0.5289 -3.6088
  176SOPE   C3620057   0.259  -0.298   9.640  0.7216 -0.4885  1.0255
  176SOPE   H6X20058   0.288  -0.236   9.553 -0.3830  0.0130  0.9946
  176SOPE   H6Y20059   0.149  -0.291   9.658 -0.3882  0.4368 -4.4154
  176SOPE   C3720060   0.303  -0.439   9.620 -0.3619  0.4901 -0.4084
  176SOPE   H7X20061   0.309  -0.507   9.708 -0.6886  1.0524  0.0545
  176SOPE   H7Y20062   0.411  -0.438   9.591  0.5175  1.1535  2.5845
  176SOPE   C3820063   0.227  -0.511   9.504  0.0934  0.2685  0.8147
  176SOPE   H8X20064   0.126  -0.550   9.529  0.1770 -1.3609 -1.1459
  176SOPE   H8Y20065   0.285  -0.604   9.485 -0.2154 -0.1846  1.9616
  176SOPE   C3920066   0.222  -0.431   9.371 -0.3697 -0.5936 -0.1902
  176SOPE   H9X20067   0.312  -0.367   9.360 -0.9122  1.4132  4.5949
  176SOPE   H9Y20068   0.135  -0.364   9.384  0.0570 -0.1571  0.4385
  176SOPE  C31020069   0.194  -0.524   9.248  0.3725 -0.4282  0.0533
  176SOPE  H10X20070   0.110  -0.595   9.264 -0.6085  0.9612  1.3679
  176SOPE  H10Y20071   0.285  -0.583   9.223  1.8238  2.2867 -1.5661
  176SOPE  C31120072   0.158  -0.447   9.118 -0.1663 -0.1777  0.1599
  176SOPE  H11X20073   0.216  -0.352   9.116 -0.3186 -0.0518  1.0044
  176SOPE  H11Y20074   0.048  -0.433   9.122 -0.2394 -0.9224  1.2875
  176SOPE  C31220075   0.187  -0.541   8.997  0.0973 -0.5731 -0.0879
  176SOPE  H12X20076   0.139  -0.638   9.022  1.9717 -1.6590 -0.5295
  176SOPE  H12Y20077   0.296  -0.552   8.978 -0.0129 -0.0690 -1.0642
  176SOPE  C31320078   0.132  -0.477   8.867  0.7480  0.4545 -0.0506
  176SOPE  H13X20079   0.024  -0.455   8.883  0.8088  0.9887 -0.3636
  176SOPE  H13Y20080   0.143  -0.547   8.782 -3.7012  0.1583 -0.6211
  176SOPE  C31420081   0.206  -0.354   8.824 -0.2538  1.1003 -0.8295
  176SOPE  H14X20082   0.316  -0.369   8.819 -0.3795 -0.1680 -0.1199
  176SOPE  H14Y20083   0.200  -0.271   8.898  2.0719 -1.0801  2.0698
  176SOPE  C31520084   0.158  -0.295   8.688 -0.2901 -0.1816  0.1976
  176SOPE  H15X20085   0.197  -0.191   8.680  0.1769 -0.4078 -0.5965
  176SOPE  H15Y20086   0.047  -0.293   8.695 -0.3505  0.2532 -0.7337
  176SOPE  C31620087   0.212  -0.368   8.560  0.8716 -0.2738  0.4475
  176SOPE  H16X20088   0.143  -0.331   8.481 -1.4793 -0.8510  2.1215
  176SOPE  H16Y20089   0.200  -0.479   8.566  0.7939 -0.2487  0.7886
  176SOPE  C31720090   0.350  -0.330   8.531  0.1917  0.0916 -0.4204
  176SOPE  H17X20091   0.422  -0.355   8.612  0.1695  3.2771  0.6944
  176SOPE  H17Y20092   0.352  -0.221   8.512 -0.7078  0.2067  0.1161
  176SOPE  C31820093   0.400  -0.405   8.403  0.3731 -0.1378  0.4045
  176SOPE  H18X20094   0.419  -0.513   8.421 -0.7381 -0.3994  0.0864
  176SOPE  H18Y20095   0.494  -0.351   8.378  1.5350 -2.0243  0.4380
  176SOPE  H18Z20096   0.337  -0.384   8.314  1.6203  3.4048  0.2214
  177SOPE     N20097   6.072   4.345  10.772 -0.2706  0.2611 -0.4961
  177SOPE   HN120098   6.115   4.335  10.678  0.9329  0.9235 -0.0414
  177SOPE   HN220099   6.014   4.260  10.787  0.1885 -0.0259 -0.3351
  177SOPE   HN320100   6.016   4.432  10.766 -0.4832  0.6175  3.5552
  177SOPE   C1220101   6.169   4.368  10.894 -0.3640  0.4456 -0.2138
  177SOPE  H12A20102   6.193   4.265  10.928 -0.9084  0.0128 -1.1038
  177SOPE  H12B20103   6.106   4.418  10.971 -0.2128 -0.0349  0.2280
  177SOPE   C1120104   6.298   4.442  10.863 -0.2196  1.5170 -0.0327
  177SOPE  H11A20105   6.281   4.552  10.858 -1.2780  1.3699  0.3372
  177SOPE  H11B20106   6.338   4.416  10.762  1.0900  2.1865  0.2794
  177SOPE     P20107   6.503   4.530  11.013  0.3658 -0.2084  0.1445
  177SOPE   O1320108   6.621   4.460  11.062  0.1093  0.0683 -0.5931
  177SOPE   O1420109   6.421   4.604  11.112  0.2627 -0.0979 -0.2471
  177SOPE   O1220110   6.406   4.417  10.956  0.0035 -0.1312 -0.8616
  177SOPE   O1120111   6.544   4.612  10.885 -0.0428  0.3149 -0.1449
  177SOPE    C120112   6.628   4.533  10.788  0.5879 -0.9069 -0.7009
  177SOPE    HA20113   6.597   4.427  10.773 -1.2354 -0.2814 -1.7389
  177SOPE    HB20114   6.734   4.531  10.823  0.5403  1.1389 -0.3565
  177SOPE    C220115   6.615   4.608  10.650  0.6802  0.9868 -0.3944
  177SOPE    HS20116   6.663   4.707  10.666  0.7789  0.5369  2.6763
  177SOPE   O2120117   6.475   4.614  10.607 -0.0002 -0.3647  0.5753
  177SOPE   C2120118   6.402   4.714  10.663  0.5870 -0.6953  0.1472
  177SOPE   O2220119   6.455   4.802  10.732 -0.0166  0.0533  0.3419
  177SOPE   C2220120   6.260   4.715  10.609  0.6641 -0.0121  0.0297
  177SOPE   H2R20121   6.193   4.734  10.696 -0.4138 -0.0860 -0.7685
  177SOPE   H2S20122   6.246   4.615  10.562 -1.4649  1.0876 -1.8492
  177SOPE    C320123   6.693   4.529  10.547 -0.4640  0.7482 -0.2433
  177SOPE    HX20124   6.643   4.430  10.534 -1.5240  1.2601 -0.1391
  177SOPE    HY20125   6.797   4.509  10.582  0.2967  0.8784 -2.3097
  177SOPE   O3120126   6.702   4.590  10.423  0.1881  0.3371  0.1578
  177SOPE   C3120127   6.614   4.566  10.328 -0.2079  0.1087 -0.8892
  177SOPE   O3220128   6.512   4.494  10.338  0.5899  0.1180  0.2396
  177SOPE   C3220129   6.655   4.645  10.199  0.0020  0.6326 -0.9606
  177SOPE   H2X20130   6.766   4.654  10.201  0.0904  0.3852 -2.7017
  177SOPE   H2Y20131   6.618   4.749  10.211  0.2811  0.6026  0.3110
  177SOPE   C2320132   6.235   4.819  10.495 -0.4155  0.2706 -0.2326
  177SOPE   H3R20133   6.267   4.918  10.533  0.5111 -0.3350  0.6034
  177SOPE   H3S20134   6.127   4.822  10.471 -0.1017 -2.4243 -2.6043
  177SOPE   C2420135   6.306   4.796  10.364 -0.9207 -0.1506 -0.5806
  177SOPE   H4R20136   6.415   4.791  10.381 -0.9156 -1.7658 -0.8934
  177SOPE   H4S20137   6.267   4.706  10.311  0.4723 -0.2008 -1.5714
  177SOPE   C2520138   6.279   4.911  10.264  0.3686 -0.2661  0.1943
  177SOPE   H5R20139   6.170   4.894  10.248 -0.0490  0.3780  2.0636
  177SOPE   H5S20140   6.276   5.011  10.311 -0.6209 -1.3900  2.6903
  177SOPE   C2620141   6.357   4.912  10.132 -0.4262  0.1635  0.3112
  177SOPE   H6R20142   6.451   4.963  10.162 -0.0200 -0.9943  1.0887
  177SOPE   H6S20143   6.379   4.811  10.093  1.2710 -0.2697  2.1963
  177SOPE   C2720144   6.297   4.984  10.014 -0.1113  0.1658  0.5693
  177SOPE   H7R20145   6.192   4.948  10.004 -0.5055  0.6669  2.4990
  177SOPE   H7S20146   6.282   5.091  10.040 -0.9449 -0.1873  1.6473
  177SOPE   C2820147   6.374   4.978   9.874  0.9375  0.2650 -0.4769
  177SOPE   H8R20148   6.484   4.981   9.886  1.1731  0.3592 -2.3793
  177SOPE   H8S20149   6.356   4.877   9.831 -2.3320 -0.9471  3.0984
  177SOPE   C2920150   6.331   5.088   9.780 -0.3642 -0.3436  0.1155
  177SOPE   H9120151   6.338   5.184   9.834 -0.1270  0.4286 -1.2437
  177SOPE  C21020152   6.278   5.078   9.659 -0.4831 -0.6852  0.5191
  177SOPE  H10120153   6.255   5.166   9.597 -1.6306 -1.5294 -0.3014
  177SOPE  C21120154   6.256   4.952   9.579 -0.9308  0.0189 -0.0622
  177SOPE  H11R20155   6.148   4.933   9.559 -1.0612 -1.2255  1.5579
  177SOPE  H11S20156   6.294   4.864   9.635  0.4150  0.0770 -0.8574
  177SOPE  C21220157   6.342   4.950   9.450 -0.2929 -0.0184 -0.0844
  177SOPE  H12R20158   6.335   4.856   9.391 -0.1006  0.6274 -1.1631
  177SOPE  H12S20159   6.447   4.952   9.485 -0.5050 -1.6278  0.7648
  177SOPE  C21320160   6.314   5.062   9.350 -1.5965  0.8069 -0.0676
  177SOPE  H13R20161   6.361   5.158   9.377 -2.1989  1.0778  0.0339
  177SOPE  H13S20162   6.204   5.080   9.356 -2.5241 -3.9471  2.5283
  177SOPE  C21420163   6.358   5.030   9.206  0.7533  0.2574 -0.0304
  177SOPE  H14R20164   6.312   4.935   9.170  3.2733  0.0627 -3.1685
  177SOPE  H14S20165   6.468   5.016   9.211  0.5323 -1.8267 -0.1729
  177SOPE  C21520166   6.310   5.137   9.113  0.6583 -0.1078 -0.0835
  177SOPE  H15R20167   6.299   5.235   9.163 -0.9944 -1.1140  1.6413
  177SOPE  H15S20168   6.206   5.115   9.081 -0.1160  0.8082  1.7301
  177SOPE  C21620169   6.407   5.159   8.993  0.0044 -0.7410  0.1635
  177SOPE  H16R20170   6.458   5.064   8.966  1.2713  0.0383 -0.2534
  177SOPE  H16S20171   6.480   5.232   9.033 -2.0084  3.0436 -2.4321
  177SOPE  C21720172   6.345   5.229   8.868  0.4953  0.0893 -0.3945
  177SOPE  H17R20173   6.274   5.304   8.909  0.4411  0.6596 -1.5030
  177SOPE  H17S20174   6.279   5.150   8.826 -0.1189 -0.0070  0.7090
  177SOPE  C21820175   6.432   5.301   8.763 -0.0776  0.6248 -0.3152
  177SOPE  H18R20176   6.477   5.220   8.702  1.1249 -0.6124  2.0854
  177SOPE  H18S20177   6.510   5.350   8.823 -1.5187  0.2984  1.9428
  177SOPE  H18T20178   6.378   5.375   8.701  0.0787 -0.8495 -2.3319
  177SOPE   C3320179   6.599   4.579  10.076  0.3481  0.3173  1.4352
  177SOPE   H3X20180   6.488   4.572  10.083  0.3362  0.2183  1.1497
  177SOPE   H3Y20181   6.635   4.475  10.060 -0.5389  0.1496  0.3815
  177SOPE   C3420182   6.622   4.656   9.941 -0.1882  0.2770 -0.3871
  177SOPE   H4X20183   6.732   4.663   9.934 -0.1883  0.4527 -0.2280
  177SOPE   H4Y20184   6.588   4.759   9.964  0.8982  0.3944  0.8169
  177SOPE   C3520185   6.564   4.597   9.808 -0.1947 -0.5524 -0.1990
  177SOPE   H5X20186   6.454   4.584   9.819 -0.0608 -0.4809  1.5382
  177SOPE   H5Y20187   6.596   4.494   9.784 -0.8874 -0.3774 -2.0210
  177SOPE   C3620188   6.605   4.684   9.690  0.3328  0.5089 -0.3196
  177SOPE   H6X20189   6.709   4.722   9.706  0.0565  0.4894  1.8689
  177SOPE   H6Y20190   6.543   4.775   9.678  1.2374  1.4066  1.3656
  177SOPE   C3720191   6.582   4.601   9.564  0.3530 -0.0238 -0.7083
  177SOPE   H7X20192   6.475   4.575   9.551  0.1654  1.3254 -2.1505
  177SOPE   H7Y20193   6.643   4.509   9.578 -1.0985 -0.7407  1.4441
  177SOPE   C3820194   6.625   4.679   9.433  0.7410  0.5390  0.5948
  177SOPE   H8X20195   6.735   4.688   9.447  0.4500  3.2099  1.8499
  177SOPE   H8Y20196   6.574   4.777   9.436  0.4954  0.4459 -0.3822
  177SOPE   C3920197   6.596   4.611   9.298  0.4665  0.1218  0.0873
  177SOPE   H9X20198   6.601   4.501   9.311 -0.7351 -0.0293 -0.5633
  177SOPE   H9Y20199   6.666   4.640   9.217  2.3204 -0.2707  1.4894
  177SOPE  C31020200   6.448   4.632   9.251  0.9318 -0.1442 -0.1111
  177SOPE  H10X20201   6.433   4.731   9.205  2.3213 -0.0430 -0.3981
  177SOPE  H10Y20202   6.388   4.632   9.344 -2.2196  0.2350 -2.0033
  177SOPE  C31120203   6.406   4.525   9.150 -0.8610  0.1150 -0.0973
  177SOPE  H11X20204   6.298   4.543   9.130 -0.6551  1.0097 -0.4629
  177SOPE  H11Y20205   6.422   4.422   9.189 -0.5053 -0.2850 -1.2371
  177SOPE  C31220206   6.475   4.517   9.015 -0.1480 -0.7130  0.2057
  177SOPE  H12X20207   6.417   4.441   8.959  0.9364  0.2040 -2.3449
  177SOPE  H12Y20208   6.580   4.480   9.014 -0.4508 -1.6076 -0.5655
  177SOPE  C31320209   6.461   4.653   8.935 -0.3878  0.4576 -0.5988
  177SOPE  H13X20210   6.519   4.739   8.975 -0.1118 -0.2301  0.5495
  177SOPE  H13Y20211   6.357   4.690   8.944 -0.5409  0.2016 -1.2687
  177SOPE  C31420212   6.500   4.635   8.782  0.2028  0.7633  0.1796
  177SOPE  H14X20213   6.491   4.738   8.741 -0.4166  0.1656 -1.2376
  177SOPE  H14Y20214   6.421   4.572   8.735  0.8916  0.2835 -0.3483
  177SOPE  C31520215   6.628   4.569   8.748 -0.0851  0.9154  0.2613
  177SOPE  H15X20216   6.622   4.459   8.750  0.7308  0.8545 -0.0176
  177SOPE  H15Y20217   6.701   4.596   8.828  1.0692  0.1022 -0.4809
  177SOPE  C31620218   6.681   4.623   8.618 -0.3161 -0.2206  0.4481
  177SOPE  H16X20219   6.716   4.728   8.623  1.6285 -0.8578  1.0749
  177SOPE  H16Y20220   6.598   4.617   8.544  1.4796 -0.7223 -1.6451
  177SOPE  C31720221   6.800   4.537   8.570 -0.7926  0.5765 -0.2798
  177SOPE  H17X20222   6.780   4.428   8.572 -0.2793  0.4875  0.5041
  177SOPE  H17Y20223   6.893   4.565   8.625 -1.7967  0.6310  1.4865
  177SOPE  C31820224   6.817   4.582   8.423 -0.1505  0.5475 -0.8537
  177SOPE  H18X20225   6.819   4.694   8.424  0.8764  0.5398  0.4329
  177SOPE  H18Y20226   6.724   4.547   8.373 -0.5989  0.5675 -0.0488
  177SOPE  H18Z20227   6.907   4.540   8.373 -0.6973  1.2117 -2.4634
  178SOPE     N20228   2.200   1.861  10.685 -0.5050 -0.0672  0.1193
  178SOPE   HN120229   2.223   1.948  10.737 -1.3258 -1.6142  3.3093
  178SOPE   HN220230   2.096   1.858  10.681 -0.5170 -0.1927  0.5002
  178SOPE   HN320231   2.222   1.774  10.738 -0.3731 -0.4055 -0.4795
  178SOPE   C1220232   2.258   1.846  10.549  0.0636 -0.1944 -0.4562
  178SOPE  H12A20233   2.192   1.775  10.494  0.4523 -1.2619  0.4236
  178SOPE  H12B20234   2.358   1.798  10.547  2.5524  4.4428 -0.6093
  178SOPE   C1120235   2.254   1.996  10.487 -0.0651 -0.2194 -0.0344
  178SOPE  H11A20236   2.152   2.039  10.486  0.7050  1.7141  0.3051
  178SOPE  H11B20237   2.281   1.986  10.380 -0.9450 -1.6404 -0.1602
  178SOPE     P20238   2.492   2.112  10.520  0.2800 -0.2573  0.0380
  178SOPE   O1320239   2.574   1.988  10.529 -0.4788 -0.5636  0.1732
  178SOPE   O1420240   2.527   2.230  10.610 -0.2716  0.1358 -0.4330
  178SOPE   O1220241   2.340   2.092  10.553 -0.1578 -0.1478 -0.3683
  178SOPE   O1120242   2.489   2.158  10.366 -0.2559  0.2195 -0.9029
  178SOPE    C120243   2.589   2.247  10.322 -0.6664 -0.3785 -0.6177
  178SOPE    HA20244   2.663   2.279  10.400 -0.5641 -1.2055 -0.3646
  178SOPE    HB20245   2.542   2.338  10.279  2.2798  2.1489  0.9973
  178SOPE    C220246   2.682   2.182  10.212  0.3232 -0.6100 -0.3963
  178SOPE    HS20247   2.746   2.264  10.172  0.2162  1.0483  2.5414
  178SOPE   O2120248   2.603   2.136  10.103 -0.7193 -0.2326  0.3797
  178SOPE   C2120249   2.558   2.231  10.020  0.8884  0.2412 -0.1310
  178SOPE   O2220250   2.568   2.352  10.035  0.0675  0.5912  0.8376
  178SOPE   C2220251   2.473   2.164   9.912 -0.3123 -0.1366  0.0302
  178SOPE   H2R20252   2.379   2.143   9.967  0.4039 -0.7032  1.0816
  178SOPE   H2S20253   2.510   2.068   9.869  1.5951  1.1891 -1.4957
  178SOPE    C320254   2.769   2.072  10.275 -0.4244  0.0600 -0.0014
  178SOPE    HX20255   2.692   2.000  10.310  0.4460  0.3566  2.7320
  178SOPE    HY20256   2.822   2.099  10.369 -0.0305  1.0439 -0.4882
  178SOPE   O3120257   2.840   2.010  10.168  0.4456  0.0651  0.2835
  178SOPE   C3120258   2.953   2.051  10.125 -0.1919 -0.4310 -0.7345
  178SOPE   O3220259   3.018   2.146  10.170 -0.1403 -0.5113 -0.3352
  178SOPE   C3220260   3.003   1.963  10.012 -0.2243  0.4104 -0.1394
  178SOPE   H2X20261   3.041   1.869  10.058 -1.7435 -0.1070  0.1410
  178SOPE   H2Y20262   3.083   2.014   9.955  0.5078  0.0569  0.5573
  178SOPE   C2320263   2.433   2.252   9.792 -0.6790  0.7062 -0.1670
  178SOPE   H3R20264   2.398   2.354   9.821  1.1132  0.9831  1.2355
  178SOPE   H3S20265   2.353   2.191   9.745 -1.3487  0.1694  1.5883
  178SOPE   C2420266   2.551   2.253   9.689  0.5898 -0.5722 -0.2588
  178SOPE   H4R20267   2.629   2.315   9.739  1.5998 -0.6668 -1.6726
  178SOPE   H4S20268   2.578   2.148   9.667 -0.3269 -1.1030  0.9939
  178SOPE   C2520269   2.498   2.331   9.563 -0.1124 -1.0695 -0.0205
  178SOPE   H5R20270   2.409   2.273   9.530 -1.0299  0.4229 -0.2763
  178SOPE   H5S20271   2.471   2.431   9.604  0.6918 -1.2381  0.9351
  178SOPE   C2620272   2.600   2.345   9.456  0.6111 -0.6589  0.9100
  178SOPE   H6R20273   2.687   2.401   9.496  0.7872 -1.1216  1.1881
  178SOPE   H6S20274   2.629   2.242   9.424  0.1136 -0.5388  0.0398
  178SOPE   C2720275   2.557   2.420   9.324 -0.0895  0.1729  1.0208
  178SOPE   H7R20276   2.460   2.380   9.288  0.4040  0.1197 -0.2996
  178SOPE   H7S20277   2.540   2.528   9.344  0.3162  0.7605 -1.4775
  178SOPE   C2820278   2.660   2.401   9.203 -0.0252  0.7700  0.2744
  178SOPE   H8R20279   2.611   2.447   9.115 -1.0675  1.2587  1.0893
  178SOPE   H8S20280   2.755   2.448   9.237 -0.5707  1.9092  0.2567
  178SOPE   C2920281   2.688   2.258   9.158  0.2980 -0.2943 -0.2979
  178SOPE   H9120282   2.638   2.190   9.228 -0.6787  0.4877 -0.2076
  178SOPE  C21020283   2.765   2.227   9.048  0.4583 -0.2992 -0.3529
  178SOPE  H10120284   2.789   2.121   9.034 -0.2318 -0.9236  2.5104
  178SOPE  C21120285   2.834   2.324   8.957 -0.5529  0.5811 -0.7739
  178SOPE  H11R20286   2.799   2.427   8.975 -2.0294 -0.0159 -0.0588
  178SOPE  H11S20287   2.821   2.298   8.849 -0.7452  0.7649 -0.7943
  178SOPE  C21220288   2.985   2.345   8.984 -0.3139 -0.8875  1.2120
  178SOPE  H12R20289   3.019   2.422   8.911 -2.9382  0.6672  1.4959
  178SOPE  H12S20290   3.039   2.249   8.966  0.5924 -0.2948  0.6593
  178SOPE  C21320291   3.022   2.392   9.127 -0.0830  0.6061 -0.4508
  178SOPE  H13R20292   2.999   2.306   9.194  0.2851  0.4970 -0.4661
  178SOPE  H13S20293   2.973   2.485   9.163 -1.5250 -0.6367  0.9658
  178SOPE  C21420294   3.174   2.428   9.125 -0.0080 -0.2477 -0.2554
  178SOPE  H14R20295   3.198   2.503   9.047  1.0237  1.6508  1.7763
  178SOPE  H14S20296   3.234   2.336   9.108  0.0848  0.0976 -1.9925
  178SOPE  C21520297   3.223   2.487   9.254  0.5902 -0.1231 -0.6571
  178SOPE  H15R20298   3.168   2.582   9.273  0.6853 -0.5793  2.4255
  178SOPE  H15S20299   3.328   2.519   9.239 -0.2992  1.8110 -3.8802
  178SOPE  C21620300   3.207   2.393   9.374  0.1063 -0.1461 -0.3213
  178SOPE  H16R20301   3.269   2.304   9.351  1.4841  0.6058  0.3657
  178SOPE  H16S20302   3.100   2.365   9.374 -0.3632  1.5275  1.0125
  178SOPE  C21720303   3.251   2.462   9.504 -0.6650 -0.0539 -0.4848
  178SOPE  H17R20304   3.350   2.513   9.494 -0.8215  0.2074 -0.7089
  178SOPE  H17S20305   3.268   2.378   9.575 -1.0605 -0.5094 -0.9205
  178SOPE  C21820306   3.138   2.548   9.567 -0.0337 -0.0085  0.2587
  178SOPE  H18R20307   3.090   2.625   9.503 -0.8671 -1.3046 -0.7295
  178SOPE  H18S20308   3.179   2.600   9.656  1.9250 -2.3704  0.8497
  178SOPE  H18T20309   3.054   2.480   9.593 -1.0967  1.2207  0.1260
  178SOPE   C3320310   2.884   1.929   9.915 -0.8520  0.5355  0.3110
  178SOPE   H3X20311   2.796   1.901   9.976 -1.0277 -0.8411 -0.5302
  178SOPE   H3Y20312   2.918   1.839   9.859  0.4295 -0.4319  2.4815
  178SOPE   C3420313   2.834   2.047   9.828 -0.3579 -0.1013 -0.2078
  178SOPE   H4X20314   2.806   2.140   9.882 -1.3117  0.1723 -1.1363
  178SOPE   H4Y20315   2.744   2.006   9.778 -0.2011 -2.2943  1.1843
  178SOPE   C3520316   2.937   2.091   9.720  0.2762  0.4097 -0.1306
  178SOPE   H5X20317   3.037   2.048   9.739  0.2800  0.8504  0.9170
  178SOPE   H5Y20318   2.962   2.200   9.719 -0.1514  0.5147  0.0870
  178SOPE   C3620319   2.906   2.050   9.573  0.4321 -0.0764 -0.3911
  178SOPE   H6X20320   2.824   2.119   9.542  0.3656  0.2692  0.5256
  178SOPE   H6Y20321   2.859   1.949   9.575  0.7999 -0.2313  0.6984
  178SOPE   C3720322   3.018   2.035   9.472 -0.1401 -0.7552 -0.2851
  178SOPE   H7X20323   3.073   1.945   9.507 -1.9399 -0.7623  2.8232
  178SOPE   H7Y20324   3.082   2.125   9.483 -1.2524  0.1007 -0.6184
  178SOPE   C3820325   2.964   2.013   9.329  0.2866 -0.1229  0.0494
  178SOPE   H8X20326   2.899   2.094   9.288 -1.9284 -2.3489 -1.1564
  178SOPE   H8Y20327   2.904   1.920   9.326 -0.3132  0.2449  0.2266
  178SOPE   C3920328   3.078   1.999   9.232 -0.2348  1.1387  0.7633
  178SOPE   H9X20329   3.165   1.954   9.285 -1.7326 -1.5630  1.0860
  178SOPE   H9Y20330   3.111   2.101   9.203  1.0225  0.0892 -1.8083
  178SOPE  C31020331   3.047   1.906   9.109 -0.2051  0.4330  0.2438
  178SOPE  H10X20332   3.128   1.901   9.033  0.6258 -1.6668  1.1576
  178SOPE  H10Y20333   2.955   1.950   9.067 -0.2937  1.3933  1.3797
  178SOPE  C31120334   3.023   1.761   9.146  0.2898  0.2602  0.5112
  178SOPE  H11X20335   2.940   1.759   9.220  0.5957  0.1121  0.8524
  178SOPE  H11Y20336   3.116   1.720   9.190  0.9109  1.0683 -0.0182
  178SOPE  C31220337   2.989   1.675   9.022 -0.3620  0.7581  0.4543
  178SOPE  H12X20338   2.903   1.719   8.966  2.1735  1.8340 -2.9143
  178SOPE  H12Y20339   2.962   1.570   9.048 -2.1556  1.1074  0.1724
  178SOPE  C31320340   3.105   1.657   8.916 -0.2920  0.1725  0.0468
  178SOPE  H13X20341   3.199   1.622   8.963 -0.7221  2.8959  3.3211
  178SOPE  H13Y20342   3.122   1.756   8.870  1.3918  0.2062  0.6984
  178SOPE  C31420343   3.067   1.561   8.804  0.2876 -0.2400  0.5805
  178SOPE  H14X20344   2.995   1.610   8.735  0.0937 -0.9186  0.2915
  178SOPE  H14Y20345   2.993   1.484   8.835  0.7739  0.0181  2.4629
  178SOPE  C31520346   3.182   1.498   8.724  0.3852  0.1524 -0.4358
  178SOPE  H15X20347   3.217   1.418   8.793 -0.5820  0.7000  0.7110
  178SOPE  H15Y20348   3.260   1.574   8.701  2.0326 -1.7770 -1.6133
  178SOPE  C31620349   3.148   1.431   8.586  1.0772  0.4194  0.2212
  178SOPE  H16X20350   3.110   1.517   8.528 -0.6066  0.8126  1.8025
  178SOPE  H16Y20351   3.062   1.366   8.615 -0.0391  1.2196 -1.1650
  178SOPE  C31720352   3.252   1.344   8.516  0.1427  0.4638 -0.3002
  178SOPE  H17X20353   3.338   1.400   8.473  1.2509 -1.8437 -1.2590
  178SOPE  H17Y20354   3.208   1.280   8.437  3.9110 -1.2613 -1.1933
  178SOPE  C31820355   3.314   1.240   8.616 -0.4387 -0.2123  1.1599
  178SOPE  H18X20356   3.387   1.291   8.683  0.2733  1.6966 -0.9805
  178SOPE  H18Y20357   3.368   1.172   8.547 -3.8596 -1.9671  0.0002
  178SOPE  H18Z20358   3.238   1.181   8.672 -0.9647 -0.3526  0.3178
  179SOPE     N20359   1.243   5.659   6.597  0.7278  0.3544 -0.2303
  179SOPE   HN120360   1.325   5.627   6.541  0.9984  0.2448  0.2268
  179SOPE   HN220361   1.192   5.733   6.545  1.2096  0.3827 -0.6765
  179SOPE   HN320362   1.286   5.697   6.684  0.2773 -0.1588  0.2169
  179SOPE   C1220363   1.159   5.541   6.637 -0.6439 -0.4222  0.5144
  179SOPE  H12A20364   1.069   5.551   6.571  1.4280  2.1347 -2.2421
  179SOPE  H12B20365   1.142   5.558   6.746  1.9952 -0.6249  1.0093
  179SOPE   C1120366   1.249   5.412   6.638 -0.0452 -0.2650 -0.4737
  179SOPE  H11A20367   1.188   5.327   6.676  2.8639 -1.6811  1.4030
  179SOPE  H11B20368   1.336   5.421   6.707  0.1874  1.5874 -0.9570
  179SOPE     P20369   1.333   5.248   6.448  0.0719 -0.4962 -0.3911
  179SOPE   O1320370   1.382   5.271   6.306  0.1464  0.1098 -0.5097
  179SOPE   O1420371   1.230   5.145   6.477 -0.2927 -0.0919  0.4032
  179SOPE   O1220372   1.294   5.385   6.505 -0.1328  0.8548  0.0098
  179SOPE   O1120373   1.458   5.216   6.539  0.2299 -0.3756  0.2371
  179SOPE    C120374   1.566   5.307   6.567 -0.1028  0.6843 -0.3119
  179SOPE    HA20375   1.545   5.416   6.561  0.5980  0.7441 -2.6634
  179SOPE    HB20376   1.654   5.292   6.501 -0.0532  3.1999 -0.9152
  179SOPE    C220377   1.621   5.271   6.713  0.1446  0.1488  0.7626
  179SOPE    HS20378   1.675   5.175   6.695 -0.7080 -0.1398 -0.3651
  179SOPE   O2120379   1.516   5.259   6.809 -0.0118  0.5950 -0.0825
  179SOPE   C2120380   1.538   5.176   6.906 -0.3334  0.5627 -0.8250
  179SOPE   O2220381   1.627   5.090   6.919 -0.2475 -0.4067  0.2792
  179SOPE   C2220382   1.420   5.198   7.008 -0.2824  0.8725 -0.1673
  179SOPE   H2R20383   1.326   5.168   6.957 -0.1578  1.4719 -0.7578
  179SOPE   H2S20384   1.409   5.307   7.022 -2.3968  0.9135 -1.6285
  179SOPE    C320385   1.722   5.385   6.756  0.8815 -0.6361  0.7321
  179SOPE    HX20386   1.653   5.471   6.770  0.5360 -1.0761  1.9018
  179SOPE    HY20387   1.790   5.411   6.673  1.0681 -1.2672  0.6787
  179SOPE   O3120388   1.779   5.365   6.883  0.3975  0.1592 -0.7562
  179SOPE   C3120389   1.907   5.335   6.876 -0.1937  0.6244  0.1128
  179SOPE   O3220390   1.983   5.337   6.780  0.4500 -0.3728  0.4596
  179SOPE   C3220391   1.948   5.310   7.018 -0.2806 -0.7180  0.4003
  179SOPE   H2X20392   2.059   5.303   7.010 -0.1950 -0.9213  1.5675
  179SOPE   H2Y20393   1.904   5.211   7.045 -0.6016 -0.6368  0.1735
  179SOPE   C2320394   1.444   5.108   7.140 -0.1040 -0.3312 -0.0727
  179SOPE   H3R20395   1.481   5.009   7.105  0.6424 -0.5359  1.2342
  179SOPE   H3S20396   1.342   5.093   7.181 -0.1576  2.6995  1.0964
  179SOPE   C2420397   1.534   5.176   7.240 -0.3406 -0.6919 -0.6138
  179SOPE   H4R20398   1.596   5.106   7.301 -1.1293  0.0955  1.1770
  179SOPE   H4S20399   1.610   5.243   7.195  1.0403 -1.0067  1.1436
  179SOPE   C2520400   1.456   5.262   7.347 -0.1718 -0.4053  0.1878
  179SOPE   H5R20401   1.409   5.355   7.309  0.0652 -0.9408 -1.5034
  179SOPE   H5S20402   1.369   5.201   7.379 -0.9975 -0.8126 -2.5153
  179SOPE   C2620403   1.539   5.296   7.472 -0.4821  0.0036 -0.4727
  179SOPE   H6R20404   1.646   5.319   7.449 -0.3771 -0.8660 -0.8655
  179SOPE   H6S20405   1.499   5.391   7.513  0.2222  0.9364 -1.8496
  179SOPE   C2720406   1.528   5.199   7.593 -0.2534 -0.0495  0.1359
  179SOPE   H7R20407   1.424   5.210   7.631 -0.0021  1.1498  0.5141
  179SOPE   H7S20408   1.553   5.099   7.551  3.4735  0.5270  0.5944
  179SOPE   C2820409   1.619   5.249   7.714  1.0974 -0.3194  0.0267
  179SOPE   H8R20410   1.727   5.223   7.717  0.6960 -2.0809  0.8871
  179SOPE   H8S20411   1.619   5.358   7.696  1.2124  0.0398  1.9780
  179SOPE   C2920412   1.558   5.207   7.851 -0.3697 -0.2402 -0.0060
  179SOPE   H9120413   1.454   5.241   7.866  0.1971  1.8841 -0.4927
  179SOPE  C21020414   1.620   5.123   7.935  0.0602  0.2132 -0.0723
  179SOPE  H10120415   1.573   5.115   8.034  1.0944 -0.9586  0.3454
  179SOPE  C21120416   1.755   5.059   7.909 -0.3507  0.0164 -0.3177
  179SOPE  H11R20417   1.758   5.006   7.811  0.0262  1.3706 -1.0654
  179SOPE  H11S20418   1.755   4.981   7.987 -2.6201  1.7951  1.5950
  179SOPE  C21220419   1.887   5.141   7.922  0.2245 -0.4525  0.3642
  179SOPE  H12R20420   1.856   5.214   8.001  1.9979  0.1427  0.5545
  179SOPE  H12S20421   1.910   5.198   7.830  0.9324  1.3853  1.5976
  179SOPE  C21320422   2.006   5.066   7.965 -0.4075 -0.0608  0.3246
  179SOPE  H13R20423   2.013   4.988   7.886  0.2052 -0.0414  0.3576
  179SOPE  H13S20424   1.975   5.028   8.065  1.7828 -0.0127  1.0632
  179SOPE  C21420425   2.134   5.153   7.971  0.2892  0.7580 -1.3977
  179SOPE  H14R20426   2.121   5.217   8.060  1.5655  2.3248 -2.2885
  179SOPE  H14S20427   2.131   5.222   7.884 -0.8490  3.5042  0.7014
  179SOPE  C21520428   2.261   5.071   7.982 -0.4456  0.3718 -0.7190
  179SOPE  H15R20429   2.235   4.988   8.050  0.4723  0.8504  0.2551
  179SOPE  H15S20430   2.338   5.132   8.036 -0.5548 -1.4175  1.5972
  179SOPE  C21620431   2.318   5.004   7.856 -0.2517  0.3814  0.3388
  179SOPE  H16R20432   2.347   5.083   7.783 -0.4245  0.3294  0.2128
  179SOPE  H16S20433   2.239   4.955   7.796  1.0017  0.3189 -1.3671
  179SOPE  C21720434   2.433   4.897   7.863  0.6091 -0.8873  0.3284
  179SOPE  H17R20435   2.511   4.943   7.927  1.2471 -1.5981  0.0709
  179SOPE  H17S20436   2.479   4.887   7.762  1.9457 -0.8453  0.9230
  179SOPE  C21820437   2.393   4.765   7.926  0.5242 -0.7823  0.2834
  179SOPE  H18R20438   2.294   4.736   7.885  0.3964 -0.8289  0.6279
  179SOPE  H18S20439   2.396   4.770   8.037  0.2976 -0.1111  0.2644
  179SOPE  H18T20440   2.464   4.687   7.892  0.4344 -0.2461 -1.2147
  179SOPE   C3320441   1.905   5.416   7.120 -0.8771  0.3202 -0.1340
  179SOPE   H3X20442   1.798   5.442   7.117 -0.9621  0.1519  0.9142
  179SOPE   H3Y20443   1.961   5.511   7.106  1.3138 -1.2077 -2.8551
  179SOPE   C3420444   1.931   5.362   7.266  0.2383 -0.2555  0.4450
  179SOPE   H4X20445   2.029   5.310   7.273  0.0579 -1.3190 -2.8800
  179SOPE   H4Y20446   1.851   5.287   7.277 -2.7458  2.7851  1.0853
  179SOPE   C3520447   1.924   5.470   7.376 -0.0174 -1.3632  0.2730
  179SOPE   H5X20448   1.831   5.458   7.434  0.1861 -3.9421  0.1807
  179SOPE   H5Y20449   1.930   5.566   7.320  0.9424 -1.5894 -0.0406
  179SOPE   C3620450   2.029   5.458   7.479 -0.4287 -0.1608 -0.6891
  179SOPE   H6X20451   2.130   5.447   7.434 -0.7264 -1.1145 -1.1597
  179SOPE   H6Y20452   2.016   5.358   7.527 -1.0277 -0.0113 -0.5346
  179SOPE   C3720453   2.024   5.571   7.582 -0.0820  0.1416 -0.2746
  179SOPE   H7X20454   1.925   5.619   7.591 -1.0359 -1.4831 -1.6082
  179SOPE   H7Y20455   2.090   5.654   7.549  2.2043 -2.4576 -2.8393
  179SOPE   C3820456   2.064   5.509   7.712  0.2729  0.0731  0.0384
  179SOPE   H8X20457   2.166   5.472   7.691 -0.6054 -3.3344  1.1119
  179SOPE   H8Y20458   2.001   5.422   7.741  0.5906 -0.7175 -1.5613
  179SOPE   C3920459   2.070   5.620   7.822  0.1991  0.1986  0.6307
  179SOPE   H9X20460   1.971   5.666   7.844  0.1457 -0.2338  1.3212
  179SOPE   H9Y20461   2.136   5.699   7.781 -1.2608  1.0936 -0.1123
  179SOPE  C31020462   2.132   5.574   7.954  0.2151 -0.0457 -0.9859
  179SOPE  H10X20463   2.173   5.667   7.999  2.9551 -1.2362 -0.7880
  179SOPE  H10Y20464   2.224   5.512   7.953 -0.1868 -1.1345  4.3420
  179SOPE  C31120465   2.032   5.517   8.055  0.8745 -0.1467  0.6898
  179SOPE  H11X20466   1.974   5.424   8.039 -1.8980  1.2100  2.1584
  179SOPE  H11Y20467   1.953   5.593   8.074  1.6467  0.4249  1.7363
  179SOPE  C31220468   2.095   5.505   8.192 -0.0595 -0.5716  0.4298
  179SOPE  H12X20469   2.203   5.485   8.179 -0.2892 -1.0955 -0.8107
  179SOPE  H12Y20470   2.054   5.417   8.246 -0.0827  0.0573  1.4620
  179SOPE  C31320471   2.069   5.630   8.279  0.0511  0.5085 -0.4208
  179SOPE  H13X20472   1.960   5.653   8.280 -0.3553 -1.2216  0.1749
  179SOPE  H13Y20473   2.123   5.711   8.226  1.7900  0.5086  1.2520
  179SOPE  C31420474   2.130   5.600   8.417  0.0733  0.9620  0.5309
  179SOPE  H14X20475   2.233   5.560   8.404 -0.0444  1.1552 -1.2916
  179SOPE  H14Y20476   2.083   5.511   8.465  0.0062  0.6086 -0.1660
  179SOPE  C31520477   2.132   5.707   8.519 -0.2000 -0.3998  0.6469
  179SOPE  H15X20478   2.156   5.806   8.477  0.2561 -0.1370  1.5154
  179SOPE  H15Y20479   2.221   5.685   8.581  0.0493 -0.9467  0.1157
  179SOPE  C31620480   2.014   5.722   8.606  0.3785  0.5570 -0.0521
  179SOPE  H16X20481   1.987   5.620   8.641  0.7670  0.6023  0.3855
  179SOPE  H16Y20482   1.927   5.753   8.544 -1.4812  3.5766  3.6644
  179SOPE  C31720483   2.017   5.826   8.717  0.6841  0.3256  0.0992
  179SOPE  H17X20484   2.026   5.774   8.815 -1.6912 -0.3348  0.0344
  179SOPE  H17Y20485   1.921   5.884   8.716  1.8095  2.2816 -0.4400
  179SOPE  C31820486   2.120   5.931   8.703 -0.1043  0.2690 -0.2193
  179SOPE  H18X20487   2.106   5.993   8.611 -0.0600  0.5720 -0.0232
  179SOPE  H18Y20488   2.219   5.883   8.708  0.6213  1.8043  1.1240
  179SOPE  H18Z20489   2.124   6.013   8.778  0.5590  0.5017 -0.5081
  180SOPE     N20490   2.075   5.282   6.236 -0.7271 -0.5467  0.0811
  180SOPE   HN120491   2.080   5.386   6.238 -0.9028 -0.5020 -1.1092
  180SOPE   HN220492   2.160   5.250   6.185 -0.1455  2.1037 -0.8296
  180SOPE   HN320493   1.982   5.251   6.201 -0.0888 -1.1167 -1.1668
  180SOPE   C1220494   2.073   5.234   6.377  0.4027 -0.5539 -0.2730
  180SOPE  H12A20495   2.156   5.291   6.425 -0.4247  0.8957 -0.5108
  180SOPE  H12B20496   2.107   5.128   6.379 -0.2250 -0.7611 -0.4928
  180SOPE   C1120497   1.942   5.245   6.453 -0.6263  0.3863 -0.2614
  180SOPE  H11A20498   1.926   5.348   6.493  2.1712  1.6746 -2.1433
  180SOPE  H11B20499   1.952   5.180   6.543  0.3235  1.1335  0.1875
  180SOPE     P20500   1.806   5.050   6.346 -0.0345  0.4814  0.1282
  180SOPE   O1320501   1.939   5.000   6.297  0.3768 -0.2035  0.5471
  180SOPE   O1420502   1.693   5.027   6.260 -0.0305  0.1356  0.5932
  180SOPE   O1220503   1.828   5.200   6.378 -0.4029 -0.1218  0.3775
  180SOPE   O1120504   1.784   4.993   6.496  0.8222 -0.0114  0.9678
  180SOPE    C120505   1.864   4.891   6.555 -0.7037  0.0553 -0.7085
  180SOPE    HA20506   1.849   4.902   6.665  0.1483  0.0852 -0.5908
  180SOPE    HB20507   1.972   4.898   6.530 -0.5390  1.0708  0.1744
  180SOPE    C220508   1.808   4.747   6.513  0.2546  0.0281  0.7097
  180SOPE    HS20509   1.766   4.751   6.410 -2.0663 -2.4889  1.4452
  180SOPE   O2120510   1.704   4.705   6.603  0.6057 -0.4211  0.1539
  180SOPE   C2120511   1.612   4.619   6.561  0.6138 -0.7170 -0.4909
  180SOPE   O2220512   1.594   4.577   6.445 -0.1511  0.1222 -0.3827
  180SOPE   C2220513   1.511   4.589   6.675  0.2454 -0.8033  0.3852
  180SOPE   H2R20514   1.416   4.562   6.625  1.3378  0.0675 -2.3531
  180SOPE   H2S20515   1.501   4.684   6.731  0.0473 -0.0409 -0.9031
  180SOPE    C320516   1.925   4.641   6.508 -0.1380  0.0272  0.1757
  180SOPE    HX20517   1.999   4.669   6.430 -0.3298  2.2081  0.7131
  180SOPE    HY20518   1.876   4.546   6.477 -3.3605  1.6269 -0.0467
  180SOPE   O3120519   1.993   4.634   6.635  0.3282 -0.0298 -0.0089
  180SOPE   C3120520   2.088   4.538   6.633  0.8325 -0.3028  0.0019
  180SOPE   O3220521   2.130   4.481   6.533  0.2519  0.5111  0.5672
  180SOPE   C3220522   2.142   4.523   6.770  0.2279 -0.1539  0.1221
  180SOPE   H2X20523   2.208   4.611   6.784  1.5866 -1.0145 -0.5941
  180SOPE   H2Y20524   2.207   4.433   6.763  1.2542  0.4290  1.5835
  180SOPE   C2320525   1.569   4.481   6.776 -0.2853  0.1508 -0.2298
  180SOPE   H3R20526   1.663   4.525   6.817 -1.1566  2.8450 -0.9311
  180SOPE   H3S20527   1.602   4.388   6.725 -1.5754  0.3206 -1.4320
  180SOPE   C2420528   1.465   4.441   6.886 -0.2121  0.2552  0.2568
  180SOPE   H4R20529   1.373   4.396   6.844 -0.5457  0.3711  0.8567
  180SOPE   H4S20530   1.522   4.376   6.955 -2.7976 -1.6806  0.6967
  180SOPE   C2520531   1.405   4.557   6.965 -0.1129  0.0761 -0.0426
  180SOPE   H5R20532   1.492   4.614   7.003  1.2332 -1.5772 -0.5532
  180SOPE   H5S20533   1.347   4.619   6.893  0.1288 -0.6106 -0.8344
  180SOPE   C2620534   1.316   4.520   7.087  0.5986  0.2731  0.7202
  180SOPE   H6R20535   1.260   4.427   7.063 -0.6172  1.3403 -0.8166
  180SOPE   H6S20536   1.388   4.496   7.168  0.2223 -2.2428  0.4037
  180SOPE   C2720537   1.220   4.631   7.141  0.7887 -0.0891 -0.0783
  180SOPE   H7R20538   1.277   4.726   7.135 -1.7121  1.5115  0.1951
  180SOPE   H7S20539   1.141   4.642   7.064 -1.6798  1.4856  2.5079
  180SOPE   C2820540   1.164   4.593   7.274  0.1021 -0.0279  0.0360
  180SOPE   H8R20541   1.079   4.664   7.282  0.4157  0.1802  2.7821
  180SOPE   H8S20542   1.119   4.493   7.258  0.4354 -0.3852  1.1936
  180SOPE   C2920543   1.250   4.610   7.394  0.2357 -0.1958  0.1658
  180SOPE   H9120544   1.270   4.520   7.454  1.2643 -0.7304 -0.9435
  180SOPE  C21020545   1.276   4.729   7.445  0.3703 -0.0294 -0.3883
  180SOPE  H10120546   1.312   4.734   7.549  0.2823 -1.5232 -0.2696
  180SOPE  C21120547   1.246   4.871   7.384  0.0144 -0.3137 -0.3399
  180SOPE  H11R20548   1.199   4.862   7.283  0.3603 -0.6518 -0.4700
  180SOPE  H11S20549   1.341   4.929   7.386  3.1433 -4.9176  0.4972
  180SOPE  C21220550   1.144   4.942   7.473  0.2434 -0.0433 -0.1361
  180SOPE  H12R20551   1.068   4.862   7.489 -0.2155 -0.1472 -2.4447
  180SOPE  H12S20552   1.081   5.022   7.429 -1.6511 -1.8105 -0.8413
  180SOPE  C21320553   1.217   4.985   7.601  0.2614 -0.4324  0.6010
  180SOPE  H13R20554   1.243   5.092   7.586  0.2646 -0.5815 -0.5549
  180SOPE  H13S20555   1.316   4.939   7.624  1.1437  2.5366  3.5333
  180SOPE  C21420556   1.132   4.974   7.730  0.2741  0.4908 -0.1497
  180SOPE  H14R20557   1.073   4.880   7.741 -0.4197  0.9716  0.3200
  180SOPE  H14S20558   1.062   5.060   7.734 -3.7583 -2.5040  1.8658
  180SOPE  C21520559   1.222   4.973   7.846 -0.3187  0.4549  0.7215
  180SOPE  H15R20560   1.315   5.033   7.833  0.0967 -0.5285 -1.2045
  180SOPE  H15S20561   1.261   4.870   7.853 -0.9283 -0.0361 -1.9677
  180SOPE  C21620562   1.142   5.002   7.969 -0.4142  0.9906  0.3507
  180SOPE  H16R20563   1.050   4.940   7.959 -0.0035  0.4505 -0.1207
  180SOPE  H16S20564   1.108   5.108   7.974 -2.2881  0.4872 -0.8292
  180SOPE  C21720565   1.222   4.959   8.095  0.1116 -0.2739  0.2668
  180SOPE  H17R20566   1.320   5.010   8.088 -1.3272  2.9426  1.5754
  180SOPE  H17S20567   1.216   4.848   8.090  0.0724 -0.2477 -0.4997
  180SOPE  C21820568   1.160   5.000   8.225  0.2494  0.6211 -0.8215
  180SOPE  H18R20569   1.170   5.110   8.235 -2.6048  1.1118 -2.2625
  180SOPE  H18S20570   1.212   4.955   8.313  0.9034  1.1743 -0.9141
  180SOPE  H18T20571   1.053   4.974   8.234  0.5964 -0.2129  2.3846
  180SOPE   C3320572   2.037   4.498   6.885  0.1928  0.5184  0.0353
  180SOPE   H3X20573   1.957   4.576   6.890  0.7946  1.4998 -3.1520
  180SOPE   H3Y20574   2.100   4.526   6.972 -1.4184 -0.3919  1.5768
  180SOPE   C3420575   1.996   4.354   6.907  0.6984 -0.2194 -0.5785
  180SOPE   H4X20576   2.086   4.293   6.928  0.1954  0.0232  2.9718
  180SOPE   H4Y20577   1.935   4.318   6.822 -2.4376 -1.1460  1.8575
  180SOPE   C3520578   1.910   4.341   7.029 -0.1288  0.6948  0.2943
  180SOPE   H5X20579   1.887   4.232   7.036 -0.7420  0.5450 -2.7439
  180SOPE   H5Y20580   1.810   4.389   7.023 -0.5316  0.1356  1.9008
  180SOPE   C3620581   1.974   4.378   7.167 -0.5644  0.2992  0.2656
  180SOPE   H6X20582   1.987   4.488   7.174 -1.2971  0.4040  0.0837
  180SOPE   H6Y20583   2.070   4.325   7.187  0.4563  1.9497 -0.1247
  180SOPE   C3720584   1.883   4.329   7.277 -0.2174  0.0220  0.1339
  180SOPE   H7X20585   1.847   4.230   7.242  2.1358 -0.6699 -0.5307
  180SOPE   H7Y20586   1.795   4.396   7.278 -0.7253 -0.6073  2.2579
  180SOPE   C3820587   1.950   4.320   7.415  0.0273  0.0010  0.9005
  180SOPE   H8X20588   1.991   4.420   7.440 -1.3048  0.2858  2.0567
  180SOPE   H8Y20589   2.029   4.242   7.401 -1.3105 -1.0964 -1.1012
  180SOPE   C3920590   1.850   4.269   7.519  0.0297  0.3930  0.5193
  180SOPE   H9X20591   1.815   4.167   7.491 -0.1610  0.1069  1.7380
  180SOPE   H9Y20592   1.755   4.327   7.527 -0.2060 -0.1281  1.7177
  180SOPE  C31020593   1.910   4.263   7.652 -0.2835  0.6108 -0.1158
  180SOPE  H10X20594   1.999   4.198   7.652 -0.3930  0.4152  1.5364
  180SOPE  H10Y20595   1.834   4.216   7.718 -0.0269 -1.0522 -0.9426
  180SOPE  C31120596   1.949   4.399   7.712 -0.0652  0.1586  0.2834
  180SOPE  H11X20597   1.856   4.457   7.697 -0.7660 -0.4172  2.0744
  180SOPE  H11Y20598   2.034   4.437   7.652 -0.9724  2.0189  0.1229
  180SOPE  C31220599   2.000   4.401   7.859 -0.0461 -1.1350 -0.1353
  180SOPE  H12X20600   2.079   4.323   7.855  0.3767 -0.6688 -1.1778
  180SOPE  H12Y20601   1.918   4.366   7.926 -0.0406  0.7831  0.9382
  180SOPE  C31320602   2.060   4.534   7.894  0.9261  0.5575  0.7301
  180SOPE  H13X20603   2.126   4.562   7.810  0.1147 -0.3599 -0.2344
  180SOPE  H13Y20604   2.123   4.523   7.985 -0.4199 -0.7286  1.5523
  180SOPE  C31420605   1.956   4.641   7.916  1.0394 -0.4720 -0.2726
  180SOPE  H14X20606   1.870   4.637   7.847 -0.3573 -0.5460  1.3982
  180SOPE  H14Y20607   2.001   4.741   7.898  1.4916 -0.9556 -1.9964
  180SOPE  C31520608   1.898   4.653   8.055  0.6118 -0.1413  0.6130
  180SOPE  H15X20609   1.855   4.558   8.093  0.3839 -0.7393 -1.0496
  180SOPE  H15Y20610   1.815   4.726   8.065 -0.9639 -2.0228  2.0083
  180SOPE  C31620611   1.997   4.703   8.159  0.0439 -0.2659 -0.1287
  180SOPE  H16X20612   2.031   4.807   8.143 -3.1488  0.9949  0.4892
  180SOPE  H16Y20613   2.091   4.645   8.149  0.9909  0.4955  3.1410
  180SOPE  C31720614   1.935   4.716   8.293  0.4034 -0.7094  0.1641
  180SOPE  H17X20615   1.876   4.624   8.314 -1.5629  0.1296 -1.3347
  180SOPE  H17Y20616   1.865   4.802   8.295  0.8293 -0.3682  0.5237
  180SOPE  C31820617   2.030   4.762   8.412  0.1944  0.7977  0.0301
  180SOPE  H18X20618   2.118   4.825   8.388  0.3401 -0.0450 -1.8534
  180SOPE  H18Y20619   2.059   4.663   8.454  0.1474 -0.1245 -1.9832
  180SOPE  H18Z20620   1.967   4.818   8.483 -0.5157  1.0044 -0.7426
  181SOPE     N20621   0.876   3.786   5.948 -0.3207  0.3502  0.0631
  181SOPE   HN120622   0.801   3.856   5.929 -2.5692 -2.4120 -2.1231
  181SOPE   HN220623   0.828   3.700   5.982  1.1061  0.0952  1.5551
  181SOPE   HN320624   0.928   3.817   6.033 -1.4759  0.7175  0.6659
  181SOPE   C1220625   0.967   3.759   5.833  0.1209  0.2094 -0.3905
  181SOPE  H12A20626   1.042   3.840   5.816  0.6288 -0.0041  0.7736
  181SOPE  H12B20627   0.911   3.743   5.738 -1.1647  1.0276  0.1972
  181SOPE   C1120628   1.055   3.633   5.872  0.1149 -0.4141 -0.2489
  181SOPE  H11A20629   1.132   3.616   5.793 -0.9283  1.4530 -1.7309
  181SOPE  H11B20630   0.983   3.550   5.858 -0.1317  0.1638 -2.6784
  181SOPE     P20631   1.141   3.521   6.097  0.1073 -0.3004  0.3763
  181SOPE   O1320632   1.260   3.452   6.053  0.5365  0.5528 -0.5694
  181SOPE   O1420633   1.021   3.440   6.096  0.1119 -0.7048  0.2343
  181SOPE   O1220634   1.111   3.649   6.007  0.2492 -1.0070 -0.0949
  181SOPE   O1120635   1.168   3.585   6.242  0.6186  0.0561 -0.2874
  181SOPE    C120636   1.284   3.659   6.263  0.3794  0.2897 -0.1772
  181SOPE    HA20637   1.254   3.765   6.265 -1.7749 -0.2998  0.9755
  181SOPE    HB20638   1.371   3.632   6.198  1.2386  0.3676  0.9097
  181SOPE    C220639   1.338   3.633   6.412 -0.6262 -0.1727  0.6147
  181SOPE    HS20640   1.356   3.524   6.411 -1.6645 -0.3779 -1.4712
  181SOPE   O2120641   1.246   3.679   6.507 -0.4617  0.1935  0.9484
  181SOPE   C2120642   1.230   3.612   6.616  0.6265 -0.8578 -0.1415
  181SOPE   O2220643   1.258   3.496   6.642  0.0702 -0.0406 -0.2478
  181SOPE   C2220644   1.138   3.685   6.715 -0.4672  0.3408  0.0622
  181SOPE   H2R20645   1.029   3.671   6.701 -0.4453 -0.2281  0.4190
  181SOPE   H2S20646   1.155   3.795   6.703 -1.0665  0.4286  0.0086
  181SOPE    C320647   1.474   3.709   6.444  0.8551  0.0450  0.9046
  181SOPE    HX20648   1.456   3.818   6.441  2.2904  0.2856 -1.8472
  181SOPE    HY20649   1.543   3.691   6.359  0.6317  2.5817  0.0987
  181SOPE   O3120650   1.527   3.683   6.575 -0.7016  0.0982 -0.6038
  181SOPE   C3120651   1.640   3.607   6.581 -0.3330 -0.6751 -0.1203
  181SOPE   O3220652   1.703   3.568   6.487  0.3333  0.1825  0.4730
  181SOPE   C3220653   1.706   3.616   6.711  0.2925 -0.6860 -0.8576
  181SOPE   H2X20654   1.667   3.707   6.762 -0.8063 -1.9585  0.6653
  181SOPE   H2Y20655   1.817   3.624   6.707  0.4133 -0.7341  1.3939
  181SOPE   C2320656   1.188   3.656   6.860 -0.3333 -0.1676 -0.4549
  181SOPE   H3R20657   1.149   3.554   6.882 -2.7110  1.0198  1.2288
  181SOPE   H3S20658   1.130   3.722   6.928  0.6016 -0.9445  1.1435
  181SOPE   C2420659   1.337   3.684   6.895  0.8519  0.3970 -0.4559
  181SOPE   H4R20660   1.399   3.609   6.841 -1.9098 -1.7674 -0.8555
  181SOPE   H4S20661   1.356   3.787   6.859  0.7066  0.3266 -0.7423
  181SOPE   C2520662   1.363   3.674   7.046 -0.2806  0.1909 -0.1379
  181SOPE   H5R20663   1.474   3.679   7.053 -0.3110  0.6719 -0.0151
  181SOPE   H5S20664   1.323   3.764   7.096 -0.4053 -0.1667  0.4101
  181SOPE   C2620665   1.320   3.555   7.122 -0.6057  0.2325 -0.4177
  181SOPE   H6R20666   1.212   3.535   7.103 -0.8704 -3.8671  3.5354
  181SOPE   H6S20667   1.374   3.466   7.083 -1.0819 -0.4192  0.3752
  181SOPE   C2720668   1.350   3.571   7.274 -1.0726 -0.0326  0.0362
  181SOPE   H7R20669   1.457   3.544   7.286 -1.5644 -3.4215 -1.8623
  181SOPE   H7S20670   1.337   3.675   7.311 -0.2423 -0.0695  0.4425
  181SOPE   C2820671   1.278   3.470   7.366 -0.1994 -0.1189 -0.0934
  181SOPE   H8R20672   1.171   3.497   7.363 -0.5152 -0.5283  3.3775
  181SOPE   H8S20673   1.278   3.366   7.329 -1.9439 -0.5673  1.0483
  181SOPE   C2920674   1.345   3.467   7.505 -0.0850 -0.4858 -0.4592
  181SOPE   H9120675   1.445   3.421   7.504  1.8143  3.2339  0.0465
  181SOPE  C21020676   1.315   3.533   7.616  0.2659  0.4994 -0.5114
  181SOPE  H10120677   1.370   3.519   7.711 -2.8784  2.0826  1.7339
  181SOPE  C21120678   1.202   3.637   7.645  0.1680  0.7989 -0.0073
  181SOPE  H11R20679   1.135   3.647   7.557 -1.7495 -0.3000  1.2467
  181SOPE  H11S20680   1.243   3.738   7.666  0.6252  0.7353 -0.5685
  181SOPE  C21220681   1.105   3.575   7.746 -0.4564  0.4686 -0.4652
  181SOPE  H12R20682   1.095   3.465   7.736  2.5049 -0.1739  2.1925
  181SOPE  H12S20683   1.010   3.633   7.737  0.4730  1.9550 -1.0090
  181SOPE  C21320684   1.152   3.600   7.889  0.0944  0.6934 -0.0441
  181SOPE  H13R20685   1.148   3.711   7.899 -5.1020  0.7688 -0.4964
  181SOPE  H13S20686   1.259   3.571   7.890  0.3418  1.3815 -1.8946
  181SOPE  C21420687   1.061   3.528   7.992  0.6548  0.7905 -0.1173
  181SOPE  H14R20688   1.089   3.421   7.997 -0.4718  0.5054  0.2054
  181SOPE  H14S20689   0.953   3.540   7.972  0.6224  1.7118  0.5160
  181SOPE  C21520690   1.084   3.579   8.131  0.3271  0.0329 -0.5029
  181SOPE  H15R20691   0.994   3.564   8.194 -0.2162 -0.2972 -1.3426
  181SOPE  H15S20692   1.116   3.685   8.121  2.5628 -0.6661 -1.3014
  181SOPE  C21620693   1.203   3.498   8.203 -0.1163  0.0385  0.8466
  181SOPE  H16R20694   1.291   3.514   8.137  0.0018  1.4343  1.3085
  181SOPE  H16S20695   1.172   3.391   8.204 -0.1594  0.0266 -0.3625
  181SOPE  C21720696   1.234   3.537   8.349  0.4392 -0.2663 -0.1290
  181SOPE  H17R20697   1.134   3.549   8.395  0.8797  1.9040  0.3658
  181SOPE  H17S20698   1.293   3.630   8.364 -2.5338  1.7726 -0.1147
  181SOPE  C21820699   1.288   3.417   8.427 -0.3796  1.1385 -0.1651
  181SOPE  H18R20700   1.255   3.433   8.532  0.8306  0.3609  0.3575
  181SOPE  H18S20701   1.398   3.431   8.415 -0.1947  0.7102  0.9089
  181SOPE  H18T20702   1.258   3.316   8.391 -1.8023  0.5105  2.5158
  181SOPE   C3320703   1.681   3.507   6.824 -0.2850 -0.2873  0.7260
  181SOPE   H3X20704   1.715   3.411   6.780 -2.0083  0.1372 -1.7171
  181SOPE   H3Y20705   1.573   3.501   6.846 -0.3957 -1.8749 -0.1067
  181SOPE   C3420706   1.744   3.561   6.962 -0.4265 -0.2061  0.5888
  181SOPE   H4X20707   1.720   3.668   6.976  0.8465  0.3194 -0.8737
  181SOPE   H4Y20708   1.855   3.553   6.952 -0.2600  1.6074  0.6215
  181SOPE   C3520709   1.715   3.465   7.078  0.0631  0.4694  0.0553
  181SOPE   H5X20710   1.731   3.361   7.040 -1.9534  1.2351 -3.3627
  181SOPE   H5Y20711   1.604   3.477   7.083 -0.2908 -1.3671 -1.8177
  181SOPE   C3620712   1.798   3.488   7.212  0.7013 -0.0416  0.1982
  181SOPE   H6X20713   1.771   3.588   7.251 -1.0398  0.1724 -1.3881
  181SOPE   H6Y20714   1.904   3.481   7.179  0.4109  2.4512 -1.5127
  181SOPE   C3720715   1.759   3.398   7.317  0.3948  0.8586 -0.4789
  181SOPE   H7X20716   1.777   3.294   7.282  0.2874 -0.0410  1.9310
  181SOPE   H7Y20717   1.652   3.400   7.347  0.2038 -1.1642 -0.9028
  181SOPE   C3820718   1.850   3.425   7.435 -0.5620  0.1437  0.0214
  181SOPE   H8X20719   1.829   3.529   7.466 -1.2724 -0.1826  0.6792
  181SOPE   H8Y20720   1.956   3.427   7.402 -0.8750  2.1837 -1.0087
  181SOPE   C3920721   1.825   3.357   7.571  0.3703  0.4194 -0.6476
  181SOPE   H9X20722   1.845   3.247   7.574 -0.3348  0.2435  3.6975
  181SOPE   H9Y20723   1.718   3.381   7.592  0.2937  0.6828 -1.3255
  181SOPE  C31020724   1.907   3.422   7.682 -0.8999  0.0636  0.1411
  181SOPE  H10X20725   1.887   3.531   7.697  0.2380  0.2012  0.7462
  181SOPE  H10Y20726   2.011   3.399   7.652 -0.7307  1.0286 -0.0396
  181SOPE  C31120727   1.897   3.354   7.816  0.0072  0.1050 -0.3825
  181SOPE  H11X20728   1.900   3.245   7.796 -0.4794 -0.2713  1.4490
  181SOPE  H11Y20729   1.803   3.389   7.864  1.0314  0.3317  1.5638
  181SOPE  C31220730   2.011   3.378   7.919  0.4213  0.3620  0.4454
  181SOPE  H12X20731   2.103   3.381   7.857 -0.1445  0.5617 -0.4009
  181SOPE  H12Y20732   2.025   3.288   7.982  0.8710 -0.8012 -1.2277
  181SOPE  C31320733   1.992   3.512   8.000 -0.2179  1.0637 -0.1329
  181SOPE  H13X20734   1.903   3.507   8.067  1.3013  1.7820  2.0835
  181SOPE  H13Y20735   1.966   3.596   7.932 -1.5095  0.7145 -0.0998
  181SOPE  C31420736   2.123   3.560   8.071 -0.2574  0.0369 -0.2567
  181SOPE  H14X20737   2.105   3.656   8.123 -0.6796 -0.6389  0.8854
  181SOPE  H14Y20738   2.208   3.581   8.003  0.8081 -0.1870  0.9574
  181SOPE  C31520739   2.170   3.463   8.182 -0.1468 -0.2778  0.1021
  181SOPE  H15X20740   2.191   3.367   8.130  0.4219 -1.0619  1.7016
  181SOPE  H15Y20741   2.086   3.456   8.254 -0.4708 -0.4808 -0.2932
  181SOPE  C31620742   2.299   3.511   8.257  0.5028 -0.2014  0.2108
  181SOPE  H16X20743   2.275   3.607   8.306  1.3260 -0.6287  1.4849
  181SOPE  H16Y20744   2.388   3.543   8.197  0.0826 -0.6260 -0.6612
  181SOPE  C31720745   2.333   3.420   8.379 -0.4285 -0.5063 -0.0827
  181SOPE  H17X20746   2.438   3.439   8.409 -0.2690  0.5105 -1.1801
  181SOPE  H17Y20747   2.340   3.315   8.343  0.5459  0.0017 -1.4623
  181SOPE  C31820748   2.247   3.433   8.508  0.3965 -0.0664 -0.2621
  181SOPE  H18X20749   2.147   3.394   8.479  0.2868  0.8379 -1.1500
  181SOPE  H18Y20750   2.232   3.539   8.536  2.1634  0.2330 -0.3532
  181SOPE  H18Z20751   2.287   3.381   8.598 -1.6963  1.4489  1.6563
  182SOPE     N20752   5.711   4.606   6.017 -0.3049  0.3062 -0.1539
  182SOPE   HN120753   5.624   4.608   6.074  0.2055  1.5721  0.6132
  182SOPE   HN220754   5.687   4.563   5.925  1.1259  0.2241 -0.5123
  182SOPE   HN320755   5.783   4.551   6.067  1.0140  1.7394 -0.3814
  182SOPE   C1220756   5.764   4.745   6.020 -0.0479 -0.0455  0.3200
  182SOPE  H12A20757   5.861   4.734   5.966  1.2482 -1.5318  2.7761
  182SOPE  H12B20758   5.783   4.782   6.123 -0.3009  0.9797  0.0143
  182SOPE   C1120759   5.657   4.842   5.960  0.1165 -0.2543 -0.3476
  182SOPE  H11A20760   5.658   4.825   5.851  0.7319 -2.5508 -0.0545
  182SOPE  H11B20761   5.688   4.942   5.996 -1.3254  0.0844  0.0113
  182SOPE     P20762   5.389   4.882   5.992 -0.9190 -0.3648  0.2970
  182SOPE   O1320763   5.304   4.785   5.920  0.1981  0.2052 -0.3145
  182SOPE   O1420764   5.404   5.009   5.923 -0.2242  0.0459 -0.0430
  182SOPE   O1220765   5.533   4.820   6.023  0.3784  0.9543 -0.0575
  182SOPE   O1120766   5.329   4.919   6.131 -0.2943  0.0561 -0.1517
  182SOPE    C120767   5.399   5.021   6.205  0.6906 -0.1227 -0.3194
  182SOPE    HA20768   5.335   5.058   6.288  1.0298  3.1626 -1.3529
  182SOPE    HB20769   5.418   5.110   6.141 -1.0164  0.4654 -0.0652
  182SOPE    C220770   5.532   4.979   6.277  0.4576 -0.2737 -0.4183
  182SOPE    HS20771   5.597   4.959   6.189  2.1798 -1.3705  1.0245
  182SOPE   O2120772   5.516   4.850   6.338  0.3217  0.1789  0.5397
  182SOPE   C2120773   5.643   4.804   6.389 -0.1524 -0.0579 -0.2697
  182SOPE   O2220774   5.749   4.855   6.352 -0.7689  0.4489 -0.0366
  182SOPE   C2220775   5.608   4.696   6.484 -0.8944  0.3640  0.1138
  182SOPE   H2R20776   5.634   4.602   6.430 -2.1947 -0.2878  0.5815
  182SOPE   H2S20777   5.500   4.695   6.506 -0.9794  1.0141 -0.2640
  182SOPE    C320778   5.586   5.093   6.381  0.3551 -0.0748  1.5931
  182SOPE    HX20779   5.570   5.190   6.331  1.4513  0.4679  2.2604
  182SOPE    HY20780   5.695   5.075   6.395  0.0161 -1.4063  2.7489
  182SOPE   O3120781   5.511   5.085   6.499  0.1824 -0.0058 -0.0783
  182SOPE   C3120782   5.554   5.176   6.599 -0.1887  0.4811 -0.1274
  182SOPE   O3220783   5.647   5.253   6.575 -0.4906 -0.5022  0.5060
  182SOPE   C3220784   5.467   5.170   6.721  0.2333  0.6084 -0.3693
  182SOPE   H2X20785   5.435   5.067   6.749  1.3375  0.7479  1.5502
  182SOPE   H2Y20786   5.377   5.234   6.709 -0.1282  0.2634  0.3938
  182SOPE   C2320787   5.696   4.706   6.615 -0.3218  0.8583 -0.3391
  182SOPE   H3R20788   5.799   4.734   6.583 -0.1230 -0.3120 -0.7551
  182SOPE   H3S20789   5.700   4.604   6.659 -0.6867  0.3225 -1.5092
  182SOPE   C2420790   5.656   4.803   6.730 -0.1434  0.4459 -0.4296
  182SOPE   H4R20791   5.693   4.902   6.697 -0.3181  0.6717  0.0395
  182SOPE   H4S20792   5.546   4.802   6.746 -0.1574  0.8709 -0.5032
  182SOPE   C2520793   5.736   4.765   6.859  0.3106 -0.0462 -0.4316
  182SOPE   H5R20794   5.729   4.657   6.885 -0.8601 -0.0890 -0.8973
  182SOPE   H5S20795   5.843   4.795   6.848  0.1231  1.1280  0.7900
  182SOPE   C2620796   5.679   4.829   6.983  0.4896 -0.4700  0.2011
  182SOPE   H6R20797   5.686   4.938   6.961 -0.0938 -0.6587 -0.9604
  182SOPE   H6S20798   5.577   4.790   7.004  0.8166 -2.4485 -1.5342
  182SOPE   C2720799   5.767   4.814   7.109 -0.1322  0.3817 -0.3963
  182SOPE   H7R20800   5.778   4.711   7.151 -1.8651  0.8374  1.2593
  182SOPE   H7S20801   5.866   4.857   7.081 -0.4292  0.7522 -0.8921
  182SOPE   C2820802   5.703   4.902   7.227  0.3006  0.0486 -0.3466
  182SOPE   H8R20803   5.784   4.921   7.301 -0.9985 -0.2551  1.1861
  182SOPE   H8S20804   5.679   5.004   7.190  1.7665  0.2926 -0.7026
  182SOPE   C2920805   5.583   4.832   7.284  0.6051 -0.5430  0.3943
  182SOPE   H9120806   5.493   4.840   7.220  1.0301  3.3428  0.0085
  182SOPE  C21020807   5.573   4.782   7.407  0.1353 -0.8101 -0.3411
  182SOPE  H10120808   5.487   4.716   7.424  1.7223 -3.1013 -0.6570
  182SOPE  C21120809   5.678   4.776   7.510 -0.1140 -0.4387  0.0752
  182SOPE  H11R20810   5.753   4.859   7.509 -0.7530  0.1524 -1.3065
  182SOPE  H11S20811   5.737   4.684   7.492  0.7165 -0.3521  2.0747
  182SOPE  C21220812   5.628   4.773   7.656  0.0471  0.1756 -0.0095
  182SOPE  H12R20813   5.570   4.682   7.683  2.4677 -0.6110  3.1870
  182SOPE  H12S20814   5.556   4.854   7.678  0.4067  0.5721 -0.2836
  182SOPE  C21320815   5.748   4.780   7.754  0.3050  0.1189  0.1831
  182SOPE  H13R20816   5.812   4.862   7.714 -2.3537  2.4076  0.3755
  182SOPE  H13S20817   5.800   4.686   7.728 -0.6273 -0.4281  0.2685
  182SOPE  C21420818   5.694   4.775   7.901  0.7600 -0.0145 -0.1730
  182SOPE  H14R20819   5.638   4.684   7.931 -1.8329  1.6729  0.4448
  182SOPE  H14S20820   5.622   4.857   7.919  0.7516 -0.2199  0.7526
  182SOPE  C21520821   5.802   4.785   8.012 -0.1521 -0.5957 -0.4454
  182SOPE  H15R20822   5.765   4.777   8.117  1.6469 -0.0860  0.2704
  182SOPE  H15S20823   5.835   4.891   8.004 -3.2571  0.5521  0.2927
  182SOPE  C21620824   5.922   4.697   7.978 -0.0815 -0.3183  1.2382
  182SOPE  H16R20825   5.965   4.737   7.884 -3.4155  0.6073 -0.0260
  182SOPE  H16S20826   5.893   4.595   7.946 -0.7189  0.5546 -1.1677
  182SOPE  C21720827   6.038   4.701   8.077 -0.2901  0.5612 -0.0251
  182SOPE  H17R20828   6.008   4.695   8.183  3.7210 -0.1441  1.2319
  182SOPE  H17S20829   6.082   4.803   8.076 -1.2819  1.0012 -0.4181
  182SOPE  C21820830   6.144   4.602   8.044 -0.5111  0.2253 -0.0715
  182SOPE  H18R20831   6.179   4.607   7.938  1.7853  1.1078  0.6661
  182SOPE  H18S20832   6.088   4.506   8.052 -3.4611  1.9476  1.7347
  182SOPE  H18T20833   6.235   4.602   8.107 -0.0259 -2.9524 -0.5743
  182SOPE   C3320834   5.548   5.209   6.852 -0.0388 -0.0941  0.4475
  182SOPE   H3X20835   5.562   5.319   6.851 -0.1220 -0.0520  1.8656
  182SOPE   H3Y20836   5.645   5.155   6.856 -0.2021 -0.4146  0.1408
  182SOPE   C3420837   5.469   5.187   6.981 -0.2196 -0.0738  0.1273
  182SOPE   H4X20838   5.434   5.082   6.979 -1.6135  0.3409 -2.6302
  182SOPE   H4Y20839   5.381   5.255   6.976  0.1575  0.5475  1.5364
  182SOPE   C3520840   5.550   5.236   7.095 -1.0917 -0.2271  0.0324
  182SOPE   H5X20841   5.576   5.341   7.071 -0.4277 -0.6922 -1.3869
  182SOPE   H5Y20842   5.653   5.198   7.085 -0.6143  0.9037  0.4919
  182SOPE   C3620843   5.481   5.212   7.226 -0.1923  0.1749 -0.1501
  182SOPE   H6X20844   5.469   5.104   7.249  0.9798  0.3399  1.3736
  182SOPE   H6Y20845   5.380   5.258   7.217  0.1341  1.1422  0.8766
  182SOPE   C3720846   5.552   5.274   7.355 -0.4877 -0.1190  0.5682
  182SOPE   H7X20847   5.561   5.385   7.362  0.8001 -0.0041 -1.8031
  182SOPE   H7Y20848   5.657   5.238   7.355  0.5972  2.7903  0.5781
  182SOPE   C3820849   5.479   5.240   7.482  0.1946 -0.3024  0.4052
  182SOPE   H8X20850   5.444   5.134   7.485 -1.0418  0.0836  2.8291
  182SOPE   H8Y20851   5.384   5.298   7.487  0.8146  0.8669 -1.0024
  182SOPE   C3920852   5.567   5.267   7.606 -0.6588 -0.1995  0.2844
  182SOPE   H9X20853   5.585   5.377   7.607  2.5864 -0.6235  2.0016
  182SOPE   H9Y20854   5.657   5.202   7.605 -0.1126  0.5205  1.3838
  182SOPE  C31020855   5.498   5.224   7.733  0.4352  0.3451 -0.3824
  182SOPE  H10X20856   5.475   5.115   7.736 -0.1065  0.3089 -3.1291
  182SOPE  H10Y20857   5.394   5.261   7.744  0.1450 -0.5304 -0.0741
  182SOPE  C31120858   5.576   5.263   7.863 -0.1492  0.2525  0.1090
  182SOPE  H11X20859   5.567   5.373   7.868  2.4415  0.5909 -1.0373
  182SOPE  H11Y20860   5.684   5.236   7.864 -0.0587  0.6043  1.3760
  182SOPE  C31220861   5.517   5.197   7.988  0.0991 -0.0465 -0.2812
  182SOPE  H12X20862   5.547   5.091   8.003  0.1432  0.1508  1.1020
  182SOPE  H12Y20863   5.406   5.192   7.990  0.0628  0.5593 -0.4609
  182SOPE  C31320864   5.574   5.264   8.115 -0.1042  0.5165 -0.6048
  182SOPE  H13X20865   5.501   5.283   8.197  1.5989 -0.1897  1.1658
  182SOPE  H13Y20866   5.620   5.358   8.078  0.0441  0.8638  0.4209
  182SOPE  C31420867   5.693   5.192   8.177  0.3941  0.7563  0.2719
  182SOPE  H14X20868   5.718   5.254   8.266  0.3324  1.3831 -0.1494
  182SOPE  H14Y20869   5.783   5.195   8.113  0.4043 -0.3371  0.2020
  182SOPE  C31520870   5.675   5.058   8.252 -0.1029 -0.2765 -0.2871
  182SOPE  H15X20871   5.619   4.985   8.190  2.4057 -1.4706 -1.2898
  182SOPE  H15Y20872   5.613   5.086   8.340  1.0706  1.0670  0.1706
  182SOPE  C31620873   5.803   5.002   8.306 -0.1863  0.2910 -0.6472
  182SOPE  H16X20874   5.846   5.073   8.380 -0.4777  1.6113 -1.6990
  182SOPE  H16Y20875   5.873   4.987   8.221  0.9128  0.0970  0.2767
  182SOPE  C31720876   5.787   4.866   8.384  0.4884 -0.0694  0.6336
  182SOPE  H17X20877   5.888   4.824   8.404  0.3887 -0.7010 -0.1320
  182SOPE  H17Y20878   5.741   4.789   8.319  0.5291  1.2117 -0.9685
  182SOPE  C31820879   5.709   4.873   8.513 -0.9363 -0.2785  0.3814
  182SOPE  H18X20880   5.742   4.950   8.586 -1.3499  0.5519 -0.2895
  182SOPE  H18Y20881   5.682   4.774   8.556 -1.0859 -0.7299 -0.7222
  182SOPE  H18Z20882   5.610   4.913   8.482 -0.1460  2.5141  1.1942
  183SOPE     N20883   3.804   3.815   6.189 -0.0069 -0.2615 -0.5973
  183SOPE   HN120884   3.714   3.864   6.170 -0.1078  0.3856  1.2999
  183SOPE   HN220885   3.791   3.713   6.181  0.3128 -0.5170  1.7168
  183SOPE   HN320886   3.830   3.831   6.288 -2.7004  1.1166 -0.0301
  183SOPE   C1220887   3.915   3.855   6.101  0.0272  0.1357 -0.3682
  183SOPE  H12A20888   3.930   3.964   6.115 -4.0139  0.9022 -0.8222
  183SOPE  H12B20889   3.882   3.833   5.997 -0.2431 -1.2013 -0.0113
  183SOPE   C1120890   4.057   3.802   6.139  0.5201  0.1421 -0.0567
  183SOPE  H11A20891   4.129   3.810   6.055 -0.2812 -0.2513 -0.7858
  183SOPE  H11B20892   4.046   3.693   6.152 -2.3549  0.4694  1.0272
  183SOPE     P20893   4.124   3.796   6.398  0.0781  0.3347 -0.1955
  183SOPE   O1320894   4.138   3.915   6.483 -0.3799 -0.6126 -0.3066
  183SOPE   O1420895   4.224   3.686   6.412 -0.4857 -0.3987 -0.1808
  183SOPE   O1220896   4.116   3.860   6.256  0.2128  0.6779  0.7557
  183SOPE   O1120897   3.967   3.740   6.393 -0.0625 -0.5414 -0.4265
  183SOPE    C120898   3.932   3.613   6.453  0.4060  0.1350  0.4394
  183SOPE    HA20899   4.025   3.553   6.463  1.9510  2.5656  1.5948
  183SOPE    HB20900   3.859   3.569   6.382  0.8690  0.3568 -0.1859
  183SOPE    C220901   3.865   3.638   6.590 -0.1356 -0.6809 -0.1791
  183SOPE    HS20902   3.767   3.689   6.576  0.1685 -0.7555 -3.1293
  183SOPE   O2120903   3.967   3.708   6.676 -1.7497  0.3937  0.2668
  183SOPE   C2120904   3.932   3.822   6.720 -0.1679  0.0108  0.1186
  183SOPE   O2220905   3.825   3.878   6.692 -0.1717 -0.5511 -0.3822
  183SOPE   C2220906   4.050   3.886   6.803  0.0228  0.5560  0.6221
  183SOPE   H2R20907   4.055   3.992   6.771 -0.7229 -0.3171 -2.7535
  183SOPE   H2S20908   4.140   3.828   6.772  0.1181  0.9206  0.2028
  183SOPE    C320909   3.829   3.502   6.656 -0.3248  0.1223  0.5025
  183SOPE    HX20910   3.923   3.444   6.664  0.6033  1.4021 -0.7504
  183SOPE    HY20911   3.763   3.450   6.584  0.9230  2.8308 -2.8303
  183SOPE   O3120912   3.777   3.504   6.790 -0.2341 -0.1045 -0.3328
  183SOPE   C3120913   3.662   3.565   6.816 -0.7424 -0.0578  0.1308
  183SOPE   O3220914   3.570   3.603   6.736 -0.8699 -0.2968 -0.9452
  183SOPE   C3220915   3.648   3.595   6.962  0.4586  0.7724  0.0745
  183SOPE   H2X20916   3.736   3.658   6.988 -0.0820  1.8448 -0.6057
  183SOPE   H2Y20917   3.655   3.494   7.007 -1.1697  0.1466 -0.9794
  183SOPE   C2320918   4.039   3.879   6.954  0.5157  0.0343 -1.2080
  183SOPE   H3R20919   4.128   3.895   7.018 -0.9121  0.2873  0.8423
  183SOPE   H3S20920   3.992   3.781   6.976 -0.7125  0.7587 -0.4432
  183SOPE   C2420921   3.946   3.992   7.003  0.5521  0.4575 -0.3991
  183SOPE   H4R20922   3.988   4.092   6.977 -0.0671  1.4405  2.1332
  183SOPE   H4S20923   3.843   3.983   6.961  0.7820 -0.1741 -0.8399
  183SOPE   C2520924   3.929   3.979   7.159  0.1192 -0.1585  0.5999
  183SOPE   H5R20925   3.869   3.889   7.184 -1.5834  0.8564  0.3532
  183SOPE   H5S20926   4.030   3.959   7.200  0.0931  0.5135  1.0004
  183SOPE   C2620927   3.848   4.098   7.222  1.1877  0.2683  1.1523
  183SOPE   H6R20928   3.869   4.083   7.330  0.6180 -3.1913  0.8929
  183SOPE   H6S20929   3.907   4.182   7.180  1.3543 -0.2572  0.3273
  183SOPE   C2720930   3.705   4.118   7.177  0.4011  0.0131 -0.3495
  183SOPE   H7R20931   3.690   4.087   7.072  1.1958  2.0999 -1.1241
  183SOPE   H7S20932   3.649   4.051   7.246 -1.3684  2.1289  0.4046
  183SOPE   C2820933   3.673   4.260   7.202 -0.4527 -0.2718  0.0448
  183SOPE   H8R20934   3.758   4.329   7.183  0.4851 -0.9084  1.6820
  183SOPE   H8S20935   3.588   4.285   7.135 -0.3171  3.1362  0.9324
  183SOPE   C2920936   3.617   4.306   7.341  0.1313 -0.4508  0.2452
  183SOPE   H9120937   3.508   4.295   7.351  0.2677 -1.9014  0.2965
  183SOPE  C21020938   3.691   4.370   7.438  0.4952 -0.0819 -0.1782
  183SOPE  H10120939   3.633   4.404   7.525  1.1589 -1.9455  1.0567
  183SOPE  C21120940   3.835   4.414   7.429 -0.0904  0.2296 -0.1545
  183SOPE  H11R20941   3.844   4.525   7.431 -0.1631  0.2281  0.5629
  183SOPE  H11S20942   3.869   4.382   7.328  0.6932  3.2826 -0.9581
  183SOPE  C21220943   3.914   4.345   7.542  0.4237 -0.7557  0.7377
  183SOPE  H12R20944   4.021   4.349   7.510 -0.4384  0.3390 -2.3684
  183SOPE  H12S20945   3.891   4.237   7.554  2.4559 -1.1628  1.3802
  183SOPE  C21320946   3.874   4.419   7.674  0.7114 -0.1549  0.2585
  183SOPE  H13R20947   3.765   4.425   7.695  0.4244 -0.1296 -1.1498
  183SOPE  H13S20948   3.905   4.525   7.670 -3.5643  1.2601  0.4297
  183SOPE  C21420949   3.942   4.363   7.802  0.2343 -0.0110  0.4781
  183SOPE  H14R20950   3.922   4.254   7.816 -0.0178 -0.2357 -1.3108
  183SOPE  H14S20951   3.903   4.413   7.893  1.6711  1.8549  0.1311
  183SOPE  C21520952   4.096   4.383   7.818 -0.2392  0.0780 -0.6336
  183SOPE  H15R20953   4.122   4.484   7.781 -1.1486  0.4503 -0.2952
  183SOPE  H15S20954   4.159   4.308   7.766 -0.2530  0.4452 -1.1823
  183SOPE  C21620955   4.133   4.387   7.968 -0.1773  0.4843  0.1241
  183SOPE  H16R20956   4.241   4.400   7.991 -0.1154 -1.2981  1.0001
  183SOPE  H16S20957   4.115   4.289   8.016 -0.1523  1.5931  2.5741
  183SOPE  C21720958   4.068   4.505   8.050  0.0681  0.5400 -0.8210
  183SOPE  H17R20959   3.975   4.456   8.085  0.0817  0.6108 -0.6853
  183SOPE  H17S20960   4.047   4.591   7.982  1.2129  0.1705 -1.6743
  183SOPE  C21820961   4.155   4.556   8.166  0.5440  0.0458  0.3089
  183SOPE  H18R20962   4.228   4.627   8.123  1.8540 -2.1716 -1.3624
  183SOPE  H18S20963   4.208   4.469   8.213  0.5471 -0.3466 -0.3988
  183SOPE  H18T20964   4.092   4.612   8.238 -1.8482 -2.3647  0.2358
  183SOPE   C3320965   3.518   3.672   6.998 -0.5241 -0.5365  0.1294
  183SOPE   H3X20966   3.438   3.596   6.987  0.5707 -1.6692 -0.2611
  183SOPE   H3Y20967   3.501   3.750   6.921 -2.6195  0.1988  1.2569
  183SOPE   C3420968   3.533   3.734   7.137 -0.8990 -0.3185  0.2770
  183SOPE   H4X20969   3.443   3.792   7.168 -1.5668  0.0072 -2.0290
  183SOPE   H4Y20970   3.617   3.807   7.144 -0.6608 -0.5648 -0.0088
  183SOPE   C3520971   3.546   3.630   7.251 -0.4888 -0.1076  0.1362
  183SOPE   H5X20972   3.644   3.579   7.236 -0.0516  0.9156 -0.5450
  183SOPE   H5Y20973   3.475   3.546   7.233 -0.8623  0.5264 -1.4561
  183SOPE   C3620974   3.540   3.681   7.395 -0.7839  0.2779 -0.2779
  183SOPE   H6X20975   3.587   3.609   7.465  1.0676  1.7678  0.0770
  183SOPE   H6Y20976   3.436   3.693   7.432 -1.3784 -0.3934 -1.6330
  183SOPE   C3720977   3.625   3.812   7.419  0.8909 -0.2784 -0.1700
  183SOPE   H7X20978   3.578   3.893   7.359  0.6111  2.1602  3.0413
  183SOPE   H7Y20979   3.726   3.782   7.385  0.3317 -2.1672 -0.2672
  183SOPE   C3820980   3.621   3.850   7.568 -0.0798  0.1205 -0.5349
  183SOPE   H8X20981   3.668   3.766   7.624 -0.5221  0.8900  1.0657
  183SOPE   H8Y20982   3.514   3.846   7.597 -0.1830 -0.9718 -1.0076
  183SOPE   C3920983   3.676   3.989   7.596 -0.7929 -0.6903 -0.2375
  183SOPE   H9X20984   3.617   4.059   7.532 -0.3121  0.2432  0.3231
  183SOPE   H9Y20985   3.780   4.015   7.568 -1.4339  1.9127 -0.5233
  183SOPE  C31020986   3.653   4.037   7.744 -0.2162 -0.1967 -0.0419
  183SOPE  H10X20987   3.543   4.041   7.759 -0.0613 -1.5744  1.7742
  183SOPE  H10Y20988   3.681   4.144   7.751 -1.7075  0.0989  2.5868
  183SOPE  C31120989   3.720   3.944   7.847 -0.3461 -0.0910  0.0259
  183SOPE  H11X20990   3.830   3.960   7.845 -0.3110 -0.4342 -0.8798
  183SOPE  H11Y20991   3.684   3.842   7.825 -3.4328  1.1882 -1.4362
  183SOPE  C31220992   3.682   3.980   7.989 -0.0567 -0.1798  0.0798
  183SOPE  H12X20993   3.677   4.090   8.006 -1.5829 -0.3034  0.6045
  183SOPE  H12Y20994   3.757   3.919   8.043  0.0452 -0.7633 -0.7068
  183SOPE  C31320995   3.547   3.923   8.030 -0.1933 -0.3167 -0.3443
  183SOPE  H13X20996   3.534   3.815   8.005 -0.6497 -0.8473  1.9396
  183SOPE  H13Y20997   3.475   3.981   7.968  0.0970  0.7299  0.2749
  183SOPE  C31420998   3.493   3.941   8.174  0.0033  0.9567  0.3320
  183SOPE  H14X20999   3.522   3.860   8.245 -1.7452  0.8348  0.9634
  183SOPE  H14Y21000   3.384   3.918   8.164  0.3260 -0.5724  0.0821
  183SOPE  C31521001   3.521   4.073   8.237 -0.6337 -0.3999  0.1205
  183SOPE  H15X21002   3.629   4.082   8.261 -1.1940  2.2288  2.0907
  183SOPE  H15Y21003   3.472   4.092   8.335 -0.8370 -1.4253  0.2335
  183SOPE  C31621004   3.478   4.200   8.154  0.0359  0.2711  0.8231
  183SOPE  H16X21005   3.367   4.197   8.153  0.0562 -1.2716  1.0339
  183SOPE  H16Y21006   3.527   4.205   8.055  2.3989 -0.2736  1.8874
  183SOPE  C31721007   3.514   4.334   8.221 -0.6018  0.4025  0.1197
  183SOPE  H17X21008   3.622   4.323   8.243  0.1299 -0.7017 -3.4446
  183SOPE  H17Y21009   3.457   4.335   8.317  0.7557  0.3241  0.9465
  183SOPE  C31821010   3.479   4.459   8.141 -0.3589  0.0887  0.2678
  183SOPE  H18X21011   3.491   4.552   8.202 -0.7005 -0.6987  1.5756
  183SOPE  H18Y21012   3.373   4.465   8.110 -0.0797  1.8029 -0.5124
  183SOPE  H18Z21013   3.546   4.470   8.053 -2.4848 -0.2049 -1.4753
  184SOPE     N21014   2.705   1.553   6.300  0.2447 -0.1854  0.6161
  184SOPE   HN121015   2.736   1.652   6.303  1.9165 -0.6276 -0.6451
  184SOPE   HN221016   2.601   1.553   6.294  0.2060 -0.2035  1.2336
  184SOPE   HN321017   2.729   1.500   6.386  1.2148  0.9149  1.0362
  184SOPE   C1221018   2.769   1.500   6.179 -0.7755  0.8673 -0.0877
  184SOPE  H12A21019   2.727   1.549   6.089 -2.8363 -1.2610 -0.4018
  184SOPE  H12B21020   2.753   1.390   6.175 -2.2915  1.0810 -1.0786
  184SOPE   C1121021   2.924   1.515   6.181 -0.7560 -0.0467 -0.6032
  184SOPE  H11A21022   2.956   1.484   6.079  0.0700  0.8444 -0.6315
  184SOPE  H11B21023   2.960   1.442   6.258  0.8982  0.4957 -0.8128
  184SOPE     P21024   3.123   1.660   6.264  0.4391 -0.1233  0.0320
  184SOPE   O1321025   3.157   1.800   6.265 -0.0153 -0.0548 -0.6809
  184SOPE   O1421026   3.221   1.571   6.201 -0.3817  0.6197  0.2917
  184SOPE   O1221027   2.976   1.646   6.208  0.2710  0.5835  0.5838
  184SOPE   O1121028   3.105   1.614   6.420 -0.7106 -0.3050 -0.2784
  184SOPE    C121029   2.989   1.640   6.495  0.1349  0.2858  0.5216
  184SOPE    HA21030   2.906   1.579   6.454  0.9206 -0.2178 -0.3595
  184SOPE    HB21031   2.967   1.748   6.491  1.8518  0.6363 -1.4588
  184SOPE    C221032   3.003   1.597   6.641 -0.3295 -0.1026  0.4234
  184SOPE    HS21033   2.902   1.599   6.687 -0.4069  0.9965  0.2305
  184SOPE   O2121034   3.112   1.677   6.694  0.4922 -0.5443 -0.4308
  184SOPE   C2121035   3.111   1.701   6.821  0.3833  0.2885 -0.3117
  184SOPE   O2221036   3.025   1.665   6.901 -0.6590  0.2735  0.0195
  184SOPE   C2221037   3.248   1.768   6.862  1.1642  0.2746  0.1002
  184SOPE   H2R21038   3.272   1.848   6.789  6.0184  0.3280  1.3670
  184SOPE   H2S21039   3.327   1.690   6.854 -1.0747 -1.9301 -1.9854
  184SOPE    C321040   3.056   1.457   6.646 -0.4384  0.7576  0.1987
  184SOPE    HX21041   3.160   1.453   6.607 -0.7751 -1.1019 -0.6277
  184SOPE    HY21042   2.993   1.402   6.573  1.4379 -1.7004  0.2586
  184SOPE   O3121043   3.050   1.399   6.778 -0.1441  0.7599  0.2320
  184SOPE   C3121044   3.160   1.400   6.854 -0.3133 -0.0638 -0.6741
  184SOPE   O3221045   3.273   1.422   6.806  0.0438  0.0066  0.1547
  184SOPE   C3221046   3.134   1.377   7.000  0.2975  0.1757 -0.4192
  184SOPE   H2X21047   3.137   1.266   7.010  3.5852  0.1011 -1.1452
  184SOPE   H2Y21048   3.034   1.420   7.021  0.0452 -0.2500 -0.7249
  184SOPE   C2321049   3.255   1.846   7.000 -0.0229 -0.0279  0.3386
  184SOPE   H3R21050   3.200   1.806   7.088 -1.5701  1.6241  0.1758
  184SOPE   H3S21051   3.202   1.938   6.968 -0.4419 -1.2518 -2.8240
  184SOPE   C2421052   3.399   1.881   7.034 -0.5445 -0.3122  0.0253
  184SOPE   H4R21053   3.454   1.784   7.043  1.9138  0.4179 -4.2884
  184SOPE   H4S21054   3.452   1.925   6.947  0.6801  0.1340  0.9618
  184SOPE   C2521055   3.421   1.967   7.156 -0.5079 -0.8855  0.1426
  184SOPE   H5R21056   3.525   2.006   7.151 -1.2403  1.1397 -0.3808
  184SOPE   H5S21057   3.356   2.056   7.140 -1.0892 -1.0952  1.2818
  184SOPE   C2621058   3.384   1.892   7.284 -0.1537  0.3512  0.6830
  184SOPE   H6R21059   3.286   1.840   7.275  0.3611 -0.2947 -2.8907
  184SOPE   H6S21060   3.453   1.806   7.300 -0.5340 -0.0033  0.4187
  184SOPE   C2721061   3.390   1.985   7.407  1.3743 -0.1623  0.6925
  184SOPE   H7R21062   3.336   2.079   7.384  1.1969 -0.2935  0.5632
  184SOPE   H7S21063   3.330   1.947   7.492  0.1099  1.8026  0.7409
  184SOPE   C2821064   3.524   2.028   7.466 -0.1813  0.2816 -0.0305
  184SOPE   H8R21065   3.581   2.090   7.394 -0.1395  0.6444  0.3154
  184SOPE   H8S21066   3.497   2.087   7.555 -1.5790  1.4720 -1.2011
  184SOPE   C2921067   3.615   1.923   7.519  0.0172  0.3090  0.0823
  184SOPE   H9121068   3.674   1.867   7.445  0.2093 -0.7839  1.0320
  184SOPE  C21021069   3.634   1.890   7.644  0.0880 -0.8452  0.8404
  184SOPE  H10121070   3.707   1.813   7.671  2.0405  0.9150  0.8619
  184SOPE  C21121071   3.567   1.955   7.762  0.5072  0.0137  1.0370
  184SOPE  H11R21072   3.572   1.883   7.847  0.0926 -1.2232  0.0468
  184SOPE  H11S21073   3.459   1.973   7.742  0.6009  0.6123  1.0668
  184SOPE  C21221074   3.638   2.091   7.797  0.2001  0.1125 -0.5037
  184SOPE  H12R21075   3.624   2.169   7.719  3.9820  1.3726 -0.1077
  184SOPE  H12S21076   3.748   2.081   7.795  0.2581  0.6887 -0.2619
  184SOPE  C21321077   3.618   2.144   7.942 -0.2379 -0.4755 -0.6784
  184SOPE  H13R21078   3.509   2.144   7.965  0.0937  0.0879  1.0904
  184SOPE  H13S21079   3.670   2.242   7.952  0.7171 -1.0553  0.1933
  184SOPE  C21421080   3.678   2.060   8.058  0.0518  0.0906 -0.0288
  184SOPE  H14R21081   3.761   2.003   8.013 -0.4928  1.0920 -2.4520
  184SOPE  H14S21082   3.601   1.990   8.099  0.0377  0.4469  0.5678
  184SOPE  C21521083   3.740   2.143   8.172 -0.1095  0.7691  0.3056
  184SOPE  H15R21084   3.832   2.195   8.137  1.1440 -0.9242  0.9223
  184SOPE  H15S21085   3.763   2.077   8.259  2.5530  1.0749 -0.0878
  184SOPE  C21621086   3.638   2.244   8.227 -0.0889 -0.1008  0.0729
  184SOPE  H16R21087   3.542   2.191   8.246  0.1445 -0.3038  0.7325
  184SOPE  H16S21088   3.619   2.330   8.161  0.3446 -0.3976 -0.4446
  184SOPE  C21721089   3.701   2.293   8.356 -0.4466  0.5517  0.4147
  184SOPE  H17R21090   3.801   2.327   8.322 -0.0082 -1.6496 -0.6042
  184SOPE  H17S21091   3.714   2.210   8.429  0.4103  2.0558  2.0596
  184SOPE  C21821092   3.633   2.411   8.425 -0.7935  0.3300  0.5526
  184SOPE  H18R21093   3.652   2.503   8.365  0.4817 -1.1076 -1.3384
  184SOPE  H18S21094   3.672   2.435   8.526  0.6044  3.5669 -0.6300
  184SOPE  H18T21095   3.523   2.393   8.430 -0.9808 -0.5570 -3.5989
  184SOPE   C3321096   3.233   1.446   7.092  0.3633 -0.4377 -0.3240
  184SOPE   H3X21097   3.234   1.549   7.049 -0.8537 -0.8494 -1.4147
  184SOPE   H3Y21098   3.327   1.390   7.074  1.3807  0.3992  2.0211
  184SOPE   C3421099   3.196   1.427   7.238  0.3583  0.0679  0.0427
  184SOPE   H4X21100   3.206   1.318   7.256  0.9236  0.2280  0.7462
  184SOPE   H4Y21101   3.092   1.465   7.249  0.5065  0.8782 -1.2273
  184SOPE   C3521102   3.295   1.497   7.333  1.0160 -0.4273  0.1634
  184SOPE   H5X21103   3.308   1.602   7.300 -0.2635 -0.4077 -0.3202
  184SOPE   H5Y21104   3.395   1.451   7.317  1.1431 -0.1045  0.0136
  184SOPE   C3621105   3.247   1.484   7.480 -0.9897 -0.2998 -0.6412
  184SOPE   H6X21106   3.246   1.381   7.523 -1.3265  0.4008  1.1238
  184SOPE   H6Y21107   3.141   1.515   7.489 -1.3359 -1.7200  0.8155
  184SOPE   C3721108   3.314   1.579   7.578  0.6103 -0.1666 -0.0269
  184SOPE   H7X21109   3.307   1.684   7.543  1.0408  0.6113  2.0570
  184SOPE   H7Y21110   3.422   1.561   7.592  0.7732  1.6840  1.2873
  184SOPE   C3821111   3.250   1.573   7.709 -0.0815 -0.1347  0.1016
  184SOPE   H8X21112   3.259   1.466   7.739  2.4195 -0.5095 -1.7314
  184SOPE   H8Y21113   3.146   1.610   7.699  0.0292  0.1878  0.1404
  184SOPE   C3921114   3.329   1.661   7.810 -0.4158 -1.0174 -0.8901
  184SOPE   H9X21115   3.336   1.764   7.769  1.1266  1.6872  5.0739
  184SOPE   H9Y21116   3.430   1.624   7.840 -0.3870 -1.7163 -1.8118
  184SOPE  C31021117   3.241   1.679   7.937 -0.2232  0.0226 -0.4001
  184SOPE  H10X21118   3.205   1.586   7.986 -2.0322  1.6445  1.5643
  184SOPE  H10Y21119   3.150   1.738   7.913 -0.3073  0.3184  0.5929
  184SOPE  C31121120   3.322   1.762   8.045 -1.3862 -0.1004 -0.7255
  184SOPE  H11X21121   3.364   1.847   7.987 -1.6645  0.5213 -0.0244
  184SOPE  H11Y21122   3.401   1.696   8.086 -0.0029  1.7686 -0.2171
  184SOPE  C31221123   3.240   1.818   8.161  0.1329  0.0769 -0.2255
  184SOPE  H12X21124   3.186   1.732   8.205  0.1949 -0.1591 -0.6064
  184SOPE  H12Y21125   3.161   1.884   8.119 -0.1349 -1.2169 -1.8477
  184SOPE  C31321126   3.319   1.873   8.281 -0.1227  0.0934  1.0409
  184SOPE  H13X21127   3.373   1.968   8.259  0.7468 -0.4426  0.8203
  184SOPE  H13Y21128   3.397   1.805   8.321 -1.3282 -1.0405  1.5487
  184SOPE  C31421129   3.223   1.899   8.402 -0.9010 -0.2588  0.5363
  184SOPE  H14X21130   3.150   1.815   8.401 -0.9006 -0.2581  0.4376
  184SOPE  H14Y21131   3.171   1.993   8.373 -0.1735  0.8926  2.7041
  184SOPE  C31521132   3.284   1.919   8.538  0.6204 -0.0412 -0.1036
  184SOPE  H15X21133   3.337   1.829   8.574 -0.1165 -0.3930  0.1327
  184SOPE  H15Y21134   3.200   1.935   8.609  1.2565  0.5370  0.5306
  184SOPE  C31621135   3.370   2.043   8.543 -0.3189  0.5794 -0.1552
  184SOPE  H16X21136   3.308   2.123   8.499 -0.3446  0.3076 -0.6126
  184SOPE  H16Y21137   3.461   2.020   8.484  0.3608 -0.3405  1.1788
  184SOPE  C31721138   3.416   2.074   8.685 -0.0018 -0.0099 -1.5316
  184SOPE  H17X21139   3.503   2.144   8.683  0.6153 -0.6471  0.4204
  184SOPE  H17Y21140   3.461   1.981   8.726  1.5006  1.0325 -0.6865
  184SOPE  C31821141   3.301   2.119   8.772  0.2993  0.1552 -0.0269
  184SOPE  H18X21142   3.242   2.206   8.736 -0.8166 -0.6518 -0.1849
  184SOPE  H18Y21143   3.331   2.137   8.878 -0.3686  0.9890  0.0348
  184SOPE  H18Z21144   3.230   2.034   8.780 -0.0188  0.1942 -1.9772
  185SAPI   C1221145   5.740   4.320  11.153  0.3206 -0.5466 -0.0940
  185SAPI    H221146   5.703   4.325  11.048  2.5484  1.5733 -0.8722
  185SAPI    O221147   5.860   4.394  11.164  0.0011 -0.1900 -0.3640
  185SAPI   HO221148   5.927   4.344  11.116 -1.0881 -1.4440 -0.6500
  185SAPI   C1321149   5.624   4.376  11.233  0.6189  0.1373 -0.0755
  185SAPI    H321150   5.537   4.307  11.227 -0.7803  1.5982  1.8854
  185SAPI    O321151   5.579   4.502  11.180 -0.5692 -0.0317 -0.6452
  185SAPI   HO321152   5.616   4.570  11.235 -0.5129 -2.2517  2.2842
  185SAPI   C1421153   5.673   4.367  11.377 -0.0236 -0.4769 -0.0370
  185SAPI    H421154   5.760   4.436  11.385 -1.7571  1.6765  1.6829
  185SAPI    O421155   5.572   4.429  11.457  0.0193  0.0483  0.6592
  185SAPI   HO421156   5.599   4.520  11.471  0.5571  0.3172 -1.7459
  185SAPI   C1521157   5.708   4.227  11.426  0.4380 -0.4741  0.2340
  185SAPI    H521158   5.609   4.180  11.442  0.1721  0.4965  1.5814
  185SAPI    O521159   5.757   4.228  11.564  0.4622 -0.6757  0.2014
  185SAPI   HO521160   5.718   4.150  11.604  0.7158 -0.5025  0.8108
  185SAPI   C1621161   5.810   4.170  11.336 -0.4569 -0.1535 -0.8011
  185SAPI    H621162   5.903   4.232  11.341 -0.6450  0.0578  2.1780
  185SAPI    O621163   5.848   4.038  11.377  0.1285  0.0449 -0.2477
  185SAPI   HO621164   5.926   4.019  11.324 -0.1039 -0.4303 -0.4333
  185SAPI   C1121165   5.766   4.177  11.187 -0.1552  0.3616  0.0581
  185SAPI    H121166   5.669   4.124  11.181  0.9147 -1.5441 -2.2812
  185SAPI     P21167   5.829   4.072  10.940 -0.1363  0.2436 -0.1701
  185SAPI   O1321168   5.694   4.009  10.938 -0.1935  0.0754 -0.0695
  185SAPI   O1421169   5.940   3.983  10.897  0.5218  0.3492 -0.3757
  185SAPI   O1221170   5.868   4.124  11.092  0.2570 -0.4654 -0.2648
  185SAPI   O1121171   5.839   4.211  10.867  0.0661  0.0802 -0.2342
  185SAPI    C121172   5.728   4.272  10.807  0.4432  0.3267 -0.9374
  185SAPI    HA21173   5.631   4.273  10.861  0.1027  2.4079 -1.4921
  185SAPI    HB21174   5.734   4.383  10.811 -0.1811  0.3463 -0.3458
  185SAPI    C221175   5.710   4.249  10.658 -0.8600  0.2300 -0.1138
  185SAPI    HS21176   5.667   4.149  10.642 -0.2827  0.1966 -1.7051
  185SAPI   O2121177   5.837   4.274  10.585  0.3066  0.2528 -0.3077
  185SAPI   C2121178   5.860   4.215  10.471 -0.2613 -0.0156 -0.1861
  185SAPI   O2221179   5.802   4.115  10.432  0.1193  0.0639  0.7065
  185SAPI   C2221180   5.979   4.290  10.401 -0.3245  0.0903 -0.8336
  185SAPI   H2R21181   5.968   4.396  10.430  2.3268  0.6563 -1.6680
  185SAPI   H2S21182   6.072   4.249  10.446 -0.8936  0.9862  1.2495
  185SAPI    C321183   5.616   4.363  10.604  0.3782  0.0981 -0.6742
  185SAPI    HX21184   5.661   4.463  10.618  0.6619  0.0881 -1.4655
  185SAPI    HY21185   5.526   4.360  10.670  1.6187  0.6745  1.1053
  185SAPI   O3121186   5.592   4.352  10.463  0.0291  0.1387 -0.1884
  185SAPI   C3121187   5.494   4.281  10.424  0.4359  0.4379  0.4750
  185SAPI   O3221188   5.418   4.216  10.492 -0.3252 -0.2511  0.0280
  185SAPI   C3221189   5.501   4.267  10.273  0.6121  0.2465 -0.0422
  185SAPI   H2X21190   5.606   4.296  10.254  0.1953  0.6800 -1.8293
  185SAPI   H2Y21191   5.432   4.339  10.225  0.4459  0.8683  1.0881
  185SAPI   C2321192   5.987   4.261  10.250  0.6834 -0.9495 -0.6811
  185SAPI   H3R21193   5.901   4.304  10.195 -0.0512  0.9597  1.7385
  185SAPI   H3S21194   5.988   4.151  10.236 -0.6289 -1.4947  2.6245
  185SAPI   C2421195   6.117   4.308  10.190 -0.6550  0.3152  0.1117
  185SAPI   H4R21196   6.139   4.266  10.090 -2.1912 -1.1667  0.3542
  185SAPI   H4S21197   6.203   4.279  10.256 -0.8414 -0.4449  0.0353
  185SAPI   C2521198   6.127   4.463  10.172 -0.6504  0.5763  0.4105
  185SAPI   H5R21199   6.117   4.515  10.269  1.6605  0.2205  0.8948
  185SAPI   C2621200   6.144   4.530  10.053  0.4719  0.1562 -0.3875
  185SAPI   H6R21201   6.170   4.637  10.051 -1.6310  0.7164 -2.5599
  185SAPI   C2721202   6.167   4.475   9.914  0.3600 -0.3547  0.4102
  185SAPI   H7R21203   6.237   4.390   9.929 -1.5527 -1.8494  1.3440
  185SAPI   H7S21204   6.220   4.550   9.851  0.6688 -1.0995 -0.2303
  185SAPI   C2821205   6.048   4.421   9.831  0.4613 -0.3778 -0.4024
  185SAPI   H8R21206   5.944   4.433   9.866 -0.3520 -2.3062 -1.9212
  185SAPI   C2921207   6.047   4.389   9.706  0.1528  0.2485 -0.1927
  185SAPI   H9R21208   5.953   4.357   9.660  0.3716 -1.4118  0.4314
  185SAPI  C21021209   6.158   4.394   9.607  0.1523  0.5091 -0.5370
  185SAPI  H10R21210   6.187   4.289   9.585 -1.0289 -0.1997  1.0935
  185SAPI  H10S21211   6.250   4.435   9.654  0.1207  1.7449 -1.4867
  185SAPI  C21121212   6.129   4.488   9.490 -0.2114  0.2936 -0.3639
  185SAPI  H11R21213   6.150   4.594   9.511 -0.0132  0.3253 -0.7180
  185SAPI  C21221214   6.084   4.459   9.368 -0.9280 -0.2420  0.9595
  185SAPI  H12R21215   6.067   4.539   9.295  0.4521 -0.9007 -0.1432
  185SAPI  C21321216   6.046   4.323   9.314  0.6922 -0.1372  0.3138
  185SAPI  H13R21217   5.941   4.332   9.280  0.4842 -0.7807  0.7875
  185SAPI  H13S21218   6.046   4.249   9.396 -3.2392  0.2750  0.8656
  185SAPI  C21421219   6.128   4.286   9.195 -0.6567 -0.2914  0.2765
  185SAPI  H14R21220   6.233   4.274   9.225 -0.2413 -1.5653 -1.5166
  185SAPI  C21521221   6.106   4.293   9.065 -0.5552  1.0443  0.2516
  185SAPI  H15R21222   6.179   4.239   9.003 -0.6749 -0.7400  1.5683
  185SAPI  C21621223   5.978   4.331   8.999 -0.2742  0.1039 -0.8200
  185SAPI  H16R21224   5.911   4.363   9.082  0.7008 -0.4409  0.2039
  185SAPI  H16S21225   5.936   4.238   8.953  3.2829 -1.7169 -0.7648
  185SAPI  C21721226   5.998   4.444   8.900  0.7224 -0.1253 -0.5417
  185SAPI  H17R21227   6.055   4.525   8.952  1.7869 -1.3875  0.3345
  185SAPI  H17S21228   5.900   4.490   8.874  0.7802  1.6283  1.9699
  185SAPI  C21821229   6.074   4.417   8.768 -0.3989  0.0687  0.3831
  185SAPI  H18R21230   6.019   4.332   8.721  1.5509 -1.3548  0.5529
  185SAPI  H18S21231   6.174   4.373   8.790 -1.0478 -1.7765 -0.1864
  185SAPI  C21921232   6.100   4.540   8.683  0.0149  0.5214  0.4804
  185SAPI  H19R21233   6.169   4.499   8.606 -2.0801 -2.1211 -0.1463
  185SAPI  H19S21234   6.173   4.610   8.728  1.8581 -1.0569  0.1100
  185SAPI  C22021235   5.990   4.611   8.616  0.2077  0.1792  0.3090
  185SAPI  H20R21236   6.017   4.697   8.551  1.8071 -0.8350 -0.4395
  185SAPI  H20S21237   5.922   4.651   8.694 -0.9215 -2.4094  0.7520
  185SAPI  H20T21238   5.941   4.531   8.558  1.4010  1.2508 -2.3145
  185SAPI   C3321239   5.468   4.124  10.224  0.2469  0.3544  0.2322
  185SAPI   H3X21240   5.360   4.109  10.245  0.0286 -2.3198 -2.1597
  185SAPI   H3Y21241   5.528   4.046  10.274  1.5238  0.3312 -1.2542
  185SAPI   C3421242   5.487   4.106  10.071  0.3015 -0.2268  0.2420
  185SAPI   H4X21243   5.423   4.182  10.021 -1.5682 -2.2639 -0.6471
  185SAPI   H4Y21244   5.452   4.004  10.043  1.5290 -0.9324  1.2039
  185SAPI   C3521245   5.632   4.111  10.045  0.1447  0.0847  0.0854
  185SAPI   H5X21246   5.679   4.035  10.111  0.7923 -0.9208 -1.4635
  185SAPI   H5Y21247   5.655   4.219  10.045 -1.9616  0.5776  0.3865
  185SAPI   C3621248   5.670   4.067   9.898  0.2604  0.2725  0.2086
  185SAPI   H6X21249   5.655   3.957   9.894  1.5884  0.0401  1.0314
  185SAPI   H6Y21250   5.778   4.079   9.876  0.0342 -2.6547 -3.7307
  185SAPI   C3721251   5.593   4.132   9.784  0.6353 -0.4057  0.5918
  185SAPI   H7X21252   5.594   4.243   9.783 -3.3927 -0.2099 -1.7775
  185SAPI   H7Y21253   5.484   4.113   9.792  0.4926 -0.2479 -0.7785
  185SAPI   C3821254   5.637   4.085   9.648  0.4852 -0.2106  0.4593
  185SAPI   H8X21255   5.745   4.106   9.631  0.4641 -0.4739 -0.0147
  185SAPI   H8Y21256   5.571   4.139   9.577 -0.4999 -1.9998 -0.0478
  185SAPI   C3921257   5.615   3.937   9.623 -0.5117 -0.1419  0.2479
  185SAPI   H9X21258   5.508   3.907   9.628 -0.1593 -1.4141  0.7084
  185SAPI   H9Y21259   5.669   3.878   9.700 -1.5893 -1.8063 -0.2085
  185SAPI  C31021260   5.671   3.906   9.483  0.3845  0.3690  0.3170
  185SAPI  H10X21261   5.666   3.795   9.480 -2.1999  0.4493 -0.9861
  185SAPI  H10Y21262   5.771   3.954   9.485 -0.5655  2.4260  1.3736
  185SAPI  C31121263   5.588   3.968   9.367  0.2815  0.5128 -0.4473
  185SAPI  H11X21264   5.605   4.077   9.374  0.5722  0.3871  1.3195
  185SAPI  H11Y21265   5.478   3.949   9.373  0.0791  1.7194 -0.0133
  185SAPI  C31221266   5.638   3.913   9.228 -0.2748  0.0198  0.2611
  185SAPI  H12X21267   5.557   3.916   9.152 -0.8045  0.6041  0.8343
  185SAPI  H12Y21268   5.661   3.805   9.234 -0.6293 -0.1877 -1.5668
  185SAPI  C31321269   5.770   3.977   9.167  0.6739 -0.0476  0.0937
  185SAPI  H13X21270   5.856   3.937   9.225  1.3111  1.3488  0.1575
  185SAPI  H13Y21271   5.762   4.088   9.170 -1.5708 -0.1497 -0.5719
  185SAPI  C31421272   5.778   3.931   9.017 -0.1098  0.8466  0.9568
  185SAPI  H14X21273   5.778   3.820   9.014 -0.7090  0.8537 -1.3133
  185SAPI  H14Y21274   5.876   3.960   8.974 -0.3990  0.1528 -0.2237
  185SAPI  C31521275   5.669   3.989   8.922  0.3007  0.7441  0.2121
  185SAPI  H15X21276   5.657   4.096   8.951  1.3366  0.9426 -0.0483
  185SAPI  H15Y21277   5.575   3.938   8.949  2.4201 -3.1465  1.0020
  185SAPI  C31621278   5.678   3.966   8.767  0.1967 -0.5119 -0.6151
  185SAPI  H16X21279   5.584   4.002   8.720 -0.7796 -2.0264  0.0938
  185SAPI  H16Y21280   5.686   3.857   8.745  0.6695 -0.6180  0.0539
  185SAPI  C31721281   5.788   4.051   8.706 -0.2203 -0.2117 -0.1720
  185SAPI  H17X21282   5.887   4.047   8.757  0.7597  1.1871 -1.8454
  185SAPI  H17Y21283   5.754   4.156   8.720  0.3998 -0.2313  1.9274
  185SAPI  C31821284   5.811   4.021   8.562 -0.0345  0.9856  0.1577
  185SAPI  H18X21285   5.719   4.033   8.500  1.6622  1.9588 -2.2970
  185SAPI  H18Y21286   5.840   3.914   8.561  1.3663  1.3449 -0.7941
  185SAPI  H18Z21287   5.904   4.062   8.518  0.4038  0.7619  0.8583
  186SAPI   C1221288   6.438   3.335  10.856  0.3769 -0.2335 -0.0116
  186SAPI    H221289   6.438   3.392  10.761 -3.8607  0.2276  0.0463
  186SAPI    O221290   6.414   3.198  10.841 -0.0890  0.6054 -0.0265
  186SAPI   HO221291   6.340   3.184  10.781 -0.6060 -3.3051  1.1631
  186SAPI   C1321292   6.556   3.357  10.930 -0.7551  0.1013 -0.1199
  186SAPI    H321293   6.562   3.459  10.973  2.7888 -0.5369  1.2686
  186SAPI    O321294   6.680   3.335  10.856 -0.2442 -0.4976  0.3006
  186SAPI   HO321295   6.693   3.241  10.847  1.1925 -0.2519 -0.4067
  186SAPI   C1421296   6.560   3.279  11.061 -0.6165  0.0793  0.6996
  186SAPI    H421297   6.547   3.171  11.039 -3.4257  0.5736 -0.5275
  186SAPI    O421298   6.682   3.299  11.129  0.2222 -0.5531  0.5491
  186SAPI   HO421299   6.749   3.249  11.082  0.6095 -0.0386  0.5519
  186SAPI   C1521300   6.445   3.326  11.147  0.2796  0.2651 -0.4797
  186SAPI    H521301   6.455   3.433  11.175  0.8732  0.3107 -0.8614
  186SAPI    O521302   6.438   3.262  11.272 -0.4668 -0.3215  0.4189
  186SAPI   HO521303   6.447   3.326  11.343 -0.2639 -1.1612  1.1766
  186SAPI   C1621304   6.311   3.323  11.068  0.3508  0.3596  0.1323
  186SAPI    H621305   6.276   3.218  11.062 -2.2965  1.0360  1.6066
  186SAPI    O621306   6.207   3.387  11.146 -0.6054  0.0007 -0.1305
  186SAPI   HO621307   6.147   3.335  11.199  0.0721  0.5139  1.1902
  186SAPI   C1121308   6.313   3.390  10.931  0.0766 -0.2178  0.2325
  186SAPI    H121309   6.334   3.498  10.947 -1.0990  0.1173 -0.3567
  186SAPI     P21310   6.146   3.464  10.733  0.0618  0.2425  0.3690
  186SAPI   O1321311   6.209   3.598  10.739  0.1164  0.4247  0.6711
  186SAPI   O1421312   6.001   3.463  10.720 -0.0686 -0.2348 -0.3975
  186SAPI   O1221313   6.189   3.374  10.864  0.9459  0.5032 -0.2270
  186SAPI   O1121314   6.194   3.377  10.611  0.0500 -0.4107  0.0425
  186SAPI    C121315   6.158   3.418  10.479  0.5929 -0.1172  0.4242
  186SAPI    HA21316   6.122   3.523  10.479  4.0665  1.2286  1.5293
  186SAPI    HB21317   6.241   3.414  10.405  0.7000  1.7631  0.3901
  186SAPI    C221318   6.040   3.331  10.433  0.2026 -0.4295 -0.5778
  186SAPI    HS21319   5.971   3.321  10.519 -0.7555 -3.2075 -1.5369
  186SAPI   O2121320   6.085   3.206  10.395 -0.9445  1.2524 -0.1564
  186SAPI   C2121321   5.996   3.104  10.426 -0.6205 -0.6639  0.0786
  186SAPI   O2221322   5.886   3.113  10.466  0.9184  0.3274 -0.5169
  186SAPI   C2221323   6.062   2.975  10.381  0.2482  0.4158 -0.5105
  186SAPI   H2R21324   6.116   2.982  10.285  1.6182 -0.7317  0.1213
  186SAPI   H2S21325   6.136   2.946  10.460 -1.5310  0.6597  1.3197
  186SAPI    C321326   5.954   3.404  10.319 -0.1918 -0.3388 -0.2257
  186SAPI    HX21327   5.916   3.503  10.356  1.6117 -0.1657  1.3341
  186SAPI    HY21328   5.853   3.360  10.304 -1.3613  2.1596 -0.2222
  186SAPI   O3121329   6.031   3.423  10.205  0.4829 -0.3206  0.0647
  186SAPI   C3121330   6.047   3.321  10.121  0.3273  1.1615 -0.1390
  186SAPI   O3221331   5.974   3.220  10.120  0.4810 -0.0621 -0.0855
  186SAPI   C3221332   6.161   3.358  10.023  0.1299  0.0130  0.0538
  186SAPI   H2X21333   6.249   3.371  10.088  0.7882  3.3525 -1.3284
  186SAPI   H2Y21334   6.135   3.457   9.980  1.5297  0.4252  0.1138
  186SAPI   C2321335   5.962   2.860  10.383 -0.3827 -0.0207  0.5793
  186SAPI   H3R21336   5.885   2.879  10.306  1.3853 -0.3894 -1.3737
  186SAPI   H3S21337   5.914   2.835  10.480 -1.9683  0.0648 -0.1423
  186SAPI   C2421338   6.029   2.729  10.345  0.5056  0.5331 -0.3144
  186SAPI   H4R21339   6.120   2.705  10.403  0.9223 -0.8058 -1.4600
  186SAPI   H4S21340   6.056   2.746  10.238  1.0342 -2.6708 -0.7776
  186SAPI   C2521341   5.940   2.605  10.359 -0.3369  0.5369 -0.7355
  186SAPI   H5R21342   5.926   2.560  10.458  2.1193  2.2954  0.5099
  186SAPI   C2621343   5.878   2.543  10.262 -0.1421 -0.3176 -0.3236
  186SAPI   H6R21344   5.829   2.448  10.287  1.0675 -1.5631 -2.3218
  186SAPI   C2721345   5.874   2.576  10.123  0.6729 -0.4383  0.0235
  186SAPI   H7R21346   5.873   2.482  10.065  1.7183 -0.3325 -0.1792
  186SAPI   H7S21347   5.959   2.642  10.096  2.7597 -2.9679  0.0774
  186SAPI   C2821348   5.750   2.653  10.086  0.2561  0.2328  0.3167
  186SAPI   H8R21349   5.674   2.672  10.164 -1.7958  0.7147 -1.7097
  186SAPI   C2921350   5.720   2.700   9.964  0.3401 -0.0484 -0.2370
  186SAPI   H9R21351   5.620   2.743   9.947  0.0055 -0.9577 -0.6540
  186SAPI  C21021352   5.800   2.677   9.835 -0.1680 -0.1327  0.1187
  186SAPI  H10R21353   5.739   2.622   9.760  0.6246  0.7817 -1.2284
  186SAPI  H10S21354   5.895   2.620   9.841  1.0047  1.2924 -2.7595
  186SAPI  C21121355   5.831   2.815   9.777  0.7246 -0.4267  0.5224
  186SAPI  H11R21356   5.869   2.891   9.848  0.8057 -0.4380  0.4920
  186SAPI  C21221357   5.804   2.856   9.649 -0.3175  0.0915  0.3420
  186SAPI  H12R21358   5.821   2.959   9.617  2.1363  0.0313  1.2568
  186SAPI  C21321359   5.748   2.759   9.547  0.1979  0.1175 -0.0502
  186SAPI  H13R21360   5.659   2.707   9.587  1.0078 -1.2344  0.0382
  186SAPI  H13S21361   5.826   2.683   9.527  0.1595  0.0424  0.0820
  186SAPI  C21421362   5.687   2.830   9.424 -0.2284  0.2163 -0.4407
  186SAPI  H14R21363   5.605   2.895   9.459 -0.7770 -0.0534 -1.2082
  186SAPI  C21521364   5.714   2.817   9.295 -0.1382  0.5738  0.2057
  186SAPI  H15R21365   5.652   2.873   9.224  0.2856 -0.6156 -1.1411
  186SAPI  C21621366   5.807   2.727   9.219  0.1055 -0.3515  0.4933
  186SAPI  H16R21367   5.754   2.670   9.140  0.3100 -1.3140  1.0311
  186SAPI  H16S21368   5.852   2.649   9.285  1.8455 -0.7395 -1.0525
  186SAPI  C21721369   5.917   2.804   9.145  0.2375  0.2505 -0.1731
  186SAPI  H17R21370   5.999   2.736   9.112  1.6438  2.1051 -0.6196
  186SAPI  H17S21371   5.959   2.878   9.216 -0.6348  0.6021 -0.0015
  186SAPI  C21821372   5.865   2.883   9.026  0.2576  0.0546  0.0963
  186SAPI  H18R21373   5.825   2.981   9.060  0.0951 -0.5163  1.6590
  186SAPI  H18S21374   5.777   2.850   8.967 -0.6122  2.9461 -0.3994
  186SAPI  C21921375   5.967   2.911   8.911 -0.1228 -0.6535 -0.8593
  186SAPI  H19R21376   5.914   2.927   8.814 -0.6430 -0.1074 -0.4938
  186SAPI  H19S21377   6.020   2.818   8.881 -0.7544 -1.7149  1.1302
  186SAPI  C22021378   6.072   3.018   8.934 -0.3341 -0.8992  0.5019
  186SAPI  H20R21379   6.108   3.013   9.039 -0.3253 -1.6908  0.4675
  186SAPI  H20S21380   6.024   3.118   8.923 -0.4946 -0.9245  0.9633
  186SAPI  H20T21381   6.152   3.000   8.858 -1.3742  0.2583 -0.9408
  186SAPI   C3321382   6.170   3.264   9.902  0.0981  0.2222 -0.0953
  186SAPI   H3X21383   6.071   3.238   9.858  0.0684 -2.6788  1.4433
  186SAPI   H3Y21384   6.211   3.165   9.930 -1.3959 -0.0808  1.1504
  186SAPI   C3421385   6.252   3.326   9.793 -0.3339 -0.9014  0.2250
  186SAPI   H4X21386   6.336   3.384   9.836 -1.2361 -0.4465  1.4247
  186SAPI   H4Y21387   6.194   3.408   9.745 -0.2541 -1.3000 -0.5795
  186SAPI   C3521388   6.281   3.224   9.687  0.3421  0.0570  0.1990
  186SAPI   H5X21389   6.189   3.188   9.635  2.2104 -0.4466 -3.0551
  186SAPI   H5Y21390   6.317   3.129   9.732 -0.8739 -0.3074  0.4600
  186SAPI   C3621391   6.373   3.290   9.586 -0.5877  0.6125 -0.0610
  186SAPI   H6X21392   6.457   3.227   9.550 -0.3229 -0.6444  2.5422
  186SAPI   H6Y21393   6.423   3.386   9.611  0.5426  0.3394 -1.1597
  186SAPI   C3721394   6.292   3.317   9.466 -0.1905  0.0951 -0.1782
  186SAPI   H7X21395   6.206   3.385   9.486 -0.6302 -0.0609 -1.4133
  186SAPI   H7Y21396   6.234   3.225   9.441 -0.1223 -0.1117  0.4112
  186SAPI   C3821397   6.359   3.387   9.339  0.0800 -0.0180  0.3738
  186SAPI   H8X21398   6.452   3.333   9.312 -1.3328 -2.3839 -0.0429
  186SAPI   H8Y21399   6.375   3.495   9.360  0.5011 -0.4082  2.1545
  186SAPI   C3921400   6.262   3.379   9.223  0.3149 -0.2438  0.3102
  186SAPI   H9X21401   6.168   3.418   9.268  0.1055 -1.2417  0.7696
  186SAPI   H9Y21402   6.251   3.273   9.188 -0.5869 -1.4465  3.8610
  186SAPI  C31021403   6.296   3.475   9.104 -0.8960 -0.3564 -0.9323
  186SAPI  H10X21404   6.388   3.440   9.051 -0.6565  0.5554 -1.1207
  186SAPI  H10Y21405   6.323   3.570   9.154 -0.2310 -1.9156  1.9248
  186SAPI  C31121406   6.190   3.503   8.999  0.3869  0.3416  0.0317
  186SAPI  H11X21407   6.185   3.422   8.923  0.5247  1.9485 -1.7778
  186SAPI  H11Y21408   6.229   3.587   8.937  0.4031 -0.2891 -0.8384
  186SAPI  C31221409   6.047   3.521   9.049  0.7103 -0.5479  0.6081
  186SAPI  H12X21410   6.030   3.590   9.135 -1.6024 -1.2936  0.8210
  186SAPI  H12Y21411   6.006   3.426   9.090 -1.4026  0.2188  0.3512
  186SAPI  C31321412   5.942   3.564   8.948  0.6615 -0.0905 -0.1998
  186SAPI  H13X21413   5.951   3.675   8.944 -0.2469  0.0556  1.0069
  186SAPI  H13Y21414   5.837   3.559   8.984  1.7190 -0.0795  3.2298
  186SAPI  C31421415   5.954   3.490   8.804 -0.0767 -0.4916 -0.3453
  186SAPI  H14X21416   5.969   3.381   8.812 -2.7390 -0.8501  1.4332
  186SAPI  H14Y21417   6.048   3.538   8.770  1.0720 -1.2488  1.6137
  186SAPI  C31521418   5.846   3.542   8.716  0.1028 -0.8091 -0.6177
  186SAPI  H15X21419   5.841   3.651   8.734 -0.5827 -0.5886 -1.9943
  186SAPI  H15Y21420   5.753   3.493   8.754 -0.1242  1.4993  2.1597
  186SAPI  C31621421   5.861   3.509   8.568  0.4346 -0.3491  0.1244
  186SAPI  H16X21422   5.772   3.542   8.511  1.0283 -1.1030 -1.2696
  186SAPI  H16Y21423   5.874   3.400   8.552  2.0322  0.0418 -1.5179
  186SAPI  C31721424   5.992   3.568   8.513 -0.0961  0.6655  0.6033
  186SAPI  H17X21425   6.085   3.527   8.559 -0.5728  0.7128  1.6492
  186SAPI  H17Y21426   5.996   3.678   8.534  0.0897  0.3568  2.3792
  186SAPI  C31821427   5.994   3.555   8.360  0.2948  0.3661 -0.0444
  186SAPI  H18X21428   5.905   3.607   8.318 -0.2459 -0.1934  0.3868
  186SAPI  H18Y21429   5.993   3.446   8.340  0.2501  0.3983 -0.2188
  186SAPI  H18Z21430   6.086   3.586   8.307  1.2349 -2.5510 -0.3025
  187SAPI   C1221431   3.181   0.176   6.126 -0.9269  0.3523 -0.8439
  187SAPI    H221432   3.217   0.269   6.176  0.0549 -1.1285  1.3732
  187SAPI    O221433   3.063   0.137   6.188 -0.4391  1.0441 -0.6401
  187SAPI   HO221434   3.086   0.134   6.281 -0.5483 -1.6038 -0.6327
  187SAPI   C1321435   3.179   0.202   5.971 -0.3120 -1.0085 -0.3977
  187SAPI    H321436   3.282   0.221   5.934  0.6693 -1.9244  1.6908
  187SAPI    O321437   3.112   0.324   5.942 -0.2960 -0.1357  0.3826
  187SAPI   HO321438   3.062   0.322   5.860 -2.0345  1.1768  1.3556
  187SAPI   C1421439   3.121   0.079   5.897 -0.7486 -0.2626  0.1103
  187SAPI    H421440   3.015   0.074   5.927 -1.3189  1.9085 -1.2829
  187SAPI    O421441   3.116   0.112   5.757 -0.2060  0.1639 -0.1504
  187SAPI   HO421442   3.066   0.043   5.713  2.1263 -2.4219  0.9435
  187SAPI   C1521443   3.209  -0.045   5.919  0.4831 -0.2570  0.2758
  187SAPI    H521444   3.305  -0.027   5.867  0.8540  1.8970  1.5583
  187SAPI    O521445   3.135  -0.155   5.869 -0.0548  0.0273 -0.4910
  187SAPI   HO521446   3.124  -0.228   5.931  0.7364  1.3516  1.3220
  187SAPI   C1621447   3.247  -0.065   6.064 -0.0745  0.0395  0.0664
  187SAPI    H621448   3.153  -0.090   6.117 -0.6341  1.9734  0.0828
  187SAPI    O621449   3.342  -0.166   6.086 -0.1629  0.0350 -0.0822
  187SAPI   HO621450   3.322  -0.195   6.175  0.5986  0.8334  0.3616
  187SAPI   C1121451   3.293   0.068   6.134 -0.8139 -0.2027  0.1841
  187SAPI    H121452   3.386   0.092   6.079 -1.2996 -0.3215 -0.7084
  187SAPI     P21453   3.439  -0.016   6.356  0.0885  0.3375 -0.3073
  187SAPI   O1321454   3.447   0.041   6.492  0.3313 -0.4367 -0.0513
  187SAPI   O1421455   3.565  -0.008   6.270 -0.1262  0.2770 -0.3758
  187SAPI   O1221456   3.317   0.064   6.278  0.2222  0.1421  0.2239
  187SAPI   O1121457   3.388  -0.164   6.359  0.4218 -0.3177 -0.4653
  187SAPI    C121458   3.268  -0.199   6.426  0.0571 -0.2987  0.5450
  187SAPI    HA21459   3.191  -0.120   6.412  1.1361  0.6892  0.0952
  187SAPI    HB21460   3.224  -0.290   6.379  2.2693 -0.0346 -2.2896
  187SAPI    C221461   3.298  -0.218   6.576  0.5567  0.5177 -0.2897
  187SAPI    HS21462   3.347  -0.131   6.624 -1.0787  0.8587  0.8401
  187SAPI   O2121463   3.372  -0.341   6.594  0.2338 -0.7262  0.4523
  187SAPI   C2121464   3.441  -0.344   6.706  1.5621 -0.2970 -0.4453
  187SAPI   O2221465   3.442  -0.258   6.794 -0.2031 -0.0720  0.3138
  187SAPI   C2221466   3.517  -0.472   6.714 -0.5814 -0.1181 -0.5653
  187SAPI   H2R21467   3.549  -0.496   6.610  4.1687  0.3176  0.5704
  187SAPI   H2S21468   3.618  -0.450   6.754 -1.2031 -0.0685  1.0569
  187SAPI    C321469   3.157  -0.234   6.654 -0.1389 -0.3156 -0.2205
  187SAPI    HX21470   3.109  -0.308   6.587 -1.4687  2.3743 -2.4505
  187SAPI    HY21471   3.096  -0.142   6.639  0.7101  0.3774  0.4478
  187SAPI   O3121472   3.162  -0.270   6.792 -0.4099 -0.2930 -0.2934
  187SAPI   C3121473   3.181  -0.168   6.882  0.5788 -0.1979  0.1231
  187SAPI   O3221474   3.195  -0.056   6.847 -0.4728  0.7560 -0.8332
  187SAPI   C3221475   3.164  -0.225   7.021  0.1832 -0.4185 -0.0038
  187SAPI   H2X21476   3.256  -0.199   7.077  1.2204  1.0153 -2.2051
  187SAPI   H2Y21477   3.143  -0.334   7.022 -0.1421 -0.4122 -2.0531
  187SAPI   C2321478   3.442  -0.587   6.783 -0.5078 -0.4299  0.4343
  187SAPI   H3R21479   3.498  -0.681   6.768 -1.6544 -0.9409 -0.8769
  187SAPI   H3S21480   3.350  -0.597   6.722  1.7069  0.0773 -3.2765
  187SAPI   C2421481   3.407  -0.561   6.940  0.1622 -0.4044 -0.3038
  187SAPI   H4R21482   3.337  -0.642   6.972  1.4404 -1.0179  1.0642
  187SAPI   H4S21483   3.350  -0.467   6.950 -1.5743 -1.3345 -0.9614
  187SAPI   C2521484   3.521  -0.563   7.036 -0.5689  0.2274  0.1800
  187SAPI   H5R21485   3.598  -0.626   6.990 -2.0549 -0.5403 -1.3701
  187SAPI   C2621486   3.533  -0.508   7.159  0.4024  0.0605  0.1246
  187SAPI   H6R21487   3.625  -0.522   7.218  0.6356 -1.2443 -0.5069
  187SAPI   C2721488   3.428  -0.418   7.221  0.2510  0.4053  0.4051
  187SAPI   H7R21489   3.412  -0.435   7.330 -3.2832  1.7554  0.2229
  187SAPI   H7S21490   3.329  -0.436   7.175  0.9275 -0.1299 -0.8750
  187SAPI   C2821491   3.475  -0.283   7.195  0.0379  0.5351 -0.0033
  187SAPI   H8R21492   3.512  -0.267   7.092  1.9711  0.4754  0.6491
  187SAPI   C2921493   3.508  -0.187   7.284  0.4335  0.6117  0.0465
  187SAPI   H9R21494   3.550  -0.096   7.239  1.3006  0.4562  0.5036
  187SAPI  C21021495   3.493  -0.185   7.430 -0.2141  0.2725  0.6530
  187SAPI  H10R21496   3.587  -0.228   7.471 -0.4622 -0.7151  0.2200
  187SAPI  H10S21497   3.404  -0.248   7.449  0.4548 -1.4967 -1.6375
  187SAPI  C21121498   3.461  -0.051   7.491  0.6000 -0.0820 -0.1620
  187SAPI  H11R21499   3.423   0.024   7.420 -1.4405 -1.1750 -0.3134
  187SAPI  C21221500   3.465  -0.022   7.617  0.0743 -0.9271 -0.5649
  187SAPI  H12R21501   3.430   0.079   7.644 -1.3404 -0.9608 -2.0881
  187SAPI  C21321502   3.515  -0.124   7.717  0.4279  0.4221 -0.3869
  187SAPI  H13R21503   3.623  -0.141   7.699  0.2284 -1.2357 -0.1596
  187SAPI  H13S21504   3.473  -0.223   7.687  2.6633 -1.1229  1.2769
  187SAPI  C21421505   3.486  -0.083   7.863 -0.5852 -0.0802  0.2974
  187SAPI  H14R21506   3.412  -0.004   7.877 -1.4340 -0.9546  0.8508
  187SAPI  C21521507   3.532  -0.148   7.968 -0.0881  0.5662  0.8092
  187SAPI  H15R21508   3.508  -0.112   8.069 -1.8593 -1.0334  1.0045
  187SAPI  C21621509   3.624  -0.272   7.964  0.4252  0.0187  0.5790
  187SAPI  H16R21510   3.595  -0.343   7.884 -1.9867  1.2365  0.2649
  187SAPI  H16S21511   3.617  -0.331   8.058  1.6787  0.9658  1.2989
  187SAPI  C21721512   3.773  -0.229   7.956  0.5749  0.4709 -0.0075
  187SAPI  H17R21513   3.799  -0.158   8.037  0.7488 -0.1989  0.5304
  187SAPI  H17S21514   3.800  -0.174   7.863 -0.8294  3.4543  1.2364
  187SAPI  C21821515   3.870  -0.351   7.979  0.2907 -0.2368  0.0493
  187SAPI  H18R21516   3.971  -0.307   7.961 -0.8204  2.2694 -0.4890
  187SAPI  H18S21517   3.845  -0.430   7.905  1.3530 -0.8360  0.3121
  187SAPI  C21921518   3.878  -0.416   8.117 -0.3422 -0.4934 -0.1316
  187SAPI  H19R21519   3.775  -0.446   8.146 -1.1501  0.3740 -1.9576
  187SAPI  H19S21520   3.912  -0.346   8.196 -0.5885 -0.2114 -0.2721
  187SAPI  C22021521   3.978  -0.532   8.102 -0.2719  0.4232 -0.2138
  187SAPI  H20R21522   4.080  -0.488   8.103 -0.7223  1.5869 -1.7687
  187SAPI  H20S21523   3.967  -0.593   8.010  1.9254  0.9222 -0.8580
  187SAPI  H20T21524   3.952  -0.593   8.192 -1.1246 -1.2219 -1.5258
  187SAPI   C3321525   3.041  -0.163   7.097  0.1424  0.9348 -1.0544
  187SAPI   H3X21526   2.954  -0.214   7.051  1.0941 -0.8139 -0.9828
  187SAPI   H3Y21527   3.033  -0.053   7.081 -2.5311  1.2194  1.3534
  187SAPI   C3421528   3.037  -0.189   7.248 -0.4179 -0.4922  0.1349
  187SAPI   H4X21529   2.936  -0.165   7.286 -1.6593 -4.0350 -0.5330
  187SAPI   H4Y21530   3.116  -0.123   7.290  0.1722  0.3044 -2.0770
  187SAPI   C3521531   3.072  -0.320   7.317  0.7001 -0.1725 -0.1465
  187SAPI   H5X21532   3.162  -0.371   7.275  0.5768  0.3825 -1.0955
  187SAPI   H5Y21533   2.990  -0.393   7.295  0.2095  0.8684 -1.9593
  187SAPI   C3621534   3.077  -0.301   7.470  0.1363 -0.4230 -0.2348
  187SAPI   H6X21535   2.984  -0.252   7.505 -0.0301 -1.4643  0.8572
  187SAPI   H6Y21536   3.156  -0.225   7.486 -0.9930  0.6981  0.1162
  187SAPI   C3721537   3.106  -0.430   7.550 -0.1373 -0.1315  0.0316
  187SAPI   H7X21538   3.210  -0.457   7.525  0.0576 -0.8812  1.5395
  187SAPI   H7Y21539   3.048  -0.519   7.516 -1.3717  0.9995 -0.9621
  187SAPI   C3821540   3.100  -0.420   7.705 -0.0356  0.1766 -0.1410
  187SAPI   H8X21541   3.125  -0.314   7.727 -2.6703  0.5447  1.4961
  187SAPI   H8Y21542   3.174  -0.491   7.749 -2.8532 -1.4909  2.2760
  187SAPI   C3921543   2.972  -0.463   7.770  0.1417  0.5948  0.1075
  187SAPI   H9X21544   2.937  -0.559   7.728  0.3662  1.1139 -1.3070
  187SAPI   H9Y21545   2.899  -0.382   7.751  2.5909  2.7796 -0.6784
  187SAPI  C31021546   2.976  -0.468   7.927  0.0163  0.5900 -1.1012
  187SAPI  H10X21547   3.019  -0.371   7.957  0.3367  0.1961 -0.2487
  187SAPI  H10Y21548   3.043  -0.551   7.960 -2.5566 -1.0762  0.3415
  187SAPI  C31121549   2.840  -0.498   7.987 -0.1236  0.0675  0.0770
  187SAPI  H11X21550   2.818  -0.607   7.976 -0.8241  0.0807  1.2463
  187SAPI  H11Y21551   2.762  -0.437   7.937  1.1743  0.4951 -1.5293
  187SAPI  C31221552   2.846  -0.487   8.145 -0.6880 -0.0257 -0.0881
  187SAPI  H12X21553   2.951  -0.494   8.181 -0.2797  0.3296 -1.1559
  187SAPI  H12Y21554   2.772  -0.555   8.192 -2.1102  2.3352  1.3381
  187SAPI  C31321555   2.797  -0.346   8.190 -0.7640  0.0605 -0.6726
  187SAPI  H13X21556   2.727  -0.299   8.117 -2.2125  1.5478  1.5589
  187SAPI  H13Y21557   2.893  -0.291   8.175 -0.6803  0.0217 -0.2828
  187SAPI  C31421558   2.740  -0.332   8.327 -0.7774  0.7700  0.6112
  187SAPI  H14X21559   2.767  -0.232   8.367 -0.8814  1.9183 -1.9587
  187SAPI  H14Y21560   2.778  -0.415   8.391  0.6927  0.0395 -1.1297
  187SAPI  C31521561   2.587  -0.343   8.330 -0.4293 -0.2918 -0.4358
  187SAPI  H15X21562   2.558  -0.440   8.287  0.3341 -1.7755  2.1445
  187SAPI  H15Y21563   2.541  -0.260   8.272  2.4690  1.5976 -0.2753
  187SAPI  C31621564   2.535  -0.323   8.475 -0.3391 -0.0677  0.4433
  187SAPI  H16X21565   2.551  -0.218   8.508 -3.1998  0.7583 -0.4599
  187SAPI  H16Y21566   2.603  -0.388   8.534  1.1347  0.9484 -0.0930
  187SAPI  C31721567   2.391  -0.369   8.484  0.8815 -0.2629 -0.1426
  187SAPI  H17X21568   2.365  -0.468   8.441 -0.7930  0.1852 -0.2205
  187SAPI  H17Y21569   2.319  -0.292   8.449  1.3859  1.4675  2.3180
  187SAPI  C31821570   2.345  -0.396   8.623 -0.5670  0.4206 -0.1486
  187SAPI  H18X21571   2.246  -0.446   8.614  0.3944 -1.1436 -3.2304
  187SAPI  H18Y21572   2.340  -0.301   8.680  1.2487 -0.3750  1.4910
  187SAPI  H18Z21573   2.412  -0.459   8.687 -0.2006  0.6832 -0.2732
  188SAPI   C1221574   4.734   1.850   5.999  0.1788 -0.1635 -0.4730
  188SAPI    H221575   4.810   1.928   6.019 -0.5482  0.7349 -1.1360
  188SAPI    O221576   4.617   1.911   5.932 -0.3098 -0.2614  0.6717
  188SAPI   HO221577   4.608   2.002   5.961  0.6932  0.0219  0.1491
  188SAPI   C1321578   4.794   1.747   5.913  0.0092 -0.4545  1.1464
  188SAPI    H321579   4.884   1.709   5.967  0.0871  1.4471  2.4697
  188SAPI    O321580   4.864   1.803   5.801  0.8019  0.8717  0.5132
  188SAPI   HO321581   4.801   1.812   5.729 -0.3981 -1.5935  1.1164
  188SAPI   C1421582   4.699   1.635   5.883 -0.5582 -0.0225  0.8314
  188SAPI    H421583   4.611   1.670   5.825 -0.0116 -2.7297 -1.9657
  188SAPI    O421584   4.758   1.539   5.795  0.3084 -0.0366  0.8146
  188SAPI   HO421585   4.773   1.586   5.712 -1.1451  1.1829  1.2006
  188SAPI   C1521586   4.642   1.573   6.011 -0.3094  0.7431 -0.4464
  188SAPI    H521587   4.724   1.523   6.068 -1.0628 -0.7875 -0.6594
  188SAPI    O521588   4.543   1.475   5.995 -0.5203  0.3477 -0.2608
  188SAPI   HO521589   4.460   1.511   6.027  0.0618  1.1023  0.4263
  188SAPI   C1621590   4.587   1.682   6.108  0.3707 -0.3518 -0.8044
  188SAPI    H621591   4.504   1.737   6.059 -0.4172  1.0554  1.8935
  188SAPI    O621592   4.537   1.639   6.233 -0.7469  0.2704 -0.8974
  188SAPI   HO621593   4.503   1.713   6.285 -1.6950  0.3207 -1.5550
  188SAPI   C1121594   4.691   1.785   6.132  0.3332 -0.5684 -0.3321
  188SAPI    H121595   4.778   1.733   6.177  1.0895  1.7517  1.0769
  188SAPI     P21596   4.743   1.971   6.314  0.3046  0.0653  0.1016
  188SAPI   O1321597   4.695   2.112   6.300  0.2277 -0.2670  0.0019
  188SAPI   O1421598   4.879   1.938   6.268  0.4172 -0.1329 -1.0131
  188SAPI   O1221599   4.636   1.887   6.219  0.0763  0.3653 -0.0701
  188SAPI   O1121600   4.716   1.911   6.458 -0.0818 -0.3124 -0.0810
  188SAPI    C121601   4.625   1.976   6.549 -0.1059 -0.8521 -0.6651
  188SAPI    HA21602   4.537   2.024   6.501  0.0441 -2.4547 -2.7090
  188SAPI    HB21603   4.582   1.893   6.610  0.6663 -1.7184 -1.2622
  188SAPI    C221604   4.694   2.081   6.635  0.0721  0.3714  0.5145
  188SAPI    HS21605   4.742   2.162   6.574 -0.6078  1.0067  0.8138
  188SAPI   O2121606   4.800   2.014   6.711  0.6211  0.2472 -0.0670
  188SAPI   C2121607   4.895   2.079   6.770 -0.4663  0.1532 -0.2984
  188SAPI   O2221608   4.894   2.200   6.785 -0.7334 -0.5637 -0.1292
  188SAPI   C2221609   5.004   1.987   6.824  0.7027  0.6409 -0.1973
  188SAPI   H2R21610   4.944   1.920   6.889  0.3770  0.7546 -0.3783
  188SAPI   H2S21611   5.042   1.925   6.740  1.8421  1.1176 -0.0566
  188SAPI    C321612   4.599   2.155   6.731 -0.3618  0.4366 -0.5243
  188SAPI    HX21613   4.515   2.188   6.666  1.3110  2.7336 -1.6376
  188SAPI    HY21614   4.654   2.243   6.770  0.8653 -0.0520 -1.0872
  188SAPI   O3121615   4.558   2.070   6.845 -0.0356 -0.4508  0.1304
  188SAPI   C3121616   4.432   2.041   6.866  0.5562 -0.4660 -0.7575
  188SAPI   O3221617   4.337   2.075   6.792 -0.3740 -0.5115  0.3365
  188SAPI   C3221618   4.412   1.976   6.996  0.2563  0.4163  0.1947
  188SAPI   H2X21619   4.502   1.915   7.019 -0.5811 -0.7489  0.4313
  188SAPI   H2Y21620   4.327   1.906   6.985 -0.8032  1.7389 -0.3298
  188SAPI   C2321621   5.122   2.058   6.888 -0.0817 -0.7606 -0.6389
  188SAPI   H3R21622   5.096   2.139   6.960  2.2682 -0.4324 -0.0600
  188SAPI   H3S21623   5.167   2.112   6.802 -0.7858  1.1980  0.1529
  188SAPI   C2421624   5.223   1.976   6.969  0.1803  0.4664 -0.0632
  188SAPI   H4R21625   5.251   1.889   6.906  1.8965  1.9566 -1.4958
  188SAPI   H4S21626   5.168   1.934   7.056  3.0694 -1.9110  0.8140
  188SAPI   C2521627   5.339   2.053   7.031  0.2978  0.3052  0.2188
  188SAPI   H5R21628   5.394   2.118   6.961 -1.3965 -0.5274 -1.9769
  188SAPI   C2621629   5.387   2.045   7.156 -0.3042 -0.5701  0.3141
  188SAPI   H6R21630   5.477   2.103   7.184  0.0423 -0.6177 -0.6605
  188SAPI   C2721631   5.334   1.958   7.264  0.2227  0.1727  0.2498
  188SAPI   H7R21632   5.229   1.924   7.249 -0.2715  2.0122 -0.7170
  188SAPI   H7S21633   5.329   2.024   7.353  1.7121  0.6577 -0.0001
  188SAPI   C2821634   5.423   1.835   7.278  0.1164 -0.2592 -0.3942
  188SAPI   H8R21635   5.444   1.790   7.181  0.1246 -0.8559 -0.1177
  188SAPI   C2921636   5.454   1.766   7.394  0.3141 -0.3718  0.1208
  188SAPI   H9R21637   5.516   1.676   7.382  2.5907  0.3863  4.3018
  188SAPI  C21021638   5.422   1.804   7.537 -0.3842 -0.4211  0.0399
  188SAPI  H10R21639   5.373   1.903   7.547 -1.0688 -0.5838 -1.4480
  188SAPI  H10S21640   5.519   1.817   7.589 -0.0559 -1.4053 -0.3039
  188SAPI  C21121641   5.335   1.709   7.614 -1.1524  0.3233  0.5633
  188SAPI  H11R21642   5.267   1.657   7.545  0.3480 -2.3706  0.9957
  188SAPI  C21221643   5.331   1.684   7.743 -0.0307  0.6602 -0.0047
  188SAPI  H12R21644   5.278   1.595   7.781  0.6048  0.2157 -0.1397
  188SAPI  C21321645   5.422   1.736   7.856  0.4987 -0.3455  0.3519
  188SAPI  H13R21646   5.521   1.750   7.808 -0.9742  2.8523 -2.1865
  188SAPI  H13S21647   5.428   1.656   7.933 -1.0559 -0.8100  0.0217
  188SAPI  C21421648   5.385   1.868   7.911  0.5027 -0.7028  0.6196
  188SAPI  H14R21649   5.372   1.950   7.839 -1.6423 -2.8868 -1.6870
  188SAPI  C21521650   5.329   1.894   8.029 -0.4987  0.0110  0.2642
  188SAPI  H15R21651   5.286   1.992   8.053 -1.4221 -0.5103  0.7592
  188SAPI  C21621652   5.307   1.805   8.146 -0.1058  1.0279 -0.6698
  188SAPI  H16R21653   5.367   1.711   8.146 -0.3082  0.8632  1.4022
  188SAPI  H16S21654   5.201   1.770   8.152  0.5585 -1.5805 -2.3186
  188SAPI  C21721655   5.329   1.883   8.274  0.2712 -0.1590 -0.0490
  188SAPI  H17R21656   5.251   1.962   8.283 -0.9382 -0.7225 -3.8768
  188SAPI  H17S21657   5.428   1.933   8.266 -0.8502  2.1734 -0.3646
  188SAPI  C21821658   5.317   1.803   8.405  0.1473 -0.2163 -0.0113
  188SAPI  H18R21659   5.225   1.741   8.398 -0.4361  0.4578  1.1874
  188SAPI  H18S21660   5.285   1.868   8.490  1.1269  2.1217 -1.3393
  188SAPI  C21921661   5.441   1.729   8.452 -0.0360  0.9480  0.0362
  188SAPI  H19R21662   5.526   1.801   8.462  0.4723  0.1994  1.4214
  188SAPI  H19S21663   5.469   1.650   8.379  2.7547  3.5344 -1.9976
  188SAPI  C22021664   5.429   1.662   8.592  0.8101  0.3396 -0.3307
  188SAPI  H20R21665   5.519   1.599   8.612 -0.1659 -1.1057 -0.3761
  188SAPI  H20S21666   5.349   1.587   8.610  0.0154  1.1901 -0.2370
  188SAPI  H20T21667   5.428   1.731   8.680 -1.0403 -1.5596  1.2427
  188SAPI   C3321668   4.380   2.066   7.115 -0.0877 -0.3466 -0.5211
  188SAPI   H3X21669   4.345   1.998   7.196  1.1074 -0.4685 -0.0917
  188SAPI   H3Y21670   4.300   2.138   7.088 -0.2670 -0.5903 -0.6490
  188SAPI   C3421671   4.507   2.127   7.173  0.8750  0.3764 -0.2703
  188SAPI   H4X21672   4.561   2.189   7.098 -0.9497  2.3882 -0.0022
  188SAPI   H4Y21673   4.578   2.044   7.195 -0.2238 -0.1442  1.4790
  188SAPI   C3521674   4.490   2.222   7.286 -0.4462  0.2200  0.1986
  188SAPI   H5X21675   4.407   2.284   7.245 -1.5756 -1.4792 -0.1660
  188SAPI   H5Y21676   4.582   2.283   7.303 -1.2435  1.2489  0.9169
  188SAPI   C3621677   4.452   2.155   7.417 -0.0676  0.5583 -0.3365
  188SAPI   H6X21678   4.503   2.060   7.443  0.7892  1.6191  2.0824
  188SAPI   H6Y21679   4.344   2.130   7.413  0.1743 -0.4470 -1.0739
  188SAPI   C3721680   4.479   2.247   7.528  0.0373 -0.0991  0.6452
  188SAPI   H7X21681   4.417   2.338   7.519 -1.5133 -0.9459  2.0986
  188SAPI   H7Y21682   4.586   2.277   7.537  0.1258 -0.4039  0.6311
  188SAPI   C3821683   4.437   2.183   7.659 -0.0702 -0.5311  0.1671
  188SAPI   H8X21684   4.329   2.164   7.641 -0.1552  0.3142 -0.2885
  188SAPI   H8Y21685   4.448   2.265   7.733 -1.2991 -0.2081  0.0075
  188SAPI   C3921686   4.505   2.057   7.713  0.0365 -1.0981 -0.4326
  188SAPI   H9X21687   4.545   1.984   7.639  0.0521 -1.4710 -0.0604
  188SAPI   H9Y21688   4.427   1.993   7.759  0.9385 -1.8917  0.0023
  188SAPI  C31021689   4.615   2.094   7.811 -0.0461 -0.2722  0.5988
  188SAPI  H10X21690   4.577   2.174   7.879  1.6410 -0.3266  1.6769
  188SAPI  H10Y21691   4.704   2.133   7.757 -1.3821  1.9722 -0.1387
  188SAPI  C31121692   4.662   1.976   7.898 -0.3430 -1.0723  0.0262
  188SAPI  H11X21693   4.574   1.913   7.922 -1.5275 -0.5150 -2.5159
  188SAPI  H11Y21694   4.719   2.006   7.988  1.1635 -0.4616 -1.0821
  188SAPI  C31221695   4.750   1.881   7.824 -0.0731 -0.3161 -0.5262
  188SAPI  H12X21696   4.847   1.931   7.802 -0.7665  1.5863  0.5554
  188SAPI  H12Y21697   4.703   1.836   7.734 -3.4053 -0.0300  0.9237
  188SAPI  C31321698   4.811   1.771   7.921  0.6707 -0.8460  0.2785
  188SAPI  H13X21699   4.732   1.705   7.964  0.7463 -0.9924  0.1920
  188SAPI  H13Y21700   4.855   1.827   8.006 -0.2471  1.0978 -0.4608
  188SAPI  C31421701   4.918   1.681   7.854  0.0749  0.1528  0.7556
  188SAPI  H14X21702   4.954   1.595   7.914  0.3229 -0.2648  0.0294
  188SAPI  H14Y21703   5.011   1.737   7.830  0.1237 -0.0550  0.4507
  188SAPI  C31521704   4.869   1.604   7.728  0.8880 -0.7437 -0.7464
  188SAPI  H15X21705   4.874   1.676   7.643  2.1752  2.9261  2.1885
  188SAPI  H15Y21706   4.763   1.573   7.742  1.0188 -0.7804  0.2064
  188SAPI  C31621707   4.959   1.480   7.701 -0.0756  1.1844 -0.0925
  188SAPI  H16X21708   4.962   1.416   7.792  1.1847 -0.6283 -1.3451
  188SAPI  H16Y21709   5.063   1.519   7.690 -0.8024  2.7649 -1.8500
  188SAPI  C31721710   4.927   1.378   7.586  0.5857 -0.7322 -0.4590
  188SAPI  H17X21711   4.938   1.431   7.489 -2.1171  0.9962  0.0637
  188SAPI  H17Y21712   4.817   1.362   7.579  0.6126 -1.9166  1.3440
  188SAPI  C31821713   5.006   1.250   7.591 -0.1184 -0.9850 -0.9857
  188SAPI  H18X21714   5.010   1.183   7.502 -2.0133 -1.7987 -0.5087
  188SAPI  H18Y21715   4.977   1.191   7.681  1.5272  0.2799  0.4465
  188SAPI  H18Z21716   5.111   1.281   7.608 -0.5692  0.5766 -0.9208
  189POPC     N21717   5.151   0.759  11.326  0.1391  0.6725  0.0458
  189POPC   C1221718   5.127   0.868  11.225  1.0326 -0.1905  0.3844
  189POPC  H12A21719   5.201   0.855  11.147  0.9191 -1.9182  0.5157
  189POPC  H12B21720   5.129   0.964  11.274 -2.4888  1.1187 -1.6914
  189POPC   C1321721   5.100   0.628  11.289 -0.1798  0.0037  0.1922
  189POPC  H13A21722   5.167   0.576  11.222 -1.6413  0.1674 -1.4729
  189POPC  H13B21723   5.088   0.565  11.376  0.6017 -1.0780 -0.4556
  189POPC  H13C21724   5.017   0.621  11.220 -0.1891  1.3038  0.0407
  189POPC   C1421725   5.305   0.744  11.344  0.1980 -0.5031  0.5400
  189POPC  H14A21726   5.332   0.655  11.400  3.0194 -0.1181 -0.0557
  189POPC  H14B21727   5.358   0.739  11.250 -0.7122  1.1308 -0.0894
  189POPC  H14C21728   5.332   0.835  11.394  0.3211  0.7346 -1.6634
  189POPC   C1521729   5.079   0.790  11.458 -0.0799 -0.2474 -0.1447
  189POPC  H15A21730   5.080   0.702  11.520 -1.0364  0.1975  0.5494
  189POPC  H15B21731   4.973   0.799  11.436 -0.1350  0.1493  0.2385
  189POPC  H15C21732   5.114   0.872  11.520  0.0634 -0.7853  0.4903
  189POPC   C1121733   4.992   0.860  11.166  0.1033 -0.2998 -0.5369
  189POPC  H11A21734   4.968   0.954  11.112  0.1187 -0.8653 -1.5599
  189POPC  H11B21735   4.921   0.854  11.251  0.4968 -0.2789 -0.2031
  189POPC     P21736   5.043   0.749  10.940  0.1268 -0.3995  0.0015
  189POPC   O1321737   5.001   0.629  10.865 -0.0962  0.3287 -0.0834
  189POPC   O1421738   5.189   0.766  10.960 -0.2062  0.2372  0.1485
  189POPC   O1221739   4.976   0.748  11.079 -0.3763 -0.2609  0.0006
  189POPC   O1121740   4.982   0.876  10.875  0.6198 -0.2947 -0.0583
  189POPC    C121741   4.858   0.883  10.805  0.7293  0.3662 -0.0771
  189POPC    HA21742   4.821   0.983  10.836 -3.3478 -1.0120  0.0630
  189POPC    HB21743   4.784   0.811  10.845  0.1415  0.5279 -0.8548
  189POPC    C221744   4.881   0.880  10.651  0.5892  0.2811 -0.0893
  189POPC    HS21745   4.938   0.969  10.618  3.6520 -0.5346  2.5276
  189POPC   O2121746   4.749   0.882  10.586  0.1265  0.3650  0.5238
  189POPC   C2121747   4.677   0.989  10.598  0.5098 -0.5952  0.4976
  189POPC   O2221748   4.702   1.088  10.668 -0.4727  0.5285  0.6250
  189POPC   C2221749   4.548   0.991  10.518  0.1613 -0.4972 -0.3994
  189POPC   H2R21750   4.576   1.039  10.422  1.7907 -4.0392 -1.8657
  189POPC   H2S21751   4.475   1.061  10.564  0.0356 -0.0622 -1.2342
  189POPC    C321752   4.965   0.763  10.585 -0.7420 -0.2786 -0.8217
  189POPC    HX21753   4.930   0.673  10.640 -2.4499  2.0482  2.2400
  189POPC    HY21754   5.071   0.778  10.613 -1.7066  1.7719  2.3433
  189POPC   O3121755   4.960   0.759  10.442  0.2244  0.0133  0.0348
  189POPC   C3121756   4.901   0.659  10.376  0.2522 -0.5582 -0.0314
  189POPC   O3221757   4.839   0.565  10.430  0.0762  0.4852 -0.2042
  189POPC   C3221758   4.920   0.678  10.227  0.1668  0.2829  0.5825
  189POPC   H2X21759   5.011   0.618  10.203 -0.2793  0.5960 -2.2134
  189POPC   H2Y21760   4.950   0.784  10.208  1.7643  0.1056  1.8496
  189POPC   C2321761   4.489   0.857  10.462 -0.4551  0.6750 -1.2944
  189POPC   H3R21762   4.419   0.819  10.540  1.4565 -1.8178 -0.6662
  189POPC   H3S21763   4.573   0.790  10.432  1.4710  1.6770  1.4157
  189POPC   C2421764   4.389   0.877  10.347 -0.1315  0.6220  0.1334
  189POPC   H4R21765   4.317   0.957  10.376 -0.7516  0.4327 -0.8149
  189POPC   H4S21766   4.346   0.778  10.321  0.7650  1.0428 -3.5407
  189POPC   C2521767   4.450   0.919  10.215 -0.4378  0.3927 -0.1839
  189POPC   H5R21768   4.549   0.869  10.199 -1.6842 -2.1693 -0.4451
  189POPC   H5S21769   4.471   1.026  10.232 -1.6606  0.3655  1.8571
  189POPC   C2621770   4.373   0.889  10.084 -0.1851 -0.8576 -0.6650
  189POPC   H6R21771   4.282   0.952  10.074  0.8823  1.0992  1.1467
  189POPC   H6S21772   4.331   0.786  10.078  0.7669 -1.2303 -1.1863
  189POPC   C2721773   4.461   0.910   9.955  0.3873  0.1908 -0.2491
  189POPC   H7R21774   4.546   0.839   9.961  0.5449  0.5043  2.7456
  189POPC   H7S21775   4.490   1.017   9.967 -1.4840  0.6090  1.0537
  189POPC   C2821776   4.389   0.890   9.820 -0.3243 -0.2592  0.0463
  189POPC   H8R21777   4.369   0.782   9.805  0.8144 -0.4181 -0.3959
  189POPC   H8S21778   4.466   0.906   9.741  0.0156  0.3991  0.5005
  189POPC   C2921779   4.261   0.971   9.794 -0.4960 -0.1831 -0.0067
  189POPC   H9121780   4.178   0.963   9.866 -0.9731 -2.7629 -0.7149
  189POPC  C21021781   4.237   1.038   9.683  0.4674 -0.0591 -0.1854
  189POPC  H10121782   4.146   1.100   9.687  1.5336  1.6365 -0.7512
  189POPC  C21121783   4.321   1.055   9.556 -0.2410  0.6829  0.2402
  189POPC  H11R21784   4.386   0.965   9.547 -0.7771  0.1751  1.3191
  189POPC  H11S21785   4.383   1.147   9.553 -0.8856  1.1015 -0.7816
  189POPC  C21221786   4.243   1.054   9.424  0.2146 -0.4922  0.3139
  189POPC  H12R21787   4.181   1.146   9.422 -1.4297 -1.5567 -1.6504
  189POPC  H12S21788   4.180   0.963   9.412  2.7406 -2.2287 -0.6636
  189POPC  C21321789   4.331   1.077   9.301 -0.3275  0.1702 -0.6660
  189POPC  H13R21790   4.389   0.985   9.281 -0.0203 -0.0588  1.1680
  189POPC  H13S21791   4.394   1.163   9.330 -0.8894  0.7604 -1.1455
  189POPC  C21421792   4.258   1.121   9.176  0.9481  0.3811  0.2623
  189POPC  H14R21793   4.312   1.199   9.119  0.0987  1.5780  1.0540
  189POPC  H14S21794   4.171   1.176   9.217  0.2994  0.8290 -1.6038
  189POPC  C21521795   4.217   1.002   9.087  0.1091  0.4088  0.2372
  189POPC  H15R21796   4.168   0.922   9.145  0.1020  0.5545  0.4334
  189POPC  H15S21797   4.309   0.949   9.054 -0.6813  0.2244 -1.8578
  189POPC  C21621798   4.122   1.039   8.975  0.8103  0.8613  0.1618
  189POPC  H16R21799   4.025   1.066   9.022  0.1428  0.5307 -1.0046
  189POPC  H16S21800   4.108   0.954   8.905  1.7001  0.3577  0.5625
  189POPC  C21721801   4.166   1.156   8.885 -0.6330 -0.1532  0.6572
  189POPC  H17R21802   4.183   1.256   8.930  1.4453 -0.9126  1.6649
  189POPC  H17S21803   4.084   1.166   8.810  0.3293 -3.2321 -0.9740
  189POPC  C21821804   4.294   1.124   8.804  0.3985 -0.2704 -0.5075
  189POPC  H18R21805   4.348   1.208   8.755  1.4191 -1.4462 -1.4880
  189POPC  H18S21806   4.274   1.051   8.723 -0.4559 -0.3353 -0.2538
  189POPC  H18T21807   4.372   1.097   8.878  2.3722  0.2417 -2.3041
  189POPC   C3321808   4.812   0.620  10.132 -0.3381 -0.0373  0.1376
  189POPC   H3X21809   4.720   0.681  10.141 -1.8150 -2.4152  2.5011
  189POPC   H3Y21810   4.784   0.514  10.148 -0.9776  0.1203  0.0754
  189POPC   C3421811   4.856   0.614   9.981 -0.3047  0.9154  0.8506
  189POPC   H4X21812   4.925   0.527   9.978  1.0544  1.9078  2.0401
  189POPC   H4Y21813   4.923   0.700   9.961  0.4547 -0.0116 -0.9118
  189POPC   C3521814   4.742   0.596   9.886  0.1697 -0.1159 -0.7300
  189POPC   H5X21815   4.652   0.626   9.943  1.9345 -2.1949  3.5589
  189POPC   H5Y21816   4.722   0.491   9.857 -2.5460  0.0402  0.2722
  189POPC   C3621817   4.764   0.666   9.748  0.3112 -0.5372  0.4015
  189POPC   H6X21818   4.858   0.622   9.707  0.4380 -0.1145  0.2322
  189POPC   H6Y21819   4.785   0.775   9.748  0.8622 -0.6403 -0.0652
  189POPC   C3721820   4.650   0.639   9.646  0.3249  0.3012 -0.0739
  189POPC   H7X21821   4.560   0.698   9.676 -0.2329 -1.5818  2.2568
  189POPC   H7Y21822   4.629   0.533   9.620  0.2305  0.7694 -2.0868
  189POPC   C3821823   4.692   0.694   9.504  0.2370 -0.2071  0.7581
  189POPC   H8X21824   4.785   0.638   9.478 -0.0906  0.3554 -1.9244
  189POPC   H8Y21825   4.692   0.804   9.514 -1.2559 -0.2543  1.4885
  189POPC   C3921826   4.581   0.657   9.395 -0.5235  0.3456 -0.1465
  189POPC   H9X21827   4.483   0.689   9.436 -0.4664  2.5583 -1.5514
  189POPC   H9Y21828   4.594   0.547   9.395  2.2314  0.5418  2.3369
  189POPC  C31021829   4.605   0.727   9.262  0.0911  0.9258  0.1658
  189POPC  H10X21830   4.707   0.710   9.222 -0.0910 -0.1644  0.1509
  189POPC  H10Y21831   4.595   0.836   9.282  2.7924  0.9748  1.7373
  189POPC  C31121832   4.497   0.681   9.158 -0.3836 -0.8587 -0.3668
  189POPC  H11X21833   4.466   0.765   9.093 -2.7115 -0.4077  1.2177
  189POPC  H11Y21834   4.410   0.656   9.222  0.3980  1.4771  1.7355
  189POPC  C31221835   4.533   0.553   9.078 -0.9503 -0.0787 -0.0792
  189POPC  H12X21836   4.594   0.484   9.140  0.2299  1.4652  0.5562
  189POPC  H12Y21837   4.603   0.588   8.999  0.2771  1.2147  1.4954
  189POPC  C31321838   4.423   0.472   9.019 -0.0138  0.4612  0.0631
  189POPC  H13X21839   4.328   0.460   9.076  0.6183  0.4353  1.1449
  189POPC  H13Y21840   4.465   0.371   9.002 -1.3398 -0.1532  0.2785
  189POPC  C31421841   4.378   0.521   8.885  0.6655  1.0722  0.1360
  189POPC  H14X21842   4.458   0.544   8.811  0.7979  0.2972  0.0363
  189POPC  H14Y21843   4.320   0.614   8.906 -3.6050 -1.1312 -0.7624
  189POPC  C31521844   4.294   0.408   8.824  0.8629  0.2029  0.7507
  189POPC  H15X21845   4.227   0.451   8.746 -0.7938 -2.6697  0.4699
  189POPC  H15Y21846   4.217   0.376   8.897 -0.2995  2.2518  0.4973
  189POPC  C31621847   4.372   0.291   8.766  0.2566 -0.2877 -0.6783
  189POPC  H16X21848   4.414   0.234   8.851  0.5585  1.5286  0.4543
  189POPC  H16Y21849   4.469   0.322   8.720  1.1512 -1.4172  0.3797
  189POPC  H16Z21850   4.300   0.236   8.703 -3.0858  2.0421  0.8317
  190POPC     N21851   0.438   3.086  11.036  0.7105  0.5149 -0.7536
  190POPC   C1221852   0.342   3.147  10.929 -0.4099  0.2708 -0.5056
  190POPC  H12A21853   0.408   3.220  10.883 -0.0993 -0.6870 -1.6479
  190POPC  H12B21854   0.261   3.203  10.973 -0.6680  0.6153 -1.3984
  190POPC   C1321855   0.487   3.194  11.129 -0.1123  0.2275  0.9302
  190POPC  H13A21856   0.532   3.273  11.070  1.2995 -0.9084  0.4477
  190POPC  H13B21857   0.402   3.240  11.178  0.9947  1.7003  1.5295
  190POPC  H13C21858   0.564   3.160  11.195  1.1994  2.7818  0.8324
  190POPC   C1421859   0.356   2.998  11.123  0.1411 -0.3493 -0.0926
  190POPC  H14A21860   0.295   3.051  11.195  0.1763  1.3675 -1.2767
  190POPC  H14B21861   0.292   2.939  11.059 -0.7163  1.5334 -1.0464
  190POPC  H14C21862   0.417   2.935  11.186  0.2994 -0.5843 -0.4805
  190POPC   C1521863   0.554   3.022  10.972  0.0220 -1.0059  0.4051
  190POPC  H15A21864   0.529   2.950  10.896 -0.7929  0.0869 -0.4070
  190POPC  H15B21865   0.615   2.980  11.050  0.9399  1.5364  1.1498
  190POPC  H15C21866   0.610   3.099  10.921  0.5775 -2.1439 -0.7547
  190POPC   C1121867   0.275   3.052  10.822 -0.0275  0.7539 -0.1487
  190POPC  H11A21868   0.358   2.998  10.772 -1.8553  0.4779 -3.1347
  190POPC  H11B21869   0.227   3.107  10.739 -2.2655  1.1859  1.3541
  190POPC     P21870   0.045   3.018  10.932 -0.1771 -0.4590  0.1564
  190POPC   O1321871   0.061   3.124  11.029 -0.5456  0.2402  0.3013
  190POPC   O1421872  -0.034   2.898  10.968  0.0374  0.4370 -0.4240
  190POPC   O1221873   0.186   2.955  10.886  0.1344  0.0124 -0.2645
  190POPC   O1121874  -0.020   3.082  10.798 -0.6536  0.2466 -0.5948
  190POPC    C121875  -0.022   3.002  10.675 -0.1822  0.7746 -0.5002
  190POPC    HA21876  -0.063   2.903  10.702 -1.0321  1.2207 -0.1199
  190POPC    HB21877   0.083   2.992  10.639 -0.3874  2.9634 -1.8297
  190POPC    C221878  -0.122   3.058  10.571 -0.6450 -0.5753 -0.1654
  190POPC    HS21879  -0.219   3.066  10.625 -1.9944  2.4704 -2.6943
  190POPC   O2121880  -0.130   2.963  10.458 -0.1298 -0.0269 -0.0532
  190POPC   C2121881  -0.254   2.947  10.414 -0.0903 -0.2933 -0.2414
  190POPC   O2221882  -0.350   3.008  10.460 -0.2227  0.3262 -0.1224
  190POPC   C2221883  -0.249   2.830  10.319 -1.1814  0.3101  0.1828
  190POPC   H2R21884  -0.283   2.747  10.385 -0.4007  1.1995  1.7711
  190POPC   H2S21885  -0.148   2.805  10.280 -2.1505 -1.6202 -1.2780
  190POPC    C321886  -0.094   3.204  10.522 -0.4987 -0.6353 -0.9329
  190POPC    HX21887   0.015   3.220  10.531 -0.5894  0.7699 -2.0663
  190POPC    HY21888  -0.132   3.266  10.606 -0.6319  0.2482 -1.6320
  190POPC   O3121889  -0.149   3.234  10.392  0.3525  1.0454 -0.3065
  190POPC   C3121890  -0.205   3.357  10.378 -0.8431 -0.8278 -0.5878
  190POPC   O3221891  -0.188   3.447  10.455 -0.2509  0.5316 -0.8710
  190POPC   C3221892  -0.281   3.362  10.244  0.0646 -0.5495  0.5006
  190POPC   H2X21893  -0.384   3.373  10.284 -0.3730 -0.9823 -0.4673
  190POPC   H2Y21894  -0.292   3.259  10.205 -3.0070  0.4160 -1.5022
  190POPC   C2321895  -0.344   2.828  10.204  0.3380 -0.1163  0.1444
  190POPC   H3R21896  -0.433   2.892  10.217  0.7967  0.4008  0.7661
  190POPC   H3S21897  -0.385   2.729  10.173 -0.3709  0.1776  0.1342
  190POPC   C2421898  -0.279   2.880  10.081 -0.8305 -0.9879 -0.0618
  190POPC   H4R21899  -0.190   2.824  10.046 -1.1391 -2.3290  1.2173
  190POPC   H4S21900  -0.236   2.972  10.127  1.1524 -1.8924  0.0209
  190POPC   C2521901  -0.370   2.903   9.957 -0.3114 -0.1614  0.0501
  190POPC   H5R21902  -0.305   2.925   9.870  0.0877  0.5813  0.5212
  190POPC   H5S21903  -0.434   2.992   9.973 -0.3629 -0.1076 -0.4462
  190POPC   C2621904  -0.459   2.789   9.917  0.3063 -0.0664 -0.7871
  190POPC   H6R21905  -0.525   2.753   9.999  1.7041  0.1104  0.4664
  190POPC   H6S21906  -0.404   2.697   9.886 -1.4632 -1.6668  0.6152
  190POPC   C2721907  -0.553   2.830   9.801  0.5894  0.0195 -0.2584
  190POPC   H7R21908  -0.595   2.932   9.812 -0.6288 -0.4274 -0.6546
  190POPC   H7S21909  -0.639   2.762   9.815  0.9334 -0.5504 -0.8489
  190POPC   C2821910  -0.498   2.803   9.661  0.2762 -0.0024 -0.2913
  190POPC   H8R21911  -0.478   2.693   9.654  0.6921  0.1788 -2.8552
  190POPC   H8S21912  -0.396   2.845   9.655  1.2149 -2.1406 -0.3688
  190POPC   C2921913  -0.600   2.833   9.557  0.1796 -0.5275  0.3008
  190POPC   H9121914  -0.703   2.827   9.595  0.0047  0.3529 -0.0141
  190POPC  C21021915  -0.569   2.890   9.432  0.1756  0.4946  0.1878
  190POPC  H10121916  -0.646   2.911   9.357  1.2695  1.3778 -0.7355
  190POPC  C21121917  -0.431   2.930   9.385  0.1740  1.2274  0.5048
  190POPC  H11R21918  -0.363   2.842   9.385 -1.7794 -0.3834 -0.3222
  190POPC  H11S21919  -0.382   3.009   9.446 -0.1073  0.7927  1.3191
  190POPC  C21221920  -0.446   2.979   9.240  0.0196  0.6671  0.1588
  190POPC  H12R21921  -0.517   3.064   9.239 -0.2072  0.4927  1.0768
  190POPC  H12S21922  -0.488   2.905   9.169  3.1619  0.8173 -2.1025
  190POPC  C21321923  -0.317   3.034   9.174 -0.2667 -0.0942  0.3001
  190POPC  H13R21924  -0.235   2.959   9.169 -0.9968 -0.8577 -3.5518
  190POPC  H13S21925  -0.282   3.123   9.231  1.5849 -0.6387  0.1053
  190POPC  C21421926  -0.337   3.086   9.031  0.2287  0.1856 -0.0102
  190POPC  H14R21927  -0.419   3.161   9.028 -2.7628 -2.8228  0.6163
  190POPC  H14S21928  -0.386   3.005   8.974 -0.7913  1.1789 -0.5916
  190POPC  C21521929  -0.205   3.133   8.966 -0.2034 -0.4132 -0.1592
  190POPC  H15R21930  -0.174   3.221   9.026 -1.3990  0.1649 -0.3548
  190POPC  H15S21931  -0.227   3.154   8.860  2.3721 -0.5920 -0.7889
  190POPC  C21621932  -0.101   3.022   8.963 -0.1868  0.1227 -0.6107
  190POPC  H16R21933  -0.152   2.933   8.920  1.9579 -2.1038  1.2063
  190POPC  H16S21934  -0.066   2.979   9.059 -2.0642 -0.4230 -0.1164
  190POPC  C21721935   0.017   3.071   8.873 -0.3679  0.0942  0.0172
  190POPC  H17R21936   0.033   3.177   8.902 -0.0175  0.1862 -0.4991
  190POPC  H17S21937  -0.007   3.057   8.765  0.5349 -0.2606 -0.1426
  190POPC  C21821938   0.144   3.004   8.907 -0.4716 -0.2217 -0.2386
  190POPC  H18R21939   0.166   2.999   9.016  3.5494  0.5484 -0.8868
  190POPC  H18S21940   0.230   3.053   8.858  0.1846 -0.9205  0.2009
  190POPC  H18T21941   0.155   2.905   8.858  1.5859 -0.5134  0.7302
  190POPC   C3321942  -0.251   3.467  10.132 -0.3505  0.2015  0.6122
  190POPC   H3X21943  -0.186   3.547  10.172  0.2744 -0.0692  0.1677
  190POPC   H3Y21944  -0.348   3.507  10.096 -1.0380 -2.2029 -0.4691
  190POPC   C3421945  -0.162   3.417  10.010  0.2736 -0.9093 -0.3991
  190POPC   H4X21946  -0.203   3.326   9.962  0.4966 -0.2116 -1.9741
  190POPC   H4Y21947  -0.056   3.408  10.041  0.3150  1.7938  0.4853
  190POPC   C3521948  -0.160   3.529   9.899  0.1399  0.4186  0.2052
  190POPC   H5X21949  -0.107   3.620   9.933  1.3924  0.0403 -0.6358
  190POPC   H5Y21950  -0.263   3.563   9.876  0.5276  2.1403  0.8567
  190POPC   C3621951  -0.094   3.490   9.767  0.0416 -0.0117 -0.5670
  190POPC   H6X21952  -0.130   3.391   9.731 -0.7017  0.4153 -1.0090
  190POPC   H6Y21953   0.014   3.472   9.786  0.4905  0.3433 -2.5577
  190POPC   C3721954  -0.119   3.586   9.656  0.1670 -0.2345 -0.2480
  190POPC   H7X21955  -0.078   3.688   9.673 -0.6126  0.2099 -0.9105
  190POPC   H7Y21956  -0.229   3.600   9.644 -0.0394 -0.5779  1.1733
  190POPC   C3821957  -0.061   3.538   9.522 -0.6722  0.6577 -0.1468
  190POPC   H8X21958  -0.104   3.436   9.509 -1.0971  0.7718  0.3051
  190POPC   H8Y21959   0.048   3.522   9.531 -0.6297 -3.5982 -4.4074
  190POPC   C3921960  -0.101   3.610   9.393 -0.5278  0.0551 -0.2452
  190POPC   H9X21961  -0.067   3.716   9.390 -1.8328  0.5416  1.0554
  190POPC   H9Y21962  -0.211   3.629   9.397 -0.3693  0.8324  1.4847
  190POPC  C31021963  -0.060   3.532   9.267 -0.0003 -0.2086  1.1693
  190POPC  H10X21964  -0.097   3.429   9.280  0.0768 -0.4132 -0.1324
  190POPC  H10Y21965   0.051   3.524   9.259 -0.0412 -0.4110  0.8268
  190POPC  C31121966  -0.116   3.600   9.146  0.0631 -0.5239 -0.3424
  190POPC  H11X21967  -0.079   3.705   9.154  1.6426 -1.2072  2.8915
  190POPC  H11Y21968  -0.228   3.599   9.144  0.0508  0.4174 -1.6094
  190POPC  C31221969  -0.058   3.527   9.019  0.6337 -0.4343  0.9367
  190POPC  H12X21970  -0.074   3.418   9.017 -2.7641 -0.0118 -0.3835
  190POPC  H12Y21971   0.050   3.542   8.998  0.4248 -0.7472 -0.4806
  190POPC  C31321972  -0.120   3.591   8.890 -0.1712 -0.2125 -0.4822
  190POPC  H13X21973  -0.154   3.690   8.929 -1.3571 -0.5448 -0.6158
  190POPC  H13Y21974  -0.206   3.531   8.853  0.5320 -1.9090  0.5616
  190POPC  C31421975  -0.022   3.634   8.779  0.9179  0.2760  0.2236
  190POPC  H14X21976   0.033   3.548   8.736 -1.9949  0.0105 -3.4770
  190POPC  H14Y21977   0.064   3.695   8.815  1.5375  0.1124 -0.9187
  190POPC  C31521978  -0.095   3.699   8.661  0.0343  0.6647 -0.2649
  190POPC  H15X21979  -0.137   3.799   8.687  2.8933  2.1982 -1.0679
  190POPC  H15Y21980  -0.163   3.625   8.616 -0.4640  1.1931 -0.3932
  190POPC  C31621981   0.006   3.728   8.547 -0.3101 -0.1503 -0.8020
  190POPC  H16X21982   0.049   3.637   8.500  1.4421  1.0859 -1.6639
  190POPC  H16Y21983   0.096   3.780   8.587 -0.2174 -0.5638 -0.4674
  190POPC  H16Z21984  -0.043   3.796   8.474 -1.2456  0.2966  0.1962
  191POPC     N21985   1.295   2.247   5.992 -0.3295 -0.0010 -0.3356
  191POPC   C1221986   1.220   2.180   6.103 -0.4342  0.1120  0.2458
  191POPC  H12A21987   1.268   2.085   6.122  1.1500  0.3826 -2.0069
  191POPC  H12B21988   1.127   2.151   6.055 -0.2295 -2.2758  1.1537
  191POPC   C1321989   1.338   2.152   5.879  0.7071 -0.6466 -0.1892
  191POPC  H13A21990   1.255   2.109   5.827  1.1725 -0.4899 -1.0846
  191POPC  H13B21991   1.401   2.208   5.811  1.2127 -1.0843 -0.0916
  191POPC  H13C21992   1.381   2.069   5.933 -1.6473  0.4921  3.8352
  191POPC   C1421993   1.217   2.357   5.927 -0.6719  1.1009  0.1003
  191POPC  H14A21994   1.200   2.435   5.999 -0.2611  0.8908  0.4313
  191POPC  H14B21995   1.259   2.396   5.835  2.7814 -1.6015  0.3013
  191POPC  H14C21996   1.118   2.319   5.908 -0.1476 -0.2913  0.0114
  191POPC   C1521997   1.424   2.304   6.042 -0.3607  0.2947 -0.5500
  191POPC  H15A21998   1.476   2.216   6.075  1.5612  1.3855 -0.5544
  191POPC  H15B21999   1.407   2.372   6.124  1.9059  0.7010 -0.3559
  191POPC  H15C22000   1.485   2.342   5.961  0.0889  2.6686  0.8136
  191POPC   C1122001   1.186   2.259   6.230  0.2865  0.2011 -0.0689
  191POPC  H11A22002   1.281   2.303   6.265  0.0694  1.5063 -1.0141
  191POPC  H11B22003   1.145   2.190   6.307  0.6659  0.1160  0.0591
  191POPC     P22004   1.101   2.513   6.232 -0.0410  0.1886 -0.0135
  191POPC   O1322005   0.978   2.579   6.189  0.0898 -0.4645  0.6006
  191POPC   O1422006   1.224   2.568   6.178 -0.0867 -0.0039 -0.6335
  191POPC   O1222007   1.086   2.358   6.200 -0.6373 -0.5800 -0.3243
  191POPC   O1122008   1.111   2.506   6.390  0.3397 -0.1001 -0.1383
  191POPC    C122009   1.017   2.426   6.466  0.2789 -0.7873  0.0606
  191POPC    HA22010   1.075   2.358   6.532 -0.9369 -1.9819 -0.0365
  191POPC    HB22011   0.961   2.354   6.402  1.7888 -2.0634  0.1046
  191POPC    C222012   0.920   2.506   6.558  0.7725  0.1470 -0.0875
  191POPC    HS22013   0.853   2.567   6.492  0.1090  1.1967  1.4881
  191POPC   O2122014   0.992   2.588   6.638  0.2723 -0.2806  0.5066
  191POPC   C2122015   0.954   2.715   6.660  0.3805 -0.3175 -0.6813
  191POPC   O2222016   0.852   2.762   6.619 -0.4212 -0.7748 -0.0842
  191POPC   C2222017   1.054   2.784   6.759 -0.0491  1.3457  0.0789
  191POPC   H2R22018   1.155   2.770   6.713 -0.6938  0.3072 -1.0726
  191POPC   H2S22019   1.054   2.724   6.853 -0.8869  1.7345  0.3379
  191POPC    C322020   0.820   2.417   6.651 -0.3933 -0.5672  0.1196
  191POPC    HX22021   0.886   2.337   6.691 -1.8629 -2.5929 -1.3239
  191POPC    HY22022   0.740   2.369   6.591 -2.2021  1.1716  1.0202
  191POPC   O3122023   0.779   2.497   6.763  0.1557  0.5683  0.0264
  191POPC   C3122024   0.654   2.544   6.758 -0.7713 -0.1266  0.3365
  191POPC   O3222025   0.574   2.523   6.670  0.0610  0.6578  0.2427
  191POPC   C3222026   0.634   2.623   6.885  0.6649 -0.0090 -0.1236
  191POPC   H2X22027   0.713   2.702   6.886 -0.7979  1.5383 -1.4341
  191POPC   H2Y22028   0.650   2.553   6.970 -0.8013  1.4053  1.3965
  191POPC   C2322029   1.028   2.934   6.788  0.0871  0.4210  1.0357
  191POPC   H3R22030   0.982   2.983   6.700  1.0659 -0.3390  0.0838
  191POPC   H3S22031   1.123   2.990   6.798  1.2110 -0.6330 -2.5485
  191POPC   C2422032   0.927   2.958   6.906  0.3429  0.2607 -0.2000
  191POPC   H4R22033   0.823   2.923   6.887 -0.4810  1.7769  1.2149
  191POPC   H4S22034   0.913   3.068   6.905 -0.5715  0.1458 -0.8916
  191POPC   C2522035   0.987   2.916   7.035 -0.5070 -0.4555  0.1431
  191POPC   H5R22036   1.097   2.926   7.023 -0.6112 -1.0014 -1.6119
  191POPC   H5S22037   0.973   2.807   7.052  2.6300 -0.9243  0.2925
  191POPC   C2622038   0.938   3.000   7.157  0.9966  0.2462  0.4233
  191POPC   H6R22039   0.828   2.980   7.162  1.1691 -1.1437 -0.6950
  191POPC   H6S22040   0.943   3.107   7.126 -2.2394  0.4280  0.1133
  191POPC   C2722041   1.001   2.960   7.286 -0.3484  0.0466  0.7386
  191POPC   H7R22042   1.109   2.958   7.259 -0.4911  0.6635  0.0699
  191POPC   H7S22043   0.969   2.859   7.319 -0.1585  0.3708  1.9385
  191POPC   C2822044   0.986   3.057   7.397  0.2262  1.1290 -0.2174
  191POPC   H8R22045   1.021   3.155   7.357  0.4881  0.7736 -0.8601
  191POPC   H8S22046   1.051   3.023   7.480 -2.0986 -0.5293  1.0525
  191POPC   C2922047   0.856   3.074   7.461  1.4676  0.3957  0.0226
  191POPC   H9122048   0.776   3.060   7.387 -0.0470  0.8990  1.5092
  191POPC  C21022049   0.818   3.083   7.593 -0.5620 -0.2182  0.5085
  191POPC  H10122050   0.714   3.077   7.627 -1.3026  0.4914 -1.4713
  191POPC  C21122051   0.921   3.089   7.704 -0.3547  0.2801 -0.2658
  191POPC  H11R22052   1.016   3.132   7.666  0.7105  0.1213  2.0423
  191POPC  H11S22053   0.942   2.986   7.740 -0.9364 -0.4123 -1.8283
  191POPC  C21222054   0.886   3.191   7.810  0.5890  0.3429 -0.8719
  191POPC  H12R22055   0.851   3.290   7.776 -1.2632  0.8539  2.1020
  191POPC  H12S22056   0.980   3.193   7.869  0.4011 -0.5993 -0.5163
  191POPC  C21322057   0.783   3.139   7.913  0.0590  0.6966 -0.3570
  191POPC  H13R22058   0.813   3.047   7.967 -1.3170  1.2782  1.4970
  191POPC  H13S22059   0.690   3.121   7.855 -0.9886 -1.0433  1.7200
  191POPC  C21422060   0.753   3.246   8.019  0.0729  0.1293 -0.6716
  191POPC  H14R22061   0.649   3.236   8.058 -0.7901  1.8422 -2.3504
  191POPC  H14S22062   0.752   3.348   7.974 -1.7194  1.1909  1.5489
  191POPC  C21522063   0.847   3.242   8.143 -0.3333 -0.4840  0.2604
  191POPC  H15R22064   0.944   3.281   8.107 -1.3168  2.9995  1.0023
  191POPC  H15S22065   0.870   3.141   8.184  1.2066  0.4070  1.7147
  191POPC  C21622066   0.804   3.336   8.248 -0.0923  0.3716 -0.2396
  191POPC  H16R22067   0.696   3.317   8.266 -0.1271 -0.2217 -1.0098
  191POPC  H16S22068   0.826   3.435   8.204  2.0420 -0.0424 -0.2558
  191POPC  C21722069   0.873   3.321   8.378  0.4826  0.4888  0.2823
  191POPC  H17R22070   0.980   3.350   8.376  0.8657 -0.7233  1.6412
  191POPC  H17S22071   0.871   3.214   8.410  0.0253  0.3319 -0.2640
  191POPC  C21822072   0.801   3.384   8.499 -0.4282 -0.0052  0.2959
  191POPC  H18R22073   0.883   3.414   8.567  1.6835 -0.7347 -1.7802
  191POPC  H18S22074   0.733   3.310   8.547  1.5771 -1.2571  1.3444
  191POPC  H18T22075   0.726   3.462   8.474 -1.2285 -0.6497  0.6428
  191POPC   C3322076   0.496   2.694   6.889 -0.0649 -0.1132 -0.4189
  191POPC   H3X22077   0.417   2.627   6.849 -0.3062  0.2867 -0.6204
  191POPC   H3Y22078   0.505   2.786   6.827  0.5582 -0.4586 -0.8589
  191POPC   C3422079   0.458   2.739   7.032 -0.5037 -0.1621  0.0298
  191POPC   H4X22080   0.449   2.654   7.103 -1.0275  0.6542  0.9683
  191POPC   H4Y22081   0.362   2.793   7.017  0.6950  2.9345  2.4281
  191POPC   C3522082   0.561   2.847   7.077 -0.0935  0.2923 -0.0668
  191POPC   H5X22083   0.561   2.933   7.007 -0.2342 -1.1177 -1.8827
  191POPC   H5Y22084   0.666   2.810   7.076  0.1370  0.9173  0.4607
  191POPC   C3622085   0.534   2.908   7.210 -0.1970  0.5973 -0.9886
  191POPC   H6X22086   0.429   2.945   7.207 -0.8481 -1.1475 -0.9640
  191POPC   H6Y22087   0.584   3.007   7.219  0.3959  0.1721  0.8622
  191POPC   C3722088   0.550   2.818   7.335 -0.5493 -0.3045 -0.9791
  191POPC   H7X22089   0.658   2.794   7.341 -0.8199 -1.0936  2.3695
  191POPC   H7Y22090   0.495   2.724   7.313 -0.3346  0.1597 -3.9568
  191POPC   C3822091   0.486   2.891   7.452 -0.7322  0.3156  0.6350
  191POPC   H8X22092   0.377   2.889   7.429 -0.2997 -0.8676 -1.5324
  191POPC   H8Y22093   0.525   2.996   7.453 -0.3833  0.1880  1.4786
  191POPC   C3922094   0.494   2.823   7.591 -0.2784  0.3844  0.1523
  191POPC   H9X22095   0.601   2.795   7.599 -0.7564 -2.0551 -1.0390
  191POPC   H9Y22096   0.442   2.726   7.601  0.5922  0.0731  1.9723
  191POPC  C31022097   0.468   2.911   7.712  0.7383 -0.0014  0.5159
  191POPC  H10X22098   0.357   2.912   7.721  0.5941  0.1999 -1.0114
  191POPC  H10Y22099   0.480   3.020   7.695 -0.9949  0.1461  0.0308
  191POPC  C31122100   0.510   2.849   7.843  0.1051  0.0315  0.2398
  191POPC  H11X22101   0.620   2.840   7.840  0.1777  0.8889  0.0681
  191POPC  H11Y22102   0.460   2.750   7.845 -0.7178  0.4203 -0.1871
  191POPC  C31222103   0.460   2.918   7.970 -0.2131  0.1654 -0.0112
  191POPC  H12X22104   0.351   2.935   7.981 -0.6063 -1.5825 -0.8252
  191POPC  H12Y22105   0.511   3.017   7.975 -1.6962  0.9325  0.6707
  191POPC  C31322106   0.499   2.840   8.099 -0.1803 -0.0137 -0.2707
  191POPC  H13X22107   0.601   2.798   8.084  0.0565  1.2244 -2.4875
  191POPC  H13Y22108   0.421   2.762   8.109 -0.9645  0.6813 -0.8214
  191POPC  C31422109   0.479   2.928   8.224  0.0247 -0.2911 -0.3707
  191POPC  H14X22110   0.387   2.990   8.217 -0.6133 -1.2013 -0.2055
  191POPC  H14Y22111   0.569   2.992   8.230 -0.5299  0.4148  0.6474
  191POPC  C31522112   0.463   2.853   8.358 -0.1294  0.5016  0.4051
  191POPC  H15X22113   0.554   2.795   8.384 -1.0302 -0.5583  1.3199
  191POPC  H15Y22114   0.374   2.786   8.354 -0.8892  1.4975  0.2271
  191POPC  C31622115   0.438   2.946   8.473 -0.4994  0.1903  0.2586
  191POPC  H16X22116   0.528   3.011   8.482 -0.2695  0.2241 -1.7869
  191POPC  H16Y22117   0.409   2.905   8.572 -0.9385  0.5341  0.2746
  191POPC  H16Z22118   0.352   3.013   8.453  0.7493  1.8040  0.0864
  192POPC     N22119   5.134   4.663   6.260  0.2175  0.1188  0.3416
  192POPC   C1222120   5.258   4.660   6.344  0.1387  0.0577 -0.2456
  192POPC  H12A22121   5.247   4.726   6.429  0.2823  2.1595 -1.7644
  192POPC  H12B22122   5.334   4.700   6.279 -0.3348 -0.2957 -1.0330
  192POPC   C1322123   5.081   4.803   6.252 -0.3772 -0.1599  0.7518
  192POPC  H13A22124   5.006   4.817   6.176 -1.2958 -1.1721  1.4405
  192POPC  H13B22125   5.045   4.836   6.348  0.3987  0.2697  0.9030
  192POPC  H13C22126   5.154   4.869   6.208 -2.7146  0.7718 -2.0077
  192POPC   C1422127   5.160   4.615   6.115 -0.5607  0.0409  0.0803
  192POPC  H14A22128   5.240   4.543   6.113  0.3842  1.0695 -0.6693
  192POPC  H14B22129   5.068   4.594   6.062 -1.5812  1.0294  1.3664
  192POPC  H14C22130   5.202   4.697   6.059  0.2803  0.2373  0.9772
  192POPC   C1522131   5.029   4.579   6.318 -0.4846  0.0029  0.1863
  192POPC  H15A22132   4.933   4.587   6.268 -1.1204 -2.4321  0.9128
  192POPC  H15B22133   5.013   4.609   6.420  3.0853 -0.0152  0.8688
  192POPC  H15C22134   5.062   4.478   6.330 -0.1761  0.1213  0.3299
  192POPC   C1122135   5.305   4.512   6.385  0.8602 -0.4698 -0.1386
  192POPC  H11A22136   5.218   4.474   6.443  1.2893  0.0720  0.9088
  192POPC  H11B22137   5.392   4.525   6.454  1.3656 -0.0185 -0.8439
  192POPC     P22138   5.468   4.394   6.228 -0.2919 -0.2129 -0.0747
  192POPC   O1322139   5.549   4.518   6.196  0.0447  0.4963  0.5794
  192POPC   O1422140   5.452   4.308   6.111 -0.2499  0.2008 -0.6401
  192POPC   O1222141   5.327   4.423   6.272  0.2055 -0.3578 -0.0431
  192POPC   O1122142   5.530   4.317   6.348 -0.1658 -0.0322  0.9934
  192POPC    C122143   5.466   4.212   6.418 -1.2202  0.1268  0.4148
  192POPC    HA22144   5.433   4.128   6.354  1.6577 -0.0871 -0.9651
  192POPC    HB22145   5.379   4.256   6.471 -1.1342 -0.9615  1.4775
  192POPC    C222146   5.554   4.158   6.540 -0.2755 -0.7131 -0.4225
  192POPC    HS22147   5.499   4.083   6.600 -0.0033  0.2871  1.1117
  192POPC   O2122148   5.580   4.269   6.621  0.2935 -0.0346 -0.4994
  192POPC   C2122149   5.475   4.297   6.706 -0.1978 -0.4394  0.4198
  192POPC   O2222150   5.376   4.228   6.717 -0.5171  0.3102 -0.0028
  192POPC   C2222151   5.505   4.438   6.765  0.3437  0.7053 -0.4674
  192POPC   H2R22152   5.485   4.507   6.680  2.4804 -2.3870 -3.7839
  192POPC   H2S22153   5.612   4.444   6.793  0.3475  2.4379 -0.7207
  192POPC    C322154   5.688   4.085   6.499 -0.3822  0.7232 -0.1848
  192POPC    HX22155   5.758   4.165   6.467 -0.5596  0.4485 -1.3061
  192POPC    HY22156   5.668   4.024   6.408 -0.3825  0.6788 -0.1550
  192POPC   O3122157   5.749   3.999   6.608 -0.4511 -0.9953  0.2117
  192POPC   C3122158   5.861   3.945   6.581 -0.1722 -0.4947  0.0796
  192POPC   O3222159   5.920   3.951   6.475  0.2286 -0.0725 -0.0008
  192POPC   C3222160   5.929   3.880   6.712  0.4820  0.4891  1.1251
  192POPC   H2X22161   6.021   3.833   6.672 -0.9435 -1.0462 -0.5683
  192POPC   H2Y22162   5.854   3.806   6.749  0.3668  0.8334  1.5903
  192POPC   C2322163   5.407   4.474   6.881 -0.7381  0.8565  0.6015
  192POPC   H3R22164   5.301   4.464   6.850 -0.5791 -2.2815  0.7887
  192POPC   H3S22165   5.417   4.582   6.908  0.7773  0.8488  0.1712
  192POPC   C2422166   5.433   4.399   7.005 -0.5107 -0.1301 -0.3190
  192POPC   H4R22167   5.421   4.289   7.000  1.7015 -0.4634  0.3148
  192POPC   H4S22168   5.349   4.431   7.070 -2.0851 -1.3577 -1.6720
  192POPC   C2522169   5.565   4.425   7.083 -0.7634  0.9174  0.5987
  192POPC   H5R22170   5.562   4.533   7.109  0.9297  0.8655  1.1642
  192POPC   H5S22171   5.659   4.401   7.029 -0.2615  1.5325  1.1878
  192POPC   C2622172   5.574   4.345   7.215  0.2423  0.4278 -0.4976
  192POPC   H6R22173   5.590   4.237   7.198  1.3741  0.5596 -0.3430
  192POPC   H6S22174   5.478   4.348   7.270  0.0312 -5.0746 -0.0775
  192POPC   C2722175   5.686   4.396   7.308 -0.5142  0.0107 -0.0814
  192POPC   H7R22176   5.692   4.507   7.302  1.1967 -0.1046 -1.2520
  192POPC   H7S22177   5.777   4.357   7.257  1.1788  1.2431  1.8125
  192POPC   C2822178   5.676   4.345   7.457  0.1261 -0.1138  0.7310
  192POPC   H8R22179   5.654   4.237   7.455  2.9526 -0.7745 -1.4194
  192POPC   H8S22180   5.595   4.403   7.507 -1.0420 -2.7793  2.1000
  192POPC   C2922181   5.804   4.373   7.523  0.3048 -0.4620  0.0236
  192POPC   H9122182   5.880   4.429   7.465 -0.8923  0.5235 -0.6381
  192POPC  C21022183   5.827   4.341   7.650 -0.0452  0.7754 -0.7896
  192POPC  H10122184   5.914   4.392   7.696  2.1326 -0.3668 -3.3582
  192POPC  C21122185   5.731   4.270   7.740  0.2163  0.2706  0.0567
  192POPC  H11R22186   5.748   4.160   7.734  0.8248  0.4366 -2.9434
  192POPC  H11S22187   5.624   4.289   7.714  1.0933  1.5159 -3.1730
  192POPC  C21222188   5.743   4.314   7.886  1.1810 -0.3969  0.3196
  192POPC  H12R22189   5.654   4.262   7.929  0.8575 -0.5488 -0.5119
  192POPC  H12S22190   5.737   4.425   7.885  3.5824 -0.1893 -1.5189
  192POPC  C21322191   5.868   4.269   7.954 -0.9149 -0.4324  0.0099
  192POPC  H13R22192   5.952   4.339   7.938 -2.2366  1.3353  0.5131
  192POPC  H13S22193   5.886   4.169   7.908  1.1404  1.4999 -3.8074
  192POPC  C21422194   5.862   4.261   8.111 -0.2284  0.1334 -0.2414
  192POPC  H14R22195   5.966   4.250   8.148 -0.4568  0.9816  0.6800
  192POPC  H14S22196   5.804   4.169   8.136 -0.3875  0.6219  1.2960
  192POPC  C21522197   5.798   4.380   8.187 -0.8621  0.3036  0.2674
  192POPC  H15R22198   5.711   4.418   8.130  0.1957  3.6976  0.6590
  192POPC  H15S22199   5.873   4.462   8.194 -0.1191 -0.3473  0.0473
  192POPC  C21622200   5.749   4.343   8.329  0.6819  0.9486 -0.1504
  192POPC  H16R22201   5.843   4.322   8.384  1.1912 -0.8252 -1.5882
  192POPC  H16S22202   5.676   4.261   8.312 -1.2376  2.5607 -0.0512
  192POPC  C21722203   5.680   4.463   8.407 -0.0281  0.0168  0.2355
  192POPC  H17R22204   5.749   4.546   8.434  0.0577 -0.3299  1.1248
  192POPC  H17S22205   5.636   4.428   8.503 -1.6649 -0.8742 -0.7953
  192POPC  C21822206   5.569   4.532   8.313 -0.2995 -0.2495 -0.2462
  192POPC  H18R22207   5.517   4.465   8.241 -0.6506  0.0590 -0.2840
  192POPC  H18S22208   5.613   4.620   8.262  1.1579  0.2959  1.8250
  192POPC  H18T22209   5.489   4.578   8.375 -0.3568  1.6858 -1.6332
  192POPC   C3322210   5.947   3.971   6.831  0.0541 -0.2988  0.4683
  192POPC   H3X22211   5.844   4.008   6.855  0.9890  2.0113  1.2137
  192POPC   H3Y22212   6.005   4.063   6.810 -0.2570 -0.0098  0.8318
  192POPC   C3422213   5.995   3.901   6.954 -0.4494 -0.3265  0.7309
  192POPC   H4X22214   6.092   3.850   6.937  0.6981  2.3619 -1.5680
  192POPC   H4Y22215   5.912   3.834   6.982 -0.2867 -0.5475  0.6834
  192POPC   C3522216   6.011   4.001   7.063  0.2737  0.0838  0.3998
  192POPC   H5X22217   5.918   4.056   7.088  0.0053 -0.9725  1.9139
  192POPC   H5Y22218   6.089   4.075   7.035  1.3036 -0.9908  0.3473
  192POPC   C3622219   6.050   3.950   7.206  0.4643  1.0456  0.0722
  192POPC   H6X22220   6.127   3.870   7.203 -0.5756  0.0372 -0.4525
  192POPC   H6Y22221   5.969   3.891   7.254  1.9596 -0.7972  0.4904
  192POPC   C3722222   6.084   4.061   7.310  0.1542  0.2370 -0.4159
  192POPC   H7X22223   5.993   4.124   7.316  0.1468  0.2783 -0.8988
  192POPC   H7Y22224   6.173   4.114   7.268  0.3051 -1.5951 -2.5862
  192POPC   C3822225   6.119   4.005   7.442 -0.3243 -0.4242  0.1010
  192POPC   H8X22226   6.205   3.935   7.428  1.3276  1.0746  2.1798
  192POPC   H8Y22227   6.037   3.944   7.485 -0.5249  1.8690  3.3334
  192POPC   C3922228   6.131   4.117   7.543 -0.0072  0.6118  0.8800
  192POPC   H9X22229   6.035   4.174   7.541 -0.0177  0.5944 -1.2764
  192POPC   H9Y22230   6.212   4.180   7.501 -1.1459  0.1710 -2.2418
  192POPC  C31022231   6.158   4.066   7.683  0.4461  0.3113 -0.1867
  192POPC  H10X22232   6.238   3.989   7.687 -0.6464 -0.9221  4.5593
  192POPC  H10Y22233   6.067   4.012   7.717  1.7958 -2.7711 -1.1874
  192POPC  C31122234   6.213   4.171   7.782  0.0779  0.3255 -0.8242
  192POPC  H11X22235   6.138   4.253   7.779  0.4099  0.6365 -0.7095
  192POPC  H11Y22236   6.303   4.214   7.733  0.5793  0.0926 -0.1211
  192POPC  C31222237   6.243   4.133   7.920  0.3410  0.1395 -0.2793
  192POPC  H12X22238   6.324   4.057   7.926  1.4232  1.3603  1.0774
  192POPC  H12Y22239   6.157   4.077   7.964  1.9823 -1.7141  0.7749
  192POPC  C31322240   6.284   4.251   8.011 -0.2749 -0.0653 -1.1328
  192POPC  H13X22241   6.212   4.335   7.999 -0.6850 -0.2241  0.1307
  192POPC  H13Y22242   6.384   4.281   7.972  1.3661 -1.8611  1.4535
  192POPC  C31422243   6.298   4.224   8.161 -0.0172  0.6800 -0.1069
  192POPC  H14X22244   6.357   4.130   8.173  0.6592  1.0755 -0.2557
  192POPC  H14Y22245   6.200   4.189   8.199  0.1089 -1.9234 -1.8776
  192POPC  C31522246   6.362   4.349   8.232  0.8389  0.8366 -0.2016
  192POPC  H15X22247   6.287   4.430   8.228  0.5625  0.5468 -1.3823
  192POPC  H15Y22248   6.456   4.381   8.182  3.1907 -2.4733  1.6600
  192POPC  C31622249   6.410   4.310   8.375 -0.3276  0.6354  0.0249
  192POPC  H16X22250   6.470   4.216   8.373 -0.5518  0.4776 -2.7795
  192POPC  H16Y22251   6.319   4.294   8.438 -0.4260  2.2278  0.3216
  192POPC  H16Z22252   6.483   4.387   8.409 -0.0704  1.0989 -1.5295
  193SOD    SOD22253   1.121   3.981  14.809  0.0216 -0.2891 -0.0705
  194SOD    SOD22254   1.088   6.696  10.832  0.0612  0.3001  0.7275
  195SOD    SOD22255   6.267   4.528   4.520 -0.6075  0.0845  0.0594
  196SOD    SOD22256   2.352   1.792  14.751  0.4273  0.1850 -0.4192
  197SOD    SOD22257   0.788   2.804   0.387  0.1993  0.3161 -0.6334
  198SOD    SOD22258   1.984   2.372  10.621  0.1276  0.1515 -0.0177
  199SOD    SOD22259   1.871   5.483   1.065  0.2226  0.0038  0.4140
  200SOD    SOD22260   5.752   5.085   5.129 -0.2057  0.0475 -0.5910
  201SOD    SOD22261   6.156   0.406  13.294 -0.7813 -0.1869  0.0023
  202SOD    SOD22262   4.321   1.882   0.236 -0.1051 -0.3407  0.2233
  203SOD    SOD22263   5.405   4.515   3.036  0.4437 -0.0545 -0.1118
  204SOD    SOD22264   5.543   0.173  12.972  0.0973 -0.2993 -0.1014
  205SOD    SOD22265   0.320   5.466  16.826 -0.1975 -0.0685  0.0746
  206SOD    SOD22266   4.256   1.053  11.708  0.1828  0.4435 -0.0173
  207SOD    SOD22267   6.328   6.160  15.479  0.6241  0.0241  0.3798
  208SOD    SOD22268   3.317   0.707   5.225 -0.1960 -0.1509  0.0180
  209SOD    SOD22269   4.886   2.897  15.057  0.2022 -0.0591 -0.5622
  210SOD    SOD22270   2.636   0.226   0.795  0.3509  0.0863  0.2977
  211SOD    SOD22271   3.192   6.579  16.624 -0.0497 -0.0828  0.4128
  212SOD    SOD22272   6.347   3.478   1.636 -0.3162 -0.2299 -0.4500
  213SOD    SOD22273   1.906   6.685  12.409 -0.3969  0.3539 -0.5255
  214SOD    SOD22274   0.104   2.856   6.151  0.0681 -0.5554 -0.2101
  215SOD    SOD22275   5.661   3.035  10.603  0.1722 -0.1525  0.1279
  216SOD    SOD22276   0.176   2.036   4.444 -0.2635 -0.0235 -0.5001
  217SOD    SOD22277   0.068   6.561  12.795  0.2374 -0.2247 -0.0407
  218SOD    SOD22278   0.771   1.768  10.698 -0.2153 -0.0057 -0.0231
  219SOD    SOD22279   5.044   0.919   6.385  0.3786 -0.2324 -0.0843
  220SOD    SOD22280   2.834   0.155  14.620 -0.1076 -0.5433 -0.4357
  221SOD    SOD22281   3.210   5.981  12.430  0.0198 -0.3093  0.0537
  222SOD    SOD22282   0.251   2.866  16.718  0.1185  0.0616 -0.2914
  223SOD    SOD22283   1.805   4.910   5.820 -0.1870 -0.5640  0.3427
  224SOD    SOD22284   0.293   4.675  11.030 -0.0895  0.3371  0.4266
  225SOD    SOD22285   1.327   1.955   0.210 -0.0161  0.1817  0.5525
  226SOD    SOD22286   4.038   5.074   0.778  0.3438 -0.0378 -0.0550
  227SOD    SOD22287   0.735   2.261  15.554 -0.3120 -0.6402 -0.5280
  228SOD    SOD22288   1.033   3.483   1.488 -0.3575  0.1909  0.2311
  229SOD    SOD22289   4.620   3.901  16.965  0.1984  0.1071  0.3785
  230SOD    SOD22290   4.755   5.040  10.892 -0.0385 -0.3012  0.0944
  231SOD    SOD22291   3.604   5.981   3.794 -0.0646 -0.1401 -0.1724
  232SOD    SOD22292   4.738   6.356   5.711  0.4937 -0.5158  0.0363
  233SOD    SOD22293   6.583   6.748   5.495 -0.4475  0.2624  0.0330
  234SOD    SOD22294   1.820   5.689  10.623  0.1016  0.1145 -0.0953
  235SOD    SOD22295   4.287   6.371  13.663  0.2001 -0.0496  0.1174
  236SOD    SOD22296   0.604   6.675  17.009 -0.1655  0.4161 -0.6115
  237SOD    SOD22297   2.842   0.477   5.639  0.2121 -0.1255  0.0148
  238SOD    SOD22298   4.590   5.424  13.481 -0.1104 -0.3190  0.2429
  239SOD    SOD22299   1.819   1.870   6.379  0.1716  0.1893 -0.0221
  240SOD    SOD22300   2.064   4.588  10.774 -0.3396 -0.2311  0.3429
  241SOD    SOD22301   1.049   1.953   4.529  0.6524  0.3772 -0.1048
  242SOD    SOD22302   3.207   2.011   6.346 -0.4341 -0.8382 -0.2105
  243SOD    SOD22303   1.377   5.889  12.561  0.1413  0.3105 -0.2038
  244SOD    SOD22304   0.090   0.877   3.286  0.3044  0.5215 -0.1212
  245SOD    SOD22305   6.366   1.597   4.253 -0.3778 -0.5445  0.3088
  246SOD    SOD22306   3.945   0.706  10.678 -0.0929  0.0693 -0.6216
  247SOD    SOD22307   4.230   1.109  12.362  0.2080 -0.1809  0.2171
  248SOD    SOD22308   0.646   1.281  11.446  0.1153  0.1449 -0.2878
  249SOD    SOD22309   1.108   3.875   5.288  0.0792  0.0163 -0.4606
  250SOD    SOD22310   0.025   4.206  16.340 -0.0870 -0.2125 -0.1883
  251SOD    SOD22311   4.382   4.092   4.055  0.2083  0.3210  0.0747
  252SOD    SOD22312   3.690   4.436   5.500 -0.0303  0.2077  0.0835
  253SOD    SOD22313   0.432   4.380   4.491 -0.1783 -0.2518  0.7460
  254SOD    SOD22314   2.457   4.998  14.717  0.4858  0.1680 -0.2810
  255SOD    SOD22315   5.001   4.672  11.344  0.1491 -0.0331  0.0416
  256SOD    SOD22316   4.349   2.414   4.132 -0.2363  0.1750 -0.4418
  257SOD    SOD22317   5.351   1.232  15.052  0.0349 -0.2741  0.1855
  258SOD    SOD22318   2.326   1.541   4.642  0.3730  0.6053  0.4069
  259SOD    SOD22319   6.580   3.723   5.467 -0.0889 -0.3853 -0.1164
  260SOD    SOD22320   4.080   4.364   0.136 -0.0869 -0.2204 -0.7976
  261SOD    SOD22321   2.147   3.165  10.805 -0.2706 -0.1643  0.1954
  262SOD    SOD22322   4.072   3.776  13.628  0.4623  0.2147 -0.3700
  263SOD    SOD22323   5.044   0.832   0.280  0.2124 -0.3424  0.2924
  264SOD    SOD22324   6.025   3.364  11.765 -0.0458  0.6232 -0.0712
  265SOD    SOD22325   5.578   4.039   1.355  0.1042  0.1013  0.0429
  266SOD    SOD22326   5.332   0.997   5.314 -0.3251 -0.0293  0.1590
  267SOD    SOD22327   1.804   3.398  15.530  0.1147 -0.5570 -0.0499
  268SOD    SOD22328   5.094   1.822  12.283  0.2643  0.3557 -0.4936
  269SOD    SOD22329   6.724   4.948  11.691  0.1224 -0.3334 -0.6932
  270CLA    CLA22330   4.533   6.375  14.397 -0.0200  0.3275  0.1767
  271CLA    CLA22331   2.553   1.526  15.167 -0.1780  0.5789 -0.4051
  272CLA    CLA22332   6.332   3.040  12.293  0.3542 -0.1022 -0.5543
  273CLA    CLA22333   4.915   0.371  16.568  0.7037  0.2050 -0.1494
  274CLA    CLA22334   6.605   4.547  16.559 -0.1944 -0.0924  0.0584
  275CLA    CLA22335   1.617   3.809  15.962  0.0257  0.4675  0.1843
  276CLA    CLA22336   1.114   3.618   1.017  0.0818 -0.3043  0.1942
  277CLA    CLA22337   2.199   2.118  15.878  0.1445 -0.2571 -0.3578
  278CLA    CLA22338   6.492   2.823   2.028 -0.1537 -0.1506 -0.3048
  279CLA    CLA22339   4.120   5.475   4.103 -0.0443 -0.3513  0.0439
  280CLA    CLA22340   3.533   5.873  14.384  0.1176 -0.4770 -0.1850
  281CLA    CLA22341   1.137   1.241  13.148 -0.0084  0.3389 -0.4085
  282CLA    CLA22342   2.736   2.348  12.724  0.4099 -0.1325 -0.1517
  283CLA    CLA22343   0.830   4.593   4.432 -0.2255  0.2836 -0.0192
  284CLA    CLA22344   4.864   4.435  12.851 -0.4329 -0.1791 -0.1685
  285CLA    CLA22345   2.177   1.734   0.584  0.0219  0.1592  0.0425
  286CLA    CLA22346   5.565   4.226   4.008  0.0159  0.4278  0.1995
  287CLA    CLA22347   5.838   3.221  16.932 -0.3606 -0.1504 -0.1062
  288CLA    CLA22348   2.910   0.957   4.838  0.2857  0.3891  0.4087
  289CLA    CLA22349   2.637   2.371   5.558 -0.2002  0.2913 -0.1376
  290CLA    CLA22350   6.110   6.450  13.199 -0.1547  0.1354  0.1206
  291CLA    CLA22351   0.384   4.892  16.203 -0.0482 -0.0264  0.0447
  292CLA    CLA22352   0.863   0.692  12.220  0.2884 -0.3946 -0.1274
  293CLA    CLA22353   1.469   6.113  13.019  0.3387  0.0185  0.0942
  294CLA    CLA22354   1.802   3.183  11.840 -0.1768  0.1408 -0.5039
  295CLA    CLA22355   3.874   5.162   5.404  0.1157  0.2449 -0.6229
  296CLA    CLA22356   5.504   5.535   2.486  0.4048 -0.1661  0.4409
  297CLA    CLA22357   3.799   3.607   4.852  0.1485 -0.2035  0.2630
  298CLA    CLA22358   4.134   3.712  17.056 -0.1923 -0.1725 -0.0092
  299CLA    CLA22359   4.444   1.151  12.717 -0.5393  0.8500  0.1594
  300CLA    CLA22360   2.934   2.895  13.496 -0.2260  0.1760  0.4888
  301CLA    CLA22361   6.475   1.018   2.024 -0.1903 -0.0784 -0.2924
  302CLA    CLA22362   1.990   4.845   5.651 -0.0316  0.0551  0.0464
  303CLA    CLA22363   4.091   1.413   4.248 -0.1743  0.0373  0.0114
  304CLA    CLA22364   3.941   3.469   2.400 -0.2097  0.2899 -0.1293
  305CLA    CLA22365   3.804   0.290  16.845 -0.0976 -0.0965  0.0059
  306CLA    CLA22366   3.232   6.046  17.089  0.1369  0.3385  0.5414
  307CLA    CLA22367   6.415   4.885   1.869  0.2281 -0.4838 -0.2733
  308CLA    CLA22368   1.936   2.502   5.760 -0.0254 -0.1446 -0.1408
  309CLA    CLA22369   1.121   0.157  12.568  0.2863 -0.3225 -0.0303
  310CLA    CLA22370   2.706   4.231  14.968  0.3790 -0.1493  0.0809
  311CLA    CLA22371   1.645   5.112  16.487 -0.1129  0.2980 -0.3233
  312CLA    CLA22372   4.850   0.117  14.850  0.0270 -0.1417 -0.1317
  313CLA    CLA22373   4.488   4.529  16.986 -0.3678  0.1970 -0.0785
  314CLA    CLA22374   4.001   4.514  14.410 -0.2240 -0.0532 -0.2810
  315CLA    CLA22375   4.952   4.437   1.457  0.3379 -0.4688  0.6047
  316CLA    CLA22376   0.467   3.816  15.579 -0.2286  0.2601 -0.5393
  317CLA    CLA22377   4.084   1.027   3.650 -0.3435  0.1936  0.1060
  318CLA    CLA22378   5.912   5.824  15.436 -0.4583  0.2790 -0.0061
  319CLA    CLA22379   4.993   1.577  14.848  0.2766 -0.2812 -0.6047
  320CLA    CLA22380   1.681   1.468  16.788 -0.0432  0.5035  0.0225
  321CLA    CLA22381   5.231   4.906  11.707  0.4950 -0.4202  0.1213
  322CLA    CLA22382   0.870   3.609  13.882  0.4152 -0.5584 -0.2309
  323TIP3   OH222383   0.493   5.919  16.357 -0.2998  0.2442  0.3918
  323TIP3    H122384   0.400   5.908  16.336  0.1412  0.1662 -1.8162
  323TIP3    H222385   0.538   5.899  16.275  1.5318  2.5919  0.7208
  324TIP3   OH222386   2.907   3.166  17.024 -0.1551 -0.0444 -0.0019
  324TIP3    H122387   2.893   3.154  17.118  1.4587 -0.6039  0.1917
  324TIP3    H222388   2.820   3.157  16.986 -0.8852  0.4732  1.4558
  325TIP3   OH222389   4.486   5.087  11.557 -0.4176  0.4340  0.0832
  325TIP3    H122390   4.580   5.077  11.573 -0.5729  0.6976  1.2823
  325TIP3    H222391   4.473   5.182  11.552 -0.0319  0.4228 -4.1692
  326TIP3   OH222392   0.002   3.879  10.578  0.0033  0.4196 -0.4439
  326TIP3    H122393   0.017   3.833  10.661  1.3536 -0.7357 -1.2960
  326TIP3    H222394   0.079   3.860  10.526 -0.5166  1.7028 -1.7353
  327TIP3   OH222395   5.630   3.194  11.934  0.0853 -0.1447 -0.4222
  327TIP3    H122396   5.668   3.228  12.015  2.4611 -1.1212 -1.0403
  327TIP3    H222397   5.576   3.266  11.901 -1.0719  0.2313  2.0359
  328TIP3   OH222398   0.959   5.366  12.216 -0.4389 -0.0075  0.1421
  328TIP3    H122399   0.889   5.376  12.151 -0.0612  0.2749 -0.2268
  328TIP3    H222400   1.038   5.350  12.164 -0.0476  0.7061  0.5090
  329TIP3   OH222401   5.923   0.591  12.359 -0.4005  0.1644  0.4692
  329TIP3    H122402   5.855   0.656  12.373 -1.1007 -0.2022 -0.9788
  329TIP3    H222403   5.944   0.557  12.446 -0.8045  1.5236  1.1140
  330TIP3   OH222404   6.332   0.735  12.593 -0.2823 -0.2766  0.6414
  330TIP3    H122405   6.417   0.773  12.613 -0.1815 -0.5828  0.8031
  330TIP3    H222406   6.296   0.791  12.524 -0.7687  0.9619  1.8593
  331TIP3   OH222407   1.875   5.438   2.909 -0.2399 -0.1234  0.0060
  331TIP3    H122408   1.831   5.512   2.951 -0.5030 -0.1224 -0.2684
  331TIP3    H222409   1.901   5.471   2.824  2.1124  0.5166  0.9054
  332TIP3   OH222410   0.972   0.710   5.460 -0.2646 -0.3343 -0.1761
  332TIP3    H122411   0.954   0.754   5.377  2.0665 -0.0655 -0.6140
  332TIP3    H222412   1.046   0.653   5.441  0.5697  0.0196  1.7819
  333TIP3   OH222413   2.441   1.160  11.546  0.1041  0.7839  0.2401
  333TIP3    H122414   2.353   1.125  11.555  0.9412 -1.9538 -1.1154
  333TIP3    H222415   2.494   1.108  11.607  1.2155  0.3922 -1.0066
  334TIP3   OH222416   4.128   2.949  10.920 -0.1474  0.4635  0.3887
  334TIP3    H122417   4.132   2.861  10.882 -1.2476  0.6299 -0.1389
  334TIP3    H222418   4.126   3.008  10.845  0.3179  0.9373  0.7395
  335TIP3   OH222419   2.074   6.366   5.802 -0.0997  0.0353  0.1783
  335TIP3    H122420   2.152   6.312   5.816  0.1641  0.3387 -0.0884
  335TIP3    H222421   2.010   6.306   5.764  0.1050 -0.1498  0.1227
  336TIP3   OH222422   4.069   4.013  12.803  0.1218  0.1918 -0.1911
  336TIP3    H122423   4.096   4.075  12.871  0.6885  0.5821 -0.7607
  336TIP3    H222424   4.128   4.030  12.730 -0.1458 -0.5768 -0.5989
  337TIP3   OH222425   2.814   1.817   4.496  0.1052 -0.8501  0.2013
  337TIP3    H122426   2.905   1.837   4.477 -0.4564  0.5845 -1.2811
  337TIP3    H222427   2.817   1.756   4.570  2.1697  2.0520  2.7718
  338TIP3   OH222428   2.098   4.419   4.768 -0.0890  0.3774  0.0493
  338TIP3    H122429   2.015   4.408   4.722 -1.1445  0.2264  1.8891
  338TIP3    H222430   2.094   4.507   4.805  0.0866 -0.0138  1.0349
  339TIP3   OH222431   6.217   1.323  12.327  0.6323 -0.0036  0.7282
  339TIP3    H122432   6.138   1.344  12.279  1.1852  1.6270  0.4860
  339TIP3    H222433   6.214   1.378  12.405  1.7655  0.4833  0.4563
  340TIP3   OH222434   0.743   6.553   0.100 -0.7031  0.2125 -0.3109
  340TIP3    H122435   0.677   6.618   0.125 -1.6987 -0.6063 -0.7711
  340TIP3    H222436   0.761   6.505   0.181 -2.8969 -1.5117 -0.7488
  341TIP3   OH222437   3.400   4.165  16.870  0.4812  0.3093  0.0858
  341TIP3    H122438   3.437   4.158  16.783 -2.9219  1.9824 -1.6910
  341TIP3    H222439   3.433   4.248  16.905  2.8101 -0.9154  1.0581
  342TIP3   OH222440   0.211   0.301  13.962  0.3653 -0.0938 -0.4893
  342TIP3    H122441   0.220   0.393  13.988  1.1994 -0.1854 -0.4075
  342TIP3    H222442   0.172   0.258  14.038  0.9350  0.0079 -0.1335
  343TIP3   OH222443   5.020   4.409  16.692  0.2483  0.1608 -0.3348
  343TIP3    H122444   5.013   4.402  16.788  3.0190 -1.5802 -0.1428
  343TIP3    H222445   4.941   4.365  16.659  0.5020 -1.5948  1.2040
  344TIP3   OH222446   3.638   4.885  15.009  0.5964 -0.5215 -0.8011
  344TIP3    H122447   3.689   4.852  14.936 -0.2345 -0.8582 -1.2394
  344TIP3    H222448   3.701   4.934  15.062  0.8707  1.2407 -2.6427
  345TIP3   OH222449   0.912   4.368   4.965  0.5716 -0.1828  0.3502
  345TIP3    H122450   0.893   4.275   4.972  2.2911 -0.7465 -1.6358
  345TIP3    H222451   0.888   4.391   4.875  0.6895  1.1816  0.6382
  346TIP3   OH222452   4.887   3.548  16.685 -0.7317 -0.1040 -0.7340
  346TIP3    H122453   4.950   3.503  16.628 -1.4645 -0.4807 -1.2671
  346TIP3    H222454   4.803   3.537  16.640 -1.0323  1.2388 -0.5385
  347TIP3   OH222455   0.317   4.408  15.349  0.1011  0.6442 -0.0764
  347TIP3    H122456   0.232   4.370  15.330  0.3740  0.1691 -0.3816
  347TIP3    H222457   0.312   4.497  15.315  0.3049  0.0625 -1.7285
  348TIP3   OH222458   6.036   4.561   3.160 -0.4604 -0.0316  0.3807
  348TIP3    H122459   6.071   4.576   3.248 -0.4234  0.9125  0.2227
  348TIP3    H222460   6.072   4.633   3.108 -1.4841  0.1459 -0.1102
  349TIP3   OH222461   1.267   4.329   5.611 -0.2184 -0.0543 -0.0398
  349TIP3    H122462   1.172   4.341   5.610 -0.1475  0.6066  0.3020
  349TIP3    H222463   1.287   4.306   5.702  0.0772  1.0670  0.1981
  350TIP3   OH222464   3.255   4.485  16.813 -0.6397 -0.4267  0.0494
  350TIP3    H122465   3.342   4.451  16.791  0.3585  1.3810  0.9492
  350TIP3    H222466   3.240   4.554  16.749 -1.5297 -0.8721 -0.2345
  351TIP3   OH222467   5.030   1.356  16.468 -0.4732  0.2021  0.1834
  351TIP3    H122468   5.119   1.323  16.453 -0.4920 -0.3314  1.1805
  351TIP3    H222469   5.026   1.437  16.417  0.6973  0.4075  0.3879
  352TIP3   OH222470   3.231   5.088   1.021  0.0063  0.3022 -0.6060
  352TIP3    H122471   3.192   5.163   1.065 -1.9217 -0.9896  0.0299
  352TIP3    H222472   3.193   5.012   1.066  1.1422 -1.0471 -1.8487
  353TIP3   OH222473   2.172   1.266   2.550 -0.3664 -0.9573  0.1454
  353TIP3    H122474   2.100   1.329   2.565  0.3796 -0.1597  0.4585
  353TIP3    H222475   2.129   1.190   2.512 -1.2801 -0.1877 -0.4198
  354TIP3   OH222476   4.705   0.902  12.255  0.2813 -0.0122 -0.3567
  354TIP3    H122477   4.715   0.809  12.277  0.4811 -0.3660 -1.8359
  354TIP3    H222478   4.753   0.948  12.323  0.1105 -0.9869  0.4502
  355TIP3   OH222479   1.859   6.637   4.389 -0.4465 -0.0973  0.3739
  355TIP3    H122480   1.797   6.566   4.372 -0.3341 -0.3865  1.1725
  355TIP3    H222481   1.812   6.716   4.362  0.6276 -0.6574 -3.8758
  356TIP3   OH222482   0.838   3.355   5.919 -0.6786 -0.4576  0.3645
  356TIP3    H122483   0.893   3.400   5.984 -2.7669  3.0617 -0.0416
  356TIP3    H222484   0.765   3.321   5.970  0.4733 -2.8373  0.5404
  357TIP3   OH222485   2.820   0.352   5.883  0.2326  0.2241  0.9342
  357TIP3    H122486   2.791   0.261   5.880 -2.4564  1.0167  0.7641
  357TIP3    H222487   2.825   0.373   5.976  1.1401 -0.1324  0.9827
  358TIP3   OH222488   3.552   6.638  10.729  0.5361 -0.6446 -0.1308
  358TIP3    H122489   3.546   6.629  10.634 -3.6014  2.8329 -0.4809
  358TIP3    H222490   3.581   6.728  10.743 -0.0755 -0.7227  1.8508
  359TIP3   OH222491   0.704   4.638   5.394  0.0145  0.0731  0.4195
  359TIP3    H122492   0.798   4.658   5.398 -0.0126  1.4944 -2.7490
  359TIP3    H222493   0.698   4.562   5.336 -0.7461 -0.8654  1.6947
  360TIP3   OH222494   5.889   2.727  15.738 -0.3363 -0.0157  0.6534
  360TIP3    H122495   5.939   2.787  15.682 -1.8203  1.6539  1.0298
  360TIP3    H222496   5.833   2.679  15.678  0.9699 -1.2215  0.3320
  361TIP3   OH222497   1.504   1.920  15.456 -0.0387 -0.4241  0.0757
  361TIP3    H122498   1.440   1.857  15.424  0.0376 -1.1861  1.3617
  361TIP3    H222499   1.462   1.959  15.533 -0.3107  1.5095 -0.9799
  362TIP3   OH222500   1.510   6.764  14.607  0.8077 -0.0271  0.7235
  362TIP3    H122501   1.558   6.733  14.530  0.7849  0.1821  0.6243
  362TIP3    H222502   1.418   6.760  14.581  0.5729 -2.4252  1.6102
  363TIP3   OH222503   0.780   1.356   4.744 -0.1368  0.2879  0.1481
  363TIP3    H122504   0.719   1.295   4.785 -1.6448  1.1247 -0.7352
  363TIP3    H222505   0.783   1.431   4.803 -0.9845  0.7725 -0.3909
  364TIP3   OH222506   2.081   2.191  16.344  0.4716  0.1225  0.5760
  364TIP3    H122507   2.007   2.194  16.404 -1.3701  0.5669 -1.5780
  364TIP3    H222508   2.143   2.256  16.379 -1.1205  1.3385  1.2676
  365TIP3   OH222509   2.694   1.859   5.928  0.0480  0.4560 -0.0754
  365TIP3    H122510   2.627   1.799   5.959 -0.3848  1.2810  0.6144
  365TIP3    H222511   2.646   1.936   5.897  0.6902  1.4690  1.3389
  366TIP3   OH222512   3.576   1.755  16.997 -0.7017 -0.2898  0.5400
  366TIP3    H122513   3.486   1.721  16.999  0.0875 -2.5017  0.8993
  366TIP3    H222514   3.626   1.687  16.953  0.3308  2.2775 -2.6550
  367TIP3   OH222515   4.360   6.697   1.883 -0.0889  0.1637 -0.6701
  367TIP3    H122516   4.390   6.704   1.973  0.1965 -0.5672 -0.7014
  367TIP3    H222517   4.272   6.733   1.884  0.0120  0.4030 -0.1569
  368TIP3   OH222518   2.361   5.659   0.932  0.7674  0.2122 -0.2754
  368TIP3    H122519   2.421   5.585   0.927  1.8446  1.0940 -0.9797
  368TIP3    H222520   2.303   5.648   0.857  1.0482  0.1626 -0.4904
  369TIP3   OH222521   0.408   3.928   3.935  0.2005 -0.3371  0.0233
  369TIP3    H122522   0.460   3.868   3.881  0.3340  2.3587 -3.2448
  369TIP3    H222523   0.469   3.998   3.958 -0.8996  0.6637 -0.0188
  370TIP3   OH222524   2.145   1.356  16.663  0.1216 -0.0348  0.0051
  370TIP3    H122525   2.222   1.351  16.720  1.1739  2.8204 -0.9803
  370TIP3    H222526   2.114   1.446  16.673 -0.0772  0.3817 -3.3204
  371TIP3   OH222527   4.304   0.678   1.824 -0.6052  0.3087 -0.4624
  371TIP3    H122528   4.211   0.686   1.847 -0.5889 -2.1155  0.6876
  371TIP3    H222529   4.304   0.639   1.737 -0.8626 -4.2243  1.3015
  372TIP3   OH222530   0.255   6.648  12.627  0.6986 -0.2780  0.3706
  372TIP3    H122531   0.307   6.719  12.664 -0.5334  1.0337 -0.2929
  372TIP3    H222532   0.251   6.668  12.533  2.4517 -2.6604 -0.3091
  373TIP3   OH222533   5.503   5.637  12.910 -0.4567  0.1743  0.5570
  373TIP3    H122534   5.439   5.661  12.978  1.6266  0.7178  2.4485
  373TIP3    H222535   5.576   5.600  12.959  0.6902 -0.4200 -1.5302
  374TIP3   OH222536   2.774   3.393  14.085 -0.1548 -0.1168  0.5535
  374TIP3    H122537   2.697   3.350  14.122 -0.9644  0.4891 -0.3663
  374TIP3    H222538   2.826   3.323  14.046 -0.4787 -0.4704  0.7587
  375TIP3   OH222539   4.811   3.498   5.521  0.0127  0.2117 -0.3756
  375TIP3    H122540   4.814   3.449   5.603 -2.2361 -3.1215 -2.0777
  375TIP3    H222541   4.733   3.554   5.530  0.5209  0.8417  0.2150
  376TIP3   OH222542   3.738   5.532  17.048 -0.0240  0.9295  0.5215
  376TIP3    H122543   3.762   5.619  17.079  1.7645 -0.3751  3.1806
  376TIP3    H222544   3.661   5.508  17.100  0.0743  0.5596  0.5022
  377TIP3   OH222545   5.898   1.785  12.855 -0.7019  0.3268  0.0209
  377TIP3    H122546   5.918   1.819  12.942 -0.7349 -0.8059  0.4789
  377TIP3    H222547   5.938   1.848  12.795  2.6688 -0.8247  0.8759
  378TIP3   OH222548   2.659   4.417  14.318 -0.1879 -0.3366 -0.2240
  378TIP3    H122549   2.641   4.350  14.384  0.6292  0.0930  0.4588
  378TIP3    H222550   2.593   4.484  14.332 -0.2010 -0.3890 -0.0424
  379TIP3   OH222551   1.503   6.290   3.983 -0.1443 -0.0324 -0.2543
  379TIP3    H122552   1.574   6.330   4.033  0.1305  0.0883 -0.7398
  379TIP3    H222553   1.547   6.235   3.919 -0.5011 -0.2934 -0.2759
  380TIP3   OH222554   0.138   3.334   0.681 -0.0561  0.0841  0.3635
  380TIP3    H122555   0.132   3.413   0.626  0.9366  0.4143  0.6902
  380TIP3    H222556   0.058   3.286   0.664 -0.1900  0.6441 -0.6693
  381TIP3   OH222557   5.203   2.291   0.361 -0.1155 -0.0160 -0.0554
  381TIP3    H122558   5.216   2.385   0.347 -0.4487  0.0994  0.3753
  381TIP3    H222559   5.108   2.280   0.364 -0.1004 -0.4968 -0.9104
  382TIP3   OH222560   5.333   5.673  14.862 -0.5603 -0.4670 -0.2516
  382TIP3    H122561   5.318   5.761  14.826 -0.8089 -0.4983 -0.2276
  382TIP3    H222562   5.305   5.614  14.793  0.0119 -0.5304 -0.4332
  383TIP3   OH222563   2.272   4.632   3.651 -0.0278  0.8031  0.5695
  383TIP3    H122564   2.196   4.575   3.658 -0.8757  1.5031 -1.9281
  383TIP3    H222565   2.344   4.581   3.688 -0.6062 -2.2230 -2.0227
  384TIP3   OH222566   4.280   4.770  13.684  0.1277 -0.3714  0.1946
  384TIP3    H122567   4.218   4.830  13.725  1.2248  0.6411  0.4536
  384TIP3    H222568   4.231   4.727  13.614 -0.2324  2.2514 -1.2742
  385TIP3   OH222569   6.313   1.210  15.973 -0.3076 -0.2133 -0.4328
  385TIP3    H122570   6.349   1.289  16.013 -1.0130  0.0090 -0.2290
  385TIP3    H222571   6.390   1.157  15.951  0.1135 -0.6548  1.8076
  386TIP3   OH222572   4.629   3.695   3.409  0.7042 -0.2073  0.4644
  386TIP3    H122573   4.573   3.634   3.457 -0.1601 -0.5246 -0.8923
  386TIP3    H222574   4.684   3.736   3.477 -2.5702  1.7216  2.1867
  387TIP3   OH222575   4.619   5.289  15.113 -0.1759 -0.7442 -0.1421
  387TIP3    H122576   4.714   5.284  15.103 -0.4347 -1.8351 -2.8746
  387TIP3    H222577   4.587   5.314  15.026 -2.3730  0.4104  0.9041
  388TIP3   OH222578   6.167   6.385  15.831 -0.8695  0.3733  0.0239
  388TIP3    H122579   6.236   6.445  15.857 -0.6119 -0.4489  1.3287
  388TIP3    H222580   6.106   6.385  15.905 -1.2071 -0.4389 -0.2440
  389TIP3   OH222581   1.906   0.244  15.778 -0.3488  0.3053  0.1813
  389TIP3    H122582   1.841   0.198  15.725 -2.9016  1.1868  2.3656
  389TIP3    H222583   1.892   0.337  15.756 -0.0017  0.5226  0.8726
  390TIP3   OH222584   1.870   0.618   2.853 -0.9786 -0.4162 -0.4235
  390TIP3    H122585   1.841   0.613   2.944  1.3485 -1.0589  0.3488
  390TIP3    H222586   1.900   0.529   2.832 -0.8691 -0.1218 -1.6227
  391TIP3   OH222587   2.288   3.443   2.527 -0.5493  0.4489 -0.1695
  391TIP3    H122588   2.350   3.498   2.575 -0.5358  0.7749 -0.5547
  391TIP3    H222589   2.206   3.453   2.573 -0.5534  0.8189 -0.2543
  392TIP3   OH222590   0.866   5.217   2.398  0.5880 -0.4887  0.0508
  392TIP3    H122591   0.944   5.222   2.343  1.4665 -2.4117  1.0023
  392TIP3    H222592   0.866   5.126   2.430 -1.7900 -0.3862  0.4550
  393TIP3   OH222593   2.238   0.260  14.647  0.2924  0.0995  0.0567
  393TIP3    H122594   2.203   0.178  14.612 -1.2413  0.3354  0.9720
  393TIP3    H222595   2.301   0.289  14.582  0.4531 -1.5216 -0.5478
  394TIP3   OH222596   5.429   4.489   4.132  0.8695  0.0611  0.3519
  394TIP3    H122597   5.351   4.499   4.077  1.4258 -0.5176 -0.5519
  394TIP3    H222598   5.475   4.414   4.096  1.8166  0.3488  0.9260
  395TIP3   OH222599   1.875   5.062  16.289 -0.6750  0.0877  0.2305
  395TIP3    H122600   1.835   5.091  16.371  1.9592 -1.0486  2.0883
  395TIP3    H222601   1.968   5.084  16.299  0.4318 -3.4043 -0.7569
  396TIP3   OH222602   1.291   0.976   1.351 -0.6165 -0.8124  0.0366
  396TIP3    H122603   1.375   0.972   1.396 -0.5564 -0.1961 -0.0027
  396TIP3    H222604   1.307   1.030   1.274 -1.7184  2.1313  1.6892
  397TIP3   OH222605   1.739   6.781  12.293  0.3563  0.0630 -0.3879
  397TIP3    H122606   1.714   6.859  12.341  0.3522 -1.6277  2.5945
  397TIP3    H222607   1.709   6.797  12.203 -0.8691  2.8545  0.4248
  398TIP3   OH222608   2.935   3.732  14.768  0.0888 -0.3259  0.3767
  398TIP3    H122609   2.992   3.801  14.803  1.9498 -1.1671 -0.8388
  398TIP3    H222610   2.849   3.750  14.806  0.3334  3.0046 -0.3441
  399TIP3   OH222611   2.610   2.850   6.292  0.2530  0.4643  0.5514
  399TIP3    H122612   2.622   2.911   6.219 -0.0059  1.1004  1.0355
  399TIP3    H222613   2.694   2.850   6.338  1.5899 -2.3911 -1.5343
  400TIP3   OH222614   1.063   5.783  16.202 -0.5173  0.3704  0.3556
  400TIP3    H122615   1.105   5.848  16.259 -0.3358  1.1975 -0.6936
  400TIP3    H222616   1.125   5.710  16.200  0.5320  1.2619 -0.5610
  401TIP3   OH222617   0.543   2.830   0.335  0.2573  0.2622  0.1732
  401TIP3    H122618   0.520   2.745   0.295 -0.4837  0.8180 -0.6361
  401TIP3    H222619   0.461   2.862   0.371  0.1660  1.3423 -0.9242
  402TIP3   OH222620   0.426   4.474  14.127 -0.5151  0.2549 -0.0221
  402TIP3    H122621   0.446   4.566  14.142  0.8335 -0.0798  0.3759
  402TIP3    H222622   0.376   4.473  14.046  2.0847  1.1107 -1.7525
  403TIP3   OH222623   6.365   1.541  15.786 -0.2184  0.2478 -0.0696
  403TIP3    H122624   6.285   1.591  15.775  0.2783  0.8789 -0.8885
  403TIP3    H222625   6.346   1.455  15.749 -1.0553 -0.1744  1.2901
  404TIP3   OH222626   5.371   5.960   4.781  1.0460  0.2692 -0.0037
  404TIP3    H122627   5.427   5.989   4.853  2.4792 -0.2842 -0.8483
  404TIP3    H222628   5.427   5.901   4.729  0.7613  2.1843 -2.6830
  405TIP3   OH222629   6.570   4.841   1.050  0.0020 -0.2259  0.2893
  405TIP3    H122630   6.585   4.746   1.051 -0.5945 -0.3370  1.8244
  405TIP3    H222631   6.553   4.863   1.142  0.9042  1.5012  0.0869
  406TIP3   OH222632   4.628   0.737   3.516  0.6582 -0.1242  0.2885
  406TIP3    H122633   4.581   0.716   3.435 -0.6277 -0.7903  1.1750
  406TIP3    H222634   4.562   0.779   3.572  1.1284 -0.9701  1.5247
  407TIP3   OH222635   4.081   3.659  15.106 -0.2717 -0.1986 -0.1321
  407TIP3    H122636   4.048   3.710  15.032  0.1201  1.0827  0.5443
  407TIP3    H222637   4.114   3.578  15.066  2.5530  1.6014 -1.8254
  408TIP3   OH222638   0.536   4.177   2.613  0.3851  0.1309  0.3180
  408TIP3    H122639   0.539   4.082   2.612  0.1795  0.1216  0.3782
  408TIP3    H222640   0.596   4.203   2.683  0.0646  0.0231  0.6376
  409TIP3   OH222641   3.565   3.758   0.979  0.0190  0.3980  0.0604
  409TIP3    H122642   3.585   3.680   1.029 -0.7048  1.7070  2.5414
  409TIP3    H222643   3.636   3.765   0.915  0.9494 -1.3833  0.8434
  410TIP3   OH222644   6.700   6.082   0.163  0.1776  0.4222 -0.5464
  410TIP3    H122645   6.730   6.159   0.114  1.2542 -0.0331 -0.6266
  410TIP3    H222646   6.639   6.117   0.228  2.4139  1.6700  0.9832
  411TIP3   OH222647   5.970   5.296   4.204 -0.2778  0.3691  0.1383
  411TIP3    H122648   5.902   5.284   4.271 -0.1564 -0.3848  0.1418
  411TIP3    H222649   5.979   5.391   4.194 -0.7082  0.4782  0.7714
  412TIP3   OH222650   5.149   5.019   2.074  0.2812 -0.8326 -0.3147
  412TIP3    H122651   5.121   5.000   2.163 -0.1846 -0.3876 -0.3627
  412TIP3    H222652   5.236   4.980   2.068 -0.3253 -2.2538 -0.1770
  413TIP3   OH222653   4.574   3.210  15.138 -0.4010 -0.4615  0.1968
  413TIP3    H122654   4.654   3.254  15.109 -0.9406 -0.8683 -2.1246
  413TIP3    H222655   4.558   3.245  15.225  0.5207  2.1286 -0.5723
  414TIP3   OH222656   2.624   4.116  13.635  0.2270  0.1325 -0.2833
  414TIP3    H122657   2.702   4.063  13.619 -0.7040 -1.4735  0.2044
  414TIP3    H222658   2.604   4.101  13.727  0.5388  2.2560  0.1807
  415TIP3   OH222659   0.209   6.508  12.024  0.0457 -0.5261  0.4141
  415TIP3    H122660   0.143   6.510  11.955  0.6906  0.8314 -0.2109
  415TIP3    H222661   0.160   6.493  12.104 -1.1691  1.3034  0.0908
  416TIP3   OH222662   5.401   2.050   4.357  0.4348 -0.4797  0.2422
  416TIP3    H122663   5.353   2.051   4.274 -1.4948 -0.7507  1.3121
  416TIP3    H222664   5.424   2.142   4.372  0.6121 -0.4027 -0.4746
  417TIP3   OH222665   5.962   5.966   1.352  0.3470  0.0263  1.0511
  417TIP3    H122666   5.947   5.882   1.309  0.2873 -0.0560  1.2314
  417TIP3    H222667   5.916   6.030   1.296  1.9357  0.2020 -0.1111
  418TIP3   OH222668   4.308   6.779  12.440  0.0902  0.0874  0.7536
  418TIP3    H122669   4.276   6.844  12.377  0.1506 -0.9041 -0.3285
  418TIP3    H222670   4.230   6.729  12.464  0.3967 -0.8687 -0.1515
  419TIP3   OH222671   5.632   1.390   4.839  0.3137  0.0629 -0.6158
  419TIP3    H122672   5.649   1.342   4.757  1.8460 -2.3623  0.9787
  419TIP3    H222673   5.539   1.413   4.835  0.1625 -0.6874 -2.6736
  420TIP3   OH222674   6.287   5.396   2.664  0.2149  0.0446  0.1616
  420TIP3    H122675   6.348   5.431   2.729 -0.1067 -0.4195  0.7150
  420TIP3    H222676   6.235   5.472   2.637 -1.9729 -0.3156  2.9510
  421TIP3   OH222677   6.455   3.389   2.100 -0.1052  0.3762  0.5461
  421TIP3    H122678   6.550   3.404   2.094 -0.1156  0.3530  0.2815
  421TIP3    H222679   6.447   3.293   2.097 -0.0953  0.3493  1.2627
  422TIP3   OH222680   2.437   2.399   4.605 -0.3060  0.3636 -0.4058
  422TIP3    H122681   2.350   2.423   4.637 -0.1850  0.1487  0.0844
  422TIP3    H222682   2.477   2.483   4.582 -0.9274  0.4088 -1.3885
  423TIP3   OH222683   0.259   1.017  11.060 -0.5402  0.4006 -0.1931
  423TIP3    H122684   0.313   0.987  11.133  0.3581  0.5763 -0.7698
  423TIP3    H222685   0.267   0.948  10.994 -1.8246 -0.0459  0.0822
  424TIP3   OH222686   0.471   1.292   5.694 -0.4165 -0.0599 -0.2589
  424TIP3    H122687   0.438   1.381   5.679  0.5615  0.4290  0.4331
  424TIP3    H222688   0.392   1.239   5.707 -0.9843  0.7978 -0.1497
  425TIP3   OH222689   6.227   0.256   5.402 -0.2338 -0.2541  0.2668
  425TIP3    H122690   6.138   0.285   5.424 -0.1779 -0.3466  0.6209
  425TIP3    H222691   6.261   0.219   5.483  0.0035 -0.5423  0.0361
  426TIP3   OH222692   4.595   3.800   5.952 -0.8935  0.0617 -0.1015
  426TIP3    H122693   4.684   3.781   5.981 -0.5524  1.7118  0.0058
  426TIP3    H222694   4.541   3.733   5.993  0.2476 -0.7545  0.1022
  427TIP3   OH222695   6.222   6.667   0.318  0.3266 -0.1349  0.2718
  427TIP3    H122696   6.253   6.633   0.234 -1.1320 -1.1070  0.0831
  427TIP3    H222697   6.235   6.594   0.379 -0.9468 -0.3510  0.3133
  428TIP3   OH222698   1.107   4.879   5.060 -0.3972 -0.4311  0.2300
  428TIP3    H122699   1.069   4.794   5.081 -0.7880 -0.1769  0.5658
  428TIP3    H222700   1.081   4.936   5.133 -0.4465  0.0680 -0.1659
  429TIP3   OH222701   2.972   4.296  15.126 -0.0706 -0.4738 -0.2318
  429TIP3    H122702   2.961   4.390  15.137  1.6360 -0.2884  0.2277
  429TIP3    H222703   2.932   4.277  15.041  2.0660  1.2184 -1.7483
  430TIP3   OH222704   2.872   5.176  15.536  0.4545  0.1714 -0.0154
  430TIP3    H122705   2.923   5.148  15.460 -0.7898 -0.8050 -0.5088
  430TIP3    H222706   2.936   5.178  15.608  1.4688  0.3214 -0.9007
  431TIP3   OH222707   4.321   2.645   4.772  0.6868  0.0099  0.0318
  431TIP3    H122708   4.369   2.562   4.768  0.5508 -0.0322 -0.8449
  431TIP3    H222709   4.358   2.697   4.700  1.2277  0.9656  0.9644
  432TIP3   OH222710   5.720   4.223  16.262 -1.1972 -0.0678 -1.0398
  432TIP3    H122711   5.781   4.149  16.260 -0.4442  0.4837  0.1307
  432TIP3    H222712   5.656   4.200  16.330  1.0399  1.7639  1.9388
  433TIP3   OH222713   0.846   6.349   0.296 -0.4707  0.6147  0.0719
  433TIP3    H122714   0.915   6.322   0.357 -0.8594 -0.3827  0.0772
  433TIP3    H222715   0.767   6.307   0.329 -0.7925  0.5177 -0.8046
  434TIP3   OH222716   3.178   0.444  14.159  0.3447  0.1093  0.1501
  434TIP3    H122717   3.089   0.451  14.124 -0.1567  0.8344  1.5420
  434TIP3    H222718   3.205   0.534  14.176  0.1111 -0.2418  2.7093
  435TIP3   OH222719   1.430   0.249   5.396  0.1881 -0.6981 -0.2069
  435TIP3    H122720   1.437   0.217   5.306  0.3274 -0.4968 -0.2684
  435TIP3    H222721   1.336   0.253   5.413  0.0997  0.9687 -0.9633
  436TIP3   OH222722   0.961   3.347   4.654  0.4099  0.2955 -0.3069
  436TIP3    H122723   1.034   3.346   4.592 -1.3073  1.6620 -2.4843
  436TIP3    H222724   0.911   3.268   4.634  0.3151  0.2890 -0.0528
  437TIP3   OH222725   0.497   1.886   1.924  0.7135  0.4715 -0.2419
  437TIP3    H122726   0.556   1.814   1.948  1.2995  1.4859  1.5436
  437TIP3    H222727   0.520   1.907   1.833  0.7002 -1.3977 -0.7134
  438TIP3   OH222728   3.452   2.349  11.550  0.0478 -0.5382 -0.1659
  438TIP3    H122729   3.441   2.326  11.642  2.1619 -1.9912 -0.2106
  438TIP3    H222730   3.376   2.404  11.530 -0.4671 -0.1676  2.4200
  439TIP3   OH222731   5.682   6.616   1.494  0.3452  0.1959 -0.0091
  439TIP3    H122732   5.663   6.669   1.416  0.9495 -2.7564 -2.3330
  439TIP3    H222733   5.772   6.638   1.517  1.5217 -1.5314 -2.5599
  440TIP3   OH222734   2.651   2.702  11.980 -0.0690  0.6772 -0.0357
  440TIP3    H122735   2.603   2.627  12.017  1.6674  0.1137  1.2363
  440TIP3    H222736   2.653   2.685  11.886 -2.4543  0.8330 -0.1817
  441TIP3   OH222737   5.711   5.426  11.785 -0.5890 -0.5159 -0.1739
  441TIP3    H122738   5.616   5.413  11.777 -0.7237  0.0100  0.5361
  441TIP3    H222739   5.733   5.388  11.870 -0.3519  0.3984  0.1780
  442TIP3   OH222740   0.975   2.382  16.613  0.6372 -0.2694 -0.4426
  442TIP3    H122741   0.961   2.464  16.660  0.8176 -1.2916  1.5118
  442TIP3    H222742   1.053   2.345  16.654 -0.1879 -2.0175 -0.3849
  443TIP3   OH222743   5.980   2.125  13.940 -0.1673 -0.6527 -0.3147
  443TIP3    H122744   5.889   2.111  13.966 -0.0569  0.8401  0.9826
  443TIP3    H222745   6.005   2.208  13.980  0.4897  1.1844 -4.0939
  444TIP3   OH222746   5.857   2.923   4.180  0.2321 -0.1284 -0.1172
  444TIP3    H122747   5.857   2.980   4.103 -0.4354 -0.1943 -0.1738
  444TIP3    H222748   5.810   2.974   4.247  1.9205  0.4771  0.6816
  445TIP3   OH222749   2.078   5.520  12.664  0.4785 -0.1387 -0.6664
  445TIP3    H122750   2.145   5.459  12.634 -0.6947 -1.3083 -1.0054
  445TIP3    H222751   1.995   5.477  12.644 -0.3887  0.6230  1.0313
  446TIP3   OH222752   0.901   4.923  11.383  0.1164  0.5337 -0.4167
  446TIP3    H122753   0.862   4.893  11.301 -0.7582  0.9694 -0.1700
  446TIP3    H222754   0.994   4.900  11.375  0.3263  1.7832 -2.0903
  447TIP3   OH222755   6.571   2.833  11.343  0.4645 -0.1846  0.6085
  447TIP3    H122756   6.648   2.839  11.286 -0.2325 -0.1971 -0.3613
  447TIP3    H222757   6.505   2.887  11.299 -0.4513 -1.1270  0.7867
  448TIP3   OH222758   4.917   0.463   6.206 -0.1972  0.0170 -0.4200
  448TIP3    H122759   4.904   0.446   6.299  3.0130  2.5418  0.7032
  448TIP3    H222760   4.963   0.386   6.174  0.1942 -0.1715  0.5442
  449TIP3   OH222761   5.186   6.170   5.236  0.0599 -0.1199 -0.0521
  449TIP3    H122762   5.173   6.171   5.330 -0.6671  0.5189 -0.1485
  449TIP3    H222763   5.254   6.235   5.219  0.7258 -0.7651  0.0926
  450TIP3   OH222764   2.618   0.068  15.745  0.3960  0.3677  0.1699
  450TIP3    H122765   2.603   0.160  15.722  2.0822  0.4698 -0.6809
  450TIP3    H222766   2.699   0.069  15.797  1.5875 -0.8079 -1.5639
  451TIP3   OH222767   0.747   2.309  15.320 -0.4150 -0.1476  0.0280
  451TIP3    H122768   0.690   2.335  15.248 -1.8853  0.5152  1.3726
  451TIP3    H222769   0.828   2.282  15.278 -1.0585  0.6702 -1.8374
  452TIP3   OH222770   0.663   5.854   1.454  0.5666  0.1921  0.1334
  452TIP3    H122771   0.600   5.876   1.385  0.5840  0.9599  0.3494
  452TIP3    H222772   0.728   5.799   1.411  1.6493  2.2336 -0.9577
  453TIP3   OH222773   0.648   2.866  12.696 -0.3507 -0.4872  0.4955
  453TIP3    H122774   0.614   2.956  12.697 -0.1981 -0.4325  1.1383
  453TIP3    H222775   0.599   2.822  12.627  0.5059  0.4584 -0.7625
  454TIP3   OH222776   6.138   4.198   0.644  0.5809  0.9324 -0.7381
  454TIP3    H122777   6.079   4.268   0.670 -0.8747  0.8524 -3.4468
  454TIP3    H222778   6.120   4.127   0.706 -0.5924  1.6817 -0.1915
  455TIP3   OH222779   0.148   0.355  16.542  0.5165  0.5624  0.3868
  455TIP3    H122780   0.164   0.446  16.519 -0.8264  1.1011  1.4692
  455TIP3    H222781   0.111   0.316  16.462 -0.2535  1.3468  0.3411
  456TIP3   OH222782   3.242   4.520  11.568  0.7004  0.0259 -0.0461
  456TIP3    H122783   3.258   4.548  11.658 -0.2528 -2.0285  0.8394
  456TIP3    H222784   3.325   4.483  11.538  0.6510 -0.5517  0.5150
  457TIP3   OH222785   0.300   1.951   5.920 -0.3179 -0.2611  0.0690
  457TIP3    H122786   0.324   2.035   5.960  0.9227 -1.3688  1.8118
  457TIP3    H222787   0.375   1.928   5.866 -0.4716 -0.4558 -0.0612
  458TIP3   OH222788   4.482   4.487  16.273 -0.2124 -0.0272 -0.4317
  458TIP3    H122789   4.481   4.439  16.190  1.3635 -0.3991 -0.2667
  458TIP3    H222790   4.496   4.421  16.340  1.5248  0.5618 -0.1586
  459TIP3   OH222791   1.504   4.995   2.325 -0.1319  0.4282 -0.4931
  459TIP3    H122792   1.541   4.986   2.237 -0.2658  1.7966 -0.7031
  459TIP3    H222793   1.581   4.996   2.383 -0.0832 -1.7314 -0.4334
  460TIP3   OH222794   5.646   1.127  15.710  0.0380 -0.4469 -0.0521
  460TIP3    H122795   5.644   1.209  15.759 -0.8416 -0.9564  0.8150
  460TIP3    H222796   5.597   1.145  15.630 -0.0036 -0.0767  0.0566
  461TIP3   OH222797   0.408   0.942  13.026  0.8482 -0.6939  0.1324
  461TIP3    H122798   0.318   0.944  13.058  0.3901  0.4120 -1.1752
  461TIP3    H222799   0.455   1.004  13.081  0.6287 -0.6521  0.2706
  462TIP3   OH222800   1.005   5.172  11.220  0.4022  0.4177 -0.1697
  462TIP3    H122801   0.923   5.123  11.219  0.4823  0.2803 -1.3796
  462TIP3    H222802   1.008   5.212  11.307 -0.7304  0.0697  0.0437
  463TIP3   OH222803   0.983   0.395   1.833 -0.3736 -0.0476  0.1302
  463TIP3    H122804   0.912   0.333   1.851  2.0076 -2.4281  2.3346
  463TIP3    H222805   0.971   0.421   1.742 -2.5148 -2.4511 -0.3749
  464TIP3   OH222806   4.121   2.374  13.214  0.0156 -0.6613  0.1619
  464TIP3    H122807   4.063   2.420  13.275  1.3084 -0.7651  1.5244
  464TIP3    H222808   4.084   2.392  13.128  0.0123  2.3280  0.6754
  465TIP3   OH222809   1.926   2.116   3.554 -0.1544  0.0804  0.0022
  465TIP3    H122810   1.853   2.099   3.613 -0.8458  0.3170 -0.7663
  465TIP3    H222811   1.887   2.115   3.466  0.8397 -0.2210 -0.4547
  466TIP3   OH222812   3.716   5.612   2.679 -0.1720 -0.6150  0.0403
  466TIP3    H122813   3.774   5.583   2.609  0.4022 -0.4648  0.4500
  466TIP3    H222814   3.628   5.604   2.641  0.2012  1.1253 -1.3362
  467TIP3   OH222815   2.406   6.499  15.925  0.3241 -0.3535  0.2735
  467TIP3    H122816   2.475   6.536  15.980 -0.8711  0.3089  1.3965
  467TIP3    H222817   2.449   6.478  15.843  2.0319 -0.7291  1.2143
  468TIP3   OH222818   5.703   5.323  10.624 -0.4230  0.4728  0.3324
  468TIP3    H122819   5.712   5.392  10.558 -1.9795 -0.0434 -0.4703
  468TIP3    H222820   5.613   5.331  10.655 -0.4518 -0.8171  0.6488
  469TIP3   OH222821   0.072   5.978   5.267 -0.0661 -0.3151  0.2460
  469TIP3    H122822   0.066   5.882   5.258  0.6676 -0.2672 -1.0186
  469TIP3    H222823   0.156   5.993   5.309  0.1357 -0.2012 -0.1946
  470TIP3   OH222824   2.434   1.396  17.087 -0.3759 -0.1921  0.2825
  470TIP3    H122825   2.496   1.378  17.157  0.0238  0.4664  0.1048
  470TIP3    H222826   2.481   1.455  17.028 -0.2800 -1.6210 -1.1360
  471TIP3   OH222827   1.620   6.326   6.286  0.2096 -0.3752  0.2761
  471TIP3    H122828   1.610   6.231   6.290  1.3793 -0.5238  0.0510
  471TIP3    H222829   1.653   6.350   6.373  0.5805 -0.2734  0.1105
  472TIP3   OH222830   0.225   1.717  12.101  0.1825 -0.5184 -0.4066
  472TIP3    H122831   0.211   1.642  12.043  1.6097 -0.8599 -0.3450
  472TIP3    H222832   0.269   1.680  12.178 -0.4512  0.1482  0.2955
  473TIP3   OH222833   5.900   3.252  13.665 -0.4129 -0.4762  0.3248
  473TIP3    H122834   5.849   3.229  13.587  0.0165 -0.8749  0.1485
  473TIP3    H222835   5.958   3.322  13.636 -0.9240  0.0423  0.5499
  474TIP3   OH222836   4.628   4.510   4.389  0.7441 -0.0377  0.0722
  474TIP3    H122837   4.549   4.561   4.409  0.2248 -1.4239  1.8168
  474TIP3    H222838   4.690   4.535   4.457  0.6568 -1.3050  0.6415
  475TIP3   OH222839   4.899   1.104  15.357 -0.1173  0.2735 -0.4881
  475TIP3    H122840   4.812   1.127  15.326 -1.5685 -2.1663  1.4034
  475TIP3    H222841   4.895   1.010  15.375  2.8417  0.1115 -0.0590
  476TIP3   OH222842   1.490   6.025   3.016  0.4997 -0.4204 -0.3860
  476TIP3    H122843   1.549   6.092   2.982  1.4991 -0.5005  1.0946
  476TIP3    H222844   1.406   6.069   3.025  1.4064  1.0572  1.6833
  477TIP3   OH222845   5.973   4.463   2.720 -0.4084 -0.3491 -0.4637
  477TIP3    H122846   5.932   4.493   2.802  0.0372 -0.1237 -0.3166
  477TIP3    H222847   6.059   4.430   2.747 -0.8226 -1.6340 -0.6493
  478TIP3   OH222848   5.291   0.713   3.585  0.0797 -0.2654 -0.4155
  478TIP3    H122849   5.318   0.805   3.592 -0.6016 -0.1471  0.9344
  478TIP3    H222850   5.286   0.697   3.490 -1.9404  1.7649 -0.7487
  479TIP3   OH222851   6.263   0.595   2.421 -0.4720  0.2854  0.3002
  479TIP3    H122852   6.328   0.536   2.383 -0.6863 -0.7539  1.4859
  479TIP3    H222853   6.222   0.544   2.491 -3.8220  0.2525 -1.4700
  480TIP3   OH222854   1.695   5.757  10.859  0.5079 -0.5466  0.0683
  480TIP3    H122855   1.638   5.683  10.881  1.6725 -1.0556  1.4914
  480TIP3    H222856   1.656   5.831  10.905 -1.3828  0.0955 -2.3456
  481TIP3   OH222857   4.853   5.653  16.952  0.1582 -0.4159  0.5101
  481TIP3    H122858   4.903   5.693  17.022  1.9300 -0.7217 -0.5139
  481TIP3    H222859   4.776   5.615  16.995  1.5706 -1.2818  2.4034
  482TIP3   OH222860   6.502   3.444  15.466  0.0359 -0.1343 -0.2452
  482TIP3    H122861   6.529   3.490  15.546  1.6001 -1.1114 -0.1525
  482TIP3    H222862   6.575   3.457  15.405 -0.7399 -0.1663 -1.1990
  483TIP3   OH222863   2.125   3.881  13.598  0.7373  0.3749 -0.2619
  483TIP3    H122864   2.176   3.960  13.579  1.0675 -0.0411 -1.1127
  483TIP3    H222865   2.187   3.809  13.589  0.7098  0.0685  1.5687
  484TIP3   OH222866   0.591   0.984  14.274 -0.3600 -0.4428  0.3797
  484TIP3    H122867   0.547   1.058  14.315  0.1258  0.5282 -0.7940
  484TIP3    H222868   0.676   0.979  14.318 -0.1326  0.1208  0.0103
  485TIP3   OH222869   3.598   5.464  15.778 -0.0090 -0.0253  0.1183
  485TIP3    H122870   3.560   5.547  15.748 -1.3839 -0.3278  0.9448
  485TIP3    H222871   3.581   5.403  15.707 -2.5962 -0.5575  1.1121
  486TIP3   OH222872   4.562   0.212   1.543 -0.8535 -0.9272 -0.0376
  486TIP3    H122873   4.590   0.187   1.455  0.3595 -0.0450  0.0668
  486TIP3    H222874   4.624   0.280   1.569 -2.0248 -0.2041  0.9669
  487TIP3   OH222875   1.527   2.404   2.395 -0.3008 -0.9393  0.0850
  487TIP3    H122876   1.598   2.453   2.436  1.8117 -0.2095 -3.9290
  487TIP3    H222877   1.535   2.316   2.432  2.9492 -0.9440 -0.3269
  488TIP3   OH222878   1.038   1.280   2.319  0.1662 -0.6379 -0.4064
  488TIP3    H122879   1.114   1.228   2.346 -0.1834 -0.0427  2.0044
  488TIP3    H222880   0.979   1.277   2.395 -2.4918 -1.4943 -2.3713
  489TIP3   OH222881   2.264   3.157   1.251  0.1090 -0.2836  0.4744
  489TIP3    H122882   2.296   3.070   1.228  0.6137 -1.0946  3.8439
  489TIP3    H222883   2.343   3.212   1.254 -0.1487  0.2474 -1.1063
  490TIP3   OH222884   4.897   2.163  11.756 -0.3682  0.4504  0.0649
  490TIP3    H122885   4.867   2.085  11.803 -0.4513  1.6319  2.0861
  490TIP3    H222886   4.817   2.211  11.737 -0.3185  0.0537 -1.2141
  491TIP3   OH222887   2.998   1.718   3.885 -0.5083  0.2019  0.5395
  491TIP3    H122888   2.925   1.764   3.926 -0.3688 -0.0468  1.0755
  491TIP3    H222889   3.028   1.777   3.816 -1.1174  0.3706  0.4085
  492TIP3   OH222890   2.058   3.688  14.344 -0.5140  0.5864 -0.3137
  492TIP3    H122891   2.014   3.673  14.427  1.7472 -0.5508  0.7627
  492TIP3    H222892   2.068   3.601  14.305  1.6064  0.6419 -0.0182
  493TIP3   OH222893   4.685   3.668   2.705  0.0379 -0.1799 -0.8006
  493TIP3    H122894   4.635   3.741   2.740 -1.3363 -1.9479  1.1565
  493TIP3    H222895   4.774   3.683   2.735 -0.1136  0.9255 -0.8603
  494TIP3   OH222896   4.301   6.540   0.147  0.7151 -0.2995 -0.3047
  494TIP3    H122897   4.329   6.453   0.119  1.6697 -0.1485  0.1413
  494TIP3    H222898   4.256   6.577   0.071 -2.3030 -2.2375  0.3455
  495TIP3   OH222899   4.265   2.263  11.623 -0.3423 -0.3399  0.2692
  495TIP3    H122900   4.288   2.336  11.680  0.1916  0.4125 -0.8737
  495TIP3    H222901   4.171   2.251  11.636 -0.9263  2.0603 -1.1573
  496TIP3   OH222902   1.081   6.542   3.140 -0.4794  0.3869  0.2340
  496TIP3    H122903   0.993   6.505   3.142 -0.7385  1.0235  0.7342
  496TIP3    H222904   1.114   6.529   3.229  0.2529 -0.5982 -0.1590
  497TIP3   OH222905   4.706   1.344  10.860  0.2898 -0.4647 -0.6473
  497TIP3    H122906   4.726   1.263  10.813  1.3202 -1.4816  1.4240
  497TIP3    H222907   4.650   1.316  10.932  1.1470  0.5732  0.4511
  498TIP3   OH222908   6.674   0.289  15.339 -0.1007  0.2861  0.2402
  498TIP3    H122909   6.657   0.296  15.433  2.2070  0.7403  0.6982
  498TIP3    H222910   6.669   0.196  15.320  0.5720  0.0609  1.1007
  499TIP3   OH222911   3.425   4.820   1.895  0.5932 -0.3881 -0.2901
  499TIP3    H122912   3.371   4.789   1.967 -0.2694  1.2601 -0.1785
  499TIP3    H222913   3.510   4.840   1.936  0.9696 -1.9347 -0.2612
  500TIP3   OH222914   2.700   4.290   5.517 -0.1822  0.1710  0.3026
  500TIP3    H122915   2.645   4.230   5.567  2.1505 -2.7484 -0.3212
  500TIP3    H222916   2.653   4.303   5.435 -0.8318 -0.6796  0.5263
  501TIP3   OH222917   3.324   4.561   4.751  0.0889  0.1212  0.2027
  501TIP3    H122918   3.248   4.586   4.699  0.6480 -0.1689 -0.7712
  501TIP3    H222919   3.316   4.612   4.832 -1.0328  0.2301  0.0390
  502TIP3   OH222920   5.384   3.059   2.176  0.2795 -0.3797  0.1803
  502TIP3    H122921   5.329   2.990   2.139 -1.1255 -0.4343  2.1600
  502TIP3    H222922   5.443   3.013   2.236  0.6292 -0.0508  0.0885
  503TIP3   OH222923   4.465   2.449  17.148 -0.1010  0.0042  0.2739
  503TIP3    H122924   4.405   2.393  17.198 -0.1734 -1.2664 -1.1759
  503TIP3    H222925   4.547   2.400  17.144 -0.5758 -0.7108 -2.1794
  504TIP3   OH222926   3.741   2.012  16.957 -0.0574 -0.1369  0.4091
  504TIP3    H122927   3.823   1.974  16.989  0.1174 -1.8946 -1.9005
  504TIP3    H222928   3.674   1.972  17.012  0.3939 -1.2513  0.1725
  505TIP3   OH222929   5.587   3.497  13.865  0.1214 -0.6681  0.1128
  505TIP3    H122930   5.665   3.443  13.877 -0.5078 -1.4036  1.0004
  505TIP3    H222931   5.602   3.542  13.782  1.1712 -1.3265 -0.0790
  506TIP3   OH222932   4.009   2.819  10.564  1.0798 -0.6514  0.5920
  506TIP3    H122933   4.090   2.807  10.615  0.1608  0.1699  2.3442
  506TIP3    H222934   4.007   2.912  10.543  0.0940 -0.4428  1.5131
  507TIP3   OH222935   4.871   5.603  16.652  0.1743  0.0689  0.0601
  507TIP3    H122936   4.861   5.640  16.740 -0.4175  1.2830 -0.4887
  507TIP3    H222937   4.903   5.676  16.599  1.0821 -0.7991 -0.6265
  508TIP3   OH222938   3.915   3.658   2.650  0.0116  0.0539 -0.3280
  508TIP3    H122939   3.917   3.589   2.584 -1.4897 -1.1091  0.7590
  508TIP3    H222940   3.999   3.651   2.695  1.4892  1.5175 -2.6456
  509TIP3   OH222941   2.160   2.895  16.737  0.1235  0.1408 -0.0132
  509TIP3    H122942   2.256   2.901  16.733  0.1443 -0.1134  0.1080
  509TIP3    H222943   2.143   2.813  16.783 -0.1433  1.0629  1.6052
  510TIP3   OH222944   6.465   1.345  14.622  0.2178  0.1673 -0.0856
  510TIP3    H122945   6.384   1.352  14.571 -0.2048  0.4391  0.6211
  510TIP3    H222946   6.440   1.296  14.700  0.6924  0.4426  0.2385
  511TIP3   OH222947   5.921   2.831  12.431  0.3709  0.0787  0.4115
  511TIP3    H122948   5.977   2.908  12.433 -1.3566  1.4942 -1.6342
  511TIP3    H222949   5.913   2.809  12.338 -1.5763 -0.6823  0.6980
  512TIP3   OH222950   4.261   6.372   5.849  0.1406  0.1095  0.0988
  512TIP3    H122951   4.215   6.354   5.931  0.9911 -1.2221  0.3057
  512TIP3    H222952   4.306   6.455   5.865 -2.2561  1.5520 -0.1736
  513TIP3   OH222953   0.793   1.454  11.370  0.8934 -0.0431 -0.0483
  513TIP3    H122954   0.881   1.493  11.369  0.3690  1.2057 -0.5140
  513TIP3    H222955   0.779   1.426  11.279  0.3982  0.7830 -0.2368
  514TIP3   OH222956   5.199   2.559  13.875 -0.1669  0.4166  0.0880
  514TIP3    H122957   5.124   2.605  13.914 -1.1543 -0.6240 -0.5167
  514TIP3    H222958   5.159   2.496  13.815  1.0841 -1.6782  1.3395
  515TIP3   OH222959   5.016   4.917  14.145 -0.2513  0.1755  0.4536
  515TIP3    H122960   4.994   4.965  14.065  0.7532  0.9540  0.6291
  515TIP3    H222961   5.064   4.980  14.199  1.4056 -1.1114  0.5581
  516TIP3   OH222962   1.336   3.518  16.819 -0.0106 -0.0796 -0.0260
  516TIP3    H122963   1.353   3.474  16.736  1.1685  0.7212 -0.2313
  516TIP3    H222964   1.339   3.611  16.798 -0.3764  0.1237  0.7880
  517TIP3   OH222965   4.575   5.426  16.819  0.1633  0.3496 -0.1148
  517TIP3    H122966   4.557   5.520  16.827  0.5158  0.2931  1.8945
  517TIP3    H222967   4.491   5.388  16.795 -0.6067  0.9416  1.4987
  518TIP3   OH222968   4.122   0.559  12.868  0.1317 -0.0598 -0.2033
  518TIP3    H122969   4.174   0.479  12.854  0.2580 -0.1955  0.8994
  518TIP3    H222970   4.040   0.528  12.906 -0.2177  0.2655 -0.6816
  519TIP3   OH222971   4.868   2.445  12.576  0.1585  0.0025 -0.4468
  519TIP3    H122972   4.885   2.532  12.541 -1.2347 -0.0685 -1.3685
  519TIP3    H222973   4.850   2.391  12.499 -2.5086 -0.2773  0.2769
  520TIP3   OH222974   6.583   1.274  11.706  0.1366 -0.1683  0.0263
  520TIP3    H122975   6.595   1.324  11.625  0.2477 -1.6138 -0.8929
  520TIP3    H222976   6.488   1.263  11.714  0.1726 -1.6453 -1.0035
  521TIP3   OH222977   2.933   2.358  15.632 -0.2364  0.4076 -0.0416
  521TIP3    H122978   2.881   2.431  15.668 -0.5853  0.5078 -0.7374
  521TIP3    H222979   2.888   2.335  15.551 -0.0637 -0.5247  0.1263
  522TIP3   OH222980   6.577   6.538   5.406  0.0166  0.8447 -0.0117
  522TIP3    H122981   6.509   6.471   5.414 -0.6842  1.5220 -0.1628
  522TIP3    H222982   6.590   6.547   5.311  0.0653  0.9579  0.0054
  523TIP3   OH222983   3.645   5.274  12.827 -0.6158  0.1928 -0.0165
  523TIP3    H122984   3.725   5.266  12.775 -0.0814  2.3197  0.4130
  523TIP3    H222985   3.675   5.270  12.918 -0.5715  3.4911  0.2247
  524TIP3   OH222986   2.248   3.810   5.716 -0.2058  0.6732  0.5428
  524TIP3    H122987   2.235   3.744   5.784  0.2586  0.1506  0.1326
  524TIP3    H222988   2.181   3.790   5.651  2.2296 -1.8462 -1.4372
  525TIP3   OH222989   1.292   4.677  13.837 -0.3015 -0.0904 -0.1390
  525TIP3    H122990   1.205   4.642  13.854 -0.2809 -0.3909 -0.6351
  525TIP3    H222991   1.341   4.604  13.799 -0.0700  0.2921 -0.5953
  526TIP3   OH222992   6.390   1.057  15.044 -0.6637 -0.0238 -0.1054
  526TIP3    H122993   6.453   1.031  14.976 -1.2986 -1.7376 -0.0821
  526TIP3    H222994   6.418   1.009  15.122 -0.2954  1.4754  0.7268
  527TIP3   OH222995   1.524   5.827  14.737 -0.4533  0.1508  0.6712
  527TIP3    H122996   1.559   5.756  14.683  0.3656 -0.3313  1.7968
  527TIP3    H222997   1.532   5.905  14.682  0.4655 -0.3035  0.1403
  528TIP3   OH222998   0.008   1.511   0.721 -0.0786  0.3958  0.1021
  528TIP3    H122999   0.048   1.443   0.775 -0.5699 -0.5554 -0.6920
  528TIP3    H223000  -0.044   1.463   0.657  2.4464  1.3239 -2.8815
  529TIP3   OH223001   1.054   3.785  11.303  0.3544  0.0075  0.5848
  529TIP3    H123002   1.019   3.698  11.320  1.5943 -0.1711  2.6205
  529TIP3    H223003   1.020   3.809  11.217 -1.3101 -1.8072  0.6753
  530TIP3   OH223004   6.209   2.784   4.559  0.0162  0.2106  0.6029
  530TIP3    H123005   6.255   2.721   4.504 -0.3234  0.3841  0.1124
  530TIP3    H223006   6.167   2.730   4.626  1.3183  0.0970  1.3564
  531TIP3   OH223007   3.602   5.260  11.088  0.4727 -1.1632  0.2292
  531TIP3    H123008   3.583   5.288  11.177  2.3245 -0.8700  0.5634
  531TIP3    H223009   3.557   5.324  11.032  1.8817  0.5267  0.9660
  532TIP3   OH223010   6.079   4.764   6.452 -0.2169 -0.2220  0.5259
  532TIP3    H123011   5.992   4.725   6.458 -0.3386 -0.3540 -1.3917
  532TIP3    H223012   6.063   4.858   6.452 -0.2675 -0.2311  1.2320
  533TIP3   OH223013   2.383   1.131  14.730 -0.5863  0.1682 -0.2656
  533TIP3    H123014   2.476   1.119  14.749 -0.5715  0.8513  0.1100
  533TIP3    H223015   2.376   1.222  14.701 -1.1232  0.0867 -0.3995
  534TIP3   OH223016   2.797   5.047  10.648 -0.6996  0.0154  0.3753
  534TIP3    H123017   2.779   5.137  10.674  0.6987 -0.0191  1.5824
  534TIP3    H223018   2.762   5.040  10.559 -1.0072  1.6840  0.3419
  535TIP3   OH223019   3.957   3.628   3.294  0.4920  0.1112 -0.1928
  535TIP3    H123020   3.906   3.547   3.285 -0.1231  0.5224 -0.4149
  535TIP3    H223021   3.989   3.625   3.385 -0.9403  0.4359  0.3369
  536TIP3   OH223022   3.440   2.354  11.846 -0.1485 -0.2092 -0.3994
  536TIP3    H123023   3.530   2.387  11.855 -0.2539 -0.0365  0.0193
  536TIP3    H223024   3.450   2.261  11.826  0.1024 -0.4347  0.7256
  537TIP3   OH223025   4.505   0.207   4.915  0.0062  0.0446  0.3112
  537TIP3    H123026   4.530   0.118   4.940 -0.5885  0.0552  1.0203
  537TIP3    H223027   4.437   0.195   4.849  2.1769  0.0203 -2.0536
  538TIP3   OH223028   2.026   3.217   0.782  0.1860  0.7873 -0.1641
  538TIP3    H123029   1.986   3.249   0.862 -0.1075 -0.2480  0.1182
  538TIP3    H223030   2.111   3.181   0.810 -0.5950 -1.0672 -0.0023
  539TIP3   OH223031   6.774   2.430  13.752  0.3288 -0.5352 -0.1179
  539TIP3    H123032   6.697   2.376  13.768  0.5652 -0.9084 -0.2198
  539TIP3    H223033   6.766   2.503  13.812  0.6523 -1.3503  0.9418
  540TIP3   OH223034   1.071   0.789   2.245  0.1737  0.2187  0.3735
  540TIP3    H123035   1.015   0.851   2.197 -0.2162 -1.6480 -1.7358
  540TIP3    H223036   1.099   0.726   2.179 -1.4597 -3.3374  2.7907
  541TIP3   OH223037   3.234   6.774  14.848  0.5926 -0.1186  0.2407
  541TIP3    H123038   3.187   6.697  14.879 -2.7336  1.6626  0.1198
  541TIP3    H223039   3.232   6.835  14.921  1.1432  0.6776 -0.3868
  542TIP3   OH223040   0.511   2.619  13.328  0.3222  0.2307 -0.4546
  542TIP3    H123041   0.467   2.701  13.352  0.5260  0.1101  0.3574
  542TIP3    H223042   0.444   2.569  13.281 -0.5690 -0.1294  1.1365
  543TIP3   OH223043   5.671   0.335   5.591 -0.2712  0.1464  0.2632
  543TIP3    H123044   5.623   0.418   5.595 -2.3715 -1.0050 -0.0514
  543TIP3    H223045   5.604   0.269   5.574  1.6057 -1.3972 -1.6332
  544TIP3   OH223046   0.553   1.968   0.996 -0.5712  0.0590  0.2020
  544TIP3    H123047   0.556   1.875   0.977 -1.3231 -0.3712  2.0108
  544TIP3    H223048   0.629   2.005   0.950  0.0346 -1.5049 -0.1027
  545TIP3   OH223049   5.411   5.405   0.636 -0.0621  0.4351  0.2877
  545TIP3    H123050   5.398   5.490   0.679 -0.1332  0.6676 -0.1779
  545TIP3    H223051   5.325   5.364   0.636 -0.8200  1.8012 -2.4384
  546TIP3   OH223052   3.467   3.221  11.431  0.3277  0.2466 -0.9072
  546TIP3    H123053   3.511   3.276  11.496 -0.5022 -0.7258  0.5352
  546TIP3    H223054   3.404   3.279  11.388 -1.8658  0.1236  1.8671
  547TIP3   OH223055   5.768   3.522  12.840 -0.2910  0.0565 -0.2926
  547TIP3    H123056   5.743   3.595  12.783  1.8486  0.5624 -0.6571
  547TIP3    H223057   5.863   3.513  12.828  0.6579  1.2886  4.3567
  548TIP3   OH223058   3.728   2.145   6.286  0.2127  0.0122 -0.2533
  548TIP3    H123059   3.809   2.094   6.290  0.4233  0.2627 -1.1631
  548TIP3    H223060   3.695   2.144   6.376  0.2370 -1.6714 -0.2267
  549TIP3   OH223061   4.313   2.484   2.272  0.4621  0.3676 -0.5490
  549TIP3    H123062   4.394   2.446   2.306  1.0262  0.7247 -1.4680
  549TIP3    H223063   4.334   2.510   2.183 -0.9954 -0.5730 -1.2016
  550TIP3   OH223064   5.250   4.729   0.348  0.0970 -0.6966 -0.0782
  550TIP3    H123065   5.192   4.804   0.335  2.0400  1.3040  1.9064
  550TIP3    H223066   5.322   4.744   0.287  0.2746 -1.2064  0.0045
  551TIP3   OH223067   1.848   3.697  15.066  0.4448 -0.1864  0.0515
  551TIP3    H123068   1.873   3.650  14.987 -1.7642 -0.2407 -0.6694
  551TIP3    H223069   1.907   3.772  15.070  1.8437 -1.2274 -0.5718
  552TIP3   OH223070   0.642   0.340   3.576  0.2517  0.2775 -0.1324
  552TIP3    H123071   0.694   0.261   3.563  0.2324 -0.0836  1.6822
  552TIP3    H223072   0.679   0.404   3.515  3.2729  0.1959  1.4019
  553TIP3   OH223073   1.606   4.144   4.179 -0.2765 -0.0148 -0.4262
  553TIP3    H123074   1.530   4.084   4.183  0.6480 -1.1725  0.7118
  553TIP3    H223075   1.663   4.105   4.113  1.7020 -2.1994  2.3545
  554TIP3   OH223076   3.194   4.137  15.357  0.8321  0.1557 -0.1705
  554TIP3    H123077   3.106   4.142  15.320  0.2896  1.4867  1.2093
  554TIP3    H223078   3.235   4.219  15.331  1.2960  0.0159  0.1104
  555TIP3   OH223079   6.757   4.658  13.274  0.3630  0.1534 -0.1236
  555TIP3    H123080   6.824   4.726  13.284 -0.3869  0.8309  0.4298
  555TIP3    H223081   6.805   4.576  13.280  0.9029  0.5741  2.6634
  556TIP3   OH223082   2.472   3.455  12.986 -0.0426 -0.6086 -0.1595
  556TIP3    H123083   2.451   3.531  12.933  0.5051 -0.9030 -0.7991
  556TIP3    H223084   2.466   3.381  12.926 -1.2155 -1.1701  0.5902
  557TIP3   OH223085   3.090   5.284   1.139 -0.2678 -0.7783 -0.0631
  557TIP3    H123086   3.006   5.312   1.175 -0.8692 -1.6129 -0.7779
  557TIP3    H223087   3.119   5.358   1.085  0.6498  0.4949  2.0406
  558TIP3   OH223088   3.310   1.442   0.538  0.0288 -0.1070 -0.2763
  558TIP3    H123089   3.257   1.363   0.549  1.3757 -1.3340 -1.9601
  558TIP3    H223090   3.246   1.514   0.538 -1.4418 -1.3527 -0.4244
  559TIP3   OH223091   0.449   3.978  16.618  0.3560 -0.1776 -0.0073
  559TIP3    H123092   0.446   4.073  16.608 -1.4941 -0.1676  0.2745
  559TIP3    H223093   0.411   3.962  16.704 -0.2835 -1.2067 -0.4559
  560TIP3   OH223094   6.201   6.275  10.753 -0.2815 -0.1319  0.0675
  560TIP3    H123095   6.290   6.307  10.763  0.0595 -1.0334  0.0367
  560TIP3    H223096   6.151   6.320  10.821 -0.1049  1.4166 -0.7784
  561TIP3   OH223097   2.302   1.522   4.873  0.4209  0.5133  0.1460
  561TIP3    H123098   2.311   1.436   4.914 -0.2548  1.2429  1.8780
  561TIP3    H223099   2.314   1.584   4.944 -0.6353  1.8333 -0.7851
  562TIP3   OH223100   1.525   6.443   0.248 -0.0033 -0.9429 -0.0364
  562TIP3    H123101   1.442   6.459   0.203 -0.4843 -3.8736 -0.3436
  562TIP3    H223102   1.522   6.501   0.325 -1.3755  0.5083 -1.1255
  563TIP3   OH223103   2.173   4.438  16.175 -0.3004 -0.1721  0.6330
  563TIP3    H123104   2.209   4.352  16.195 -1.6743 -1.0843 -0.6564
  563TIP3    H223105   2.095   4.445  16.230  0.9292  1.2004  2.3408
  564TIP3   OH223106   0.836   2.243  16.931 -0.2066 -0.9214 -0.4937
  564TIP3    H123107   0.848   2.266  16.839 -1.6971 -0.5785 -0.6285
  564TIP3    H223108   0.823   2.148  16.930 -0.6101 -0.8662 -0.6852
  565TIP3   OH223109   3.583   5.000  11.152  1.2764  0.3719 -0.1016
  565TIP3    H123110   3.573   4.966  11.064 -1.6856  0.7349  0.0098
  565TIP3    H223111   3.627   5.085  11.140  2.2481 -0.2304 -1.0208
  566TIP3   OH223112   5.241   1.457  11.183 -0.5561  0.5692 -0.3445
  566TIP3    H123113   5.279   1.404  11.254  0.6437  1.1648 -0.5124
  566TIP3    H223114   5.253   1.404  11.105  0.7661  1.0947 -0.5338
  567TIP3   OH223115   6.609   4.840   4.144  0.0975  0.6437 -0.0088
  567TIP3    H123116   6.644   4.845   4.055  0.2035 -0.1928 -0.0192
  567TIP3    H223117   6.647   4.761   4.181  3.5073  3.0174  2.2529
  568TIP3   OH223118   6.240   3.533  12.427 -0.6256 -0.2306  0.4347
  568TIP3    H123119   6.328   3.566  12.446 -0.5314 -0.0963 -0.2125
  568TIP3    H223120   6.221   3.474  12.501  0.1865 -0.6069  0.3624
  569TIP3   OH223121   0.464   4.389   6.413 -0.2442 -0.1773 -0.0763
  569TIP3    H123122   0.459   4.299   6.381  0.3560  0.0672 -0.8830
  569TIP3    H223123   0.555   4.401   6.438 -0.4535  0.0178  0.6161
  570TIP3   OH223124   2.031   1.363  14.265 -0.4503 -0.1869  0.2785
  570TIP3    H123125   2.123   1.344  14.249  0.0465  2.1768  0.0806
  570TIP3    H223126   2.020   1.355  14.359  0.7466  2.4108  0.7209
  571TIP3   OH223127   2.201   1.277   3.184  0.5136 -0.3210 -0.0370
  571TIP3    H123128   2.126   1.334   3.166  0.1780  0.1395  2.4006
  571TIP3    H223129   2.271   1.311   3.128 -0.7610 -0.0301 -1.5191
  572TIP3   OH223130   5.438   5.324  13.609  0.3077 -0.4223 -0.5711
  572TIP3    H123131   5.424   5.234  13.579  0.3102  0.2129 -2.5997
  572TIP3    H223132   5.420   5.379  13.533 -0.2438  1.3683  0.7587
  573TIP3   OH223133   5.333   0.073   3.819  0.1058  1.0722  0.4668
  573TIP3    H123134   5.274   0.143   3.844 -0.6469  0.1990  1.2301
  573TIP3    H223135   5.280   0.015   3.763  0.5621  0.8467  0.2584
  574TIP3   OH223136   2.287   0.774  13.627 -0.8322 -0.3281  0.0287
  574TIP3    H123137   2.235   0.746  13.551 -0.4514  1.9624 -1.1850
  574TIP3    H223138   2.223   0.811  13.688 -1.0596 -1.5020  0.5203
  575TIP3   OH223139   1.581   0.656  14.349 -0.1040 -0.5660 -0.1397
  575TIP3    H123140   1.511   0.646  14.414  0.5307 -1.2543  0.4622
  575TIP3    H223141   1.560   0.591  14.282 -1.4575  0.9952 -1.3101
  576TIP3   OH223142   4.256   5.391   2.079  0.0605 -0.3850  0.3628
  576TIP3    H123143   4.235   5.381   1.986  0.6769 -0.4935  0.2319
  576TIP3    H223144   4.351   5.386   2.083  0.1949  1.6201  0.7565
  577TIP3   OH223145   5.031   3.620   3.189 -0.1415  0.1859 -0.1240
  577TIP3    H123146   4.945   3.600   3.225 -0.9941  1.6070 -1.2543
  577TIP3    H223147   5.053   3.545   3.135 -0.4586 -0.3891  0.5346
  578TIP3   OH223148   6.706   1.461  14.744  0.3246 -0.0023 -0.1757
  578TIP3    H123149   6.631   1.407  14.720 -0.4073 -0.0834  2.0189
  578TIP3    H223150   6.677   1.551  14.729  0.4332 -0.0852 -0.9328
  579TIP3   OH223151   0.895   2.344   1.698  0.2996 -0.0974  0.2646
  579TIP3    H123152   0.931   2.278   1.758 -0.1041 -0.0318  0.5856
  579TIP3    H223153   0.821   2.382   1.746 -1.3692 -1.5045 -1.0661
  580TIP3   OH223154   0.453   5.496   5.360  0.0503 -0.4410  0.8949
  580TIP3    H123155   0.490   5.507   5.448  1.2079  1.7170  0.2114
  580TIP3    H223156   0.514   5.542   5.303 -1.7610 -0.0135 -0.7929
  581TIP3   OH223157   6.343   6.076   4.428 -0.3965 -0.2217 -0.1651
  581TIP3    H123158   6.248   6.064   4.433 -0.2280 -1.0413  2.2312
  581TIP3    H223159   6.380   5.993   4.458  1.0886  0.1948 -0.7398
  582TIP3   OH223160   3.789   3.780  15.675 -0.0756  0.0406 -0.0871
  582TIP3    H123161   3.716   3.835  15.648  0.3811  1.3941  1.2572
  582TIP3    H223162   3.789   3.785  15.771  0.8785 -1.1432  0.0066
  583TIP3   OH223163   3.173   2.140   0.821 -0.0288 -0.0811  0.3717
  583TIP3    H123164   3.148   2.230   0.843 -0.1112 -0.5073  2.2213
  583TIP3    H223165   3.243   2.119   0.883  1.2166 -0.7296 -1.1901
  584TIP3   OH223166   6.061   6.191  10.506  0.0717  0.1109 -0.0154
  584TIP3    H123167   6.134   6.217  10.562 -0.1570 -1.1355  0.9015
  584TIP3    H223168   5.984   6.225  10.550  0.0258  0.7498 -0.5738
  585TIP3   OH223169   4.204   0.595   4.372 -0.3009 -0.2784 -0.0745
  585TIP3    H123170   4.167   0.639   4.295 -0.3914 -1.1248 -0.5323
  585TIP3    H223171   4.298   0.608   4.366 -0.3348 -0.0879 -0.1687
  586TIP3   OH223172   0.021   1.036   3.442  0.1551 -0.4996  0.3663
  586TIP3    H123173  -0.030   1.021   3.522 -0.7139 -1.4250 -0.3455
  586TIP3    H223174   0.024   1.132   3.434  0.3811 -0.3834  1.5717
  587TIP3   OH223175   4.966   1.203  12.418  0.7202 -0.6847  0.0933
  587TIP3    H123176   4.870   1.204  12.408  0.8752 -0.4847 -1.6802
  587TIP3    H223177   4.984   1.266  12.487 -0.3879 -0.2311 -0.0171
  588TIP3   OH223178   5.531   6.180  13.867  0.3065 -0.7676 -0.5938
  588TIP3    H123179   5.499   6.090  13.858 -2.1004 -0.1829  1.1015
  588TIP3    H223180   5.538   6.194  13.961  0.5234  0.8404 -0.8153
  589TIP3   OH223181   5.323   1.719   1.665 -0.8335 -0.1654 -0.0261
  589TIP3    H123182   5.346   1.647   1.724  0.8663  1.4100  1.3567
  589TIP3    H223183   5.306   1.677   1.581  0.8801 -2.1127  0.5298
  590TIP3   OH223184   1.737   6.256   0.242  0.1724  0.2523 -0.4143
  590TIP3    H123185   1.664   6.316   0.248  1.8104  2.3166  0.0119
  590TIP3    H223186   1.756   6.249   0.149  0.7069  1.3856 -0.4030
  591TIP3   OH223187   4.935   2.049  14.778 -0.0575 -0.2437  0.4052
  591TIP3    H123188   4.940   2.138  14.743 -0.1701 -0.5368 -0.3862
  591TIP3    H223189   5.019   2.034  14.820  0.3798 -0.1556 -0.4312
  592TIP3   OH223190   2.641   5.837   2.007  0.0844  0.7940  0.0982
  592TIP3    H123191   2.623   5.770   1.942 -0.5627  2.6648 -1.7717
  592TIP3    H223192   2.708   5.799   2.064 -2.4970 -2.6399  1.1880
  593TIP3   OH223193   2.397   1.147  16.179 -0.2236 -0.5081 -0.1444
  593TIP3    H123194   2.336   1.206  16.133 -0.3444 -0.5817 -0.0796
  593TIP3    H223195   2.421   1.195  16.258 -0.7327 -0.7619  0.1710
  594TIP3   OH223196   0.426   5.930   3.285  0.3670  0.4432  0.1405
  594TIP3    H123197   0.512   5.962   3.311  0.6708  0.7179 -1.1430
  594TIP3    H223198   0.441   5.839   3.260  0.3014  0.5048 -0.1291
  595TIP3   OH223199   6.215   2.857   5.886 -0.7749 -0.3752 -0.3665
  595TIP3    H123200   6.175   2.815   5.962  1.2011 -1.8815 -0.0755
  595TIP3    H223201   6.285   2.910   5.923 -2.5363  2.5102 -0.8321
  596TIP3   OH223202   3.249   2.399  14.011  0.2031 -0.2315  0.0414
  596TIP3    H123203   3.171   2.453  14.024  0.0556 -0.4422  0.0479
  596TIP3    H223204   3.319   2.446  14.056  0.2283  0.3075 -0.5401
  597TIP3   OH223205   0.081   6.770   2.048 -0.2430 -0.2209  0.2837
  597TIP3    H123206   0.159   6.719   2.072 -0.0830 -0.8267 -1.3820
  597TIP3    H223207   0.114   6.859   2.036  0.1125 -0.3865  0.0149
  598TIP3   OH223208   0.475   0.635  12.919  0.5206 -0.2569  0.0351
  598TIP3    H123209   0.513   0.574  12.983  1.3118  0.4611  0.2744
  598TIP3    H223210   0.406   0.681  12.967 -2.1507 -2.9406 -0.9312
  599TIP3   OH223211   2.139   5.324   4.525 -0.1511 -0.4088  0.4070
  599TIP3    H123212   2.204   5.264   4.488 -0.6554 -0.1704 -0.9342
  599TIP3    H223213   2.065   5.321   4.463 -0.2636  1.4525  0.3770
  600TIP3   OH223214   1.742   2.897  12.917  0.7708 -0.2782 -0.3784
  600TIP3    H123215   1.817   2.926  12.969  1.0977 -1.6247 -0.0450
  600TIP3    H223216   1.767   2.916  12.827  0.7548  0.8857 -0.1508
  601TIP3   OH223217   3.659   5.676  12.862 -0.2977 -0.5673 -0.0481
  601TIP3    H123218   3.723   5.621  12.908  0.0785  1.0239  1.4315
  601TIP3    H223219   3.574   5.643  12.892 -0.0930 -0.6471  0.4577
  602TIP3   OH223220   3.574   1.736   1.871  0.2817  0.3298 -0.2025
  602TIP3    H123221   3.583   1.822   1.913  0.2071  0.6931 -0.9224
  602TIP3    H223222   3.541   1.679   1.941  0.1257  0.9322  0.2230
  603TIP3   OH223223   2.046   0.116  12.375  0.3315  0.5621  0.4270
  603TIP3    H123224   2.026   0.115  12.282 -0.1128 -0.4273  0.5109
  603TIP3    H223225   2.026   0.205  12.404  2.1659  1.4212 -0.7454
  604TIP3   OH223226   2.457   0.287   1.183  0.2355 -0.1952  0.4797
  604TIP3    H123227   2.410   0.366   1.155 -1.4000 -0.8141  1.3591
  604TIP3    H223228   2.490   0.308   1.270 -2.0573 -1.1191  1.6729
  605TIP3   OH223229   1.698   5.588   1.178 -0.7522 -0.5494  0.0338
  605TIP3    H123230   1.626   5.649   1.160  1.0434  2.8912  3.2204
  605TIP3    H223231   1.655   5.510   1.213 -3.0431 -0.4975 -2.2659
  606TIP3   OH223232   4.962   3.772  16.385 -0.1786 -0.5411  0.3228
  606TIP3    H123233   5.031   3.780  16.319 -0.7080 -0.5510 -0.2406
  606TIP3    H223234   4.908   3.699  16.354 -2.3848  1.5339 -1.0695
  607TIP3   OH223235   5.960   0.809  13.575  0.1815  0.5079  0.4540
  607TIP3    H123236   5.942   0.785  13.666 -1.2138 -0.1005  0.0529
  607TIP3    H223237   5.953   0.905  13.574 -2.0813  0.4065  0.5966
  608TIP3   OH223238   0.578   6.150   1.696  0.1985  0.1416 -0.1411
  608TIP3    H123239   0.487   6.130   1.675  0.3961 -0.7200 -0.2283
  608TIP3    H223240   0.621   6.157   1.610  0.1689  0.8143 -0.1080
  609TIP3   OH223241   0.675   5.459   2.393  0.0539  0.1733 -0.3407
  609TIP3    H123242   0.715   5.374   2.376 -0.7360  0.3651 -3.7372
  609TIP3    H223243   0.743   5.523   2.371 -0.8788  0.4275 -2.7595
  610TIP3   OH223244   4.174   5.112   0.587  0.3927 -0.1141 -0.7030
  610TIP3    H123245   4.209   5.137   0.501 -0.5881 -2.2788 -1.8142
  610TIP3    H223246   4.248   5.126   0.647  1.0868  1.5248 -1.8303
  611TIP3   OH223247   3.508   6.136  16.672  0.3294  0.4680 -0.0135
  611TIP3    H123248   3.565   6.178  16.607  0.5527  0.4657  0.1787
  611TIP3    H223249   3.530   6.043  16.667 -1.5138  0.0684 -1.7937
  612TIP3   OH223250   2.416   1.723  16.050 -0.9202 -0.2393  0.4467
  612TIP3    H123251   2.441   1.741  15.959  0.8971  0.8949  1.1391
  612TIP3    H223252   2.332   1.767  16.060 -0.7309  0.3525 -0.4365
  613TIP3   OH223253   0.701   3.856   4.748  0.1958 -0.0003 -0.0377
  613TIP3    H123254   0.698   3.873   4.842 -0.0908  0.2671 -0.0955
  613TIP3    H223255   0.780   3.802   4.736 -0.5021 -1.1834  0.5364
  614TIP3   OH223256   4.242   1.025  13.542  0.1262 -0.7477  0.1620
  614TIP3    H123257   4.195   1.078  13.477  2.3618  1.3432  0.0700
  614TIP3    H223258   4.310   0.980  13.490  0.2660 -1.1570  0.6984
  615TIP3   OH223259   3.803   2.454  13.259 -0.0926  0.4889 -0.0792
  615TIP3    H123260   3.759   2.465  13.343  0.3650 -1.8288  0.5258
  615TIP3    H223261   3.793   2.539  13.216 -1.1434  1.4495  1.9094
  616TIP3   OH223262   2.204   6.586  16.096 -0.1751  0.2927  0.0822
  616TIP3    H123263   2.114   6.553  16.093 -0.2272  0.2499  1.5177
  616TIP3    H223264   2.247   6.544  16.021 -1.0880 -0.4800 -0.0305
  617TIP3   OH223265   5.657   1.174  12.210  0.1407  0.0828 -0.0481
  617TIP3    H123266   5.649   1.220  12.127  0.6973 -1.3296 -0.9246
  617TIP3    H223267   5.688   1.240  12.272  0.9941  0.8677 -1.2713
  618TIP3   OH223268   5.613   4.266   1.647 -0.2983 -0.3615  0.0529
  618TIP3    H123269   5.618   4.327   1.573  1.8355 -1.9331 -1.2195
  618TIP3    H223270   5.535   4.213   1.628 -0.2321 -0.2165 -0.6805
  619TIP3   OH223271   2.432   5.913   0.560  0.0797 -0.5335 -0.0768
  619TIP3    H123272   2.399   5.988   0.510 -1.3449 -1.5480 -0.7275
  619TIP3    H223273   2.403   5.929   0.649 -0.5859 -0.5109 -0.2921
  620TIP3   OH223274   1.186   5.942  10.954 -0.2095 -0.1481  0.3845
  620TIP3    H123275   1.241   5.968  10.880  0.1224 -0.6402  0.4586
  620TIP3    H223276   1.119   5.885  10.915 -0.7265  0.5163  0.2798
  621TIP3   OH223277   5.209   5.177   4.206 -0.4894 -0.2493 -0.0957
  621TIP3    H123278   5.250   5.092   4.222  0.7955  0.2780 -0.5228
  621TIP3    H223279   5.256   5.213   4.131 -0.3583  1.2756  0.6801
  622TIP3   OH223280   6.016   2.941  16.006 -0.0149  0.4536 -0.0319
  622TIP3    H123281   6.017   3.029  15.969 -0.1624  1.4938  2.3011
  622TIP3    H223282   6.035   2.953  16.099  0.6242 -2.0561  0.2338
  623TIP3   OH223283   5.573   6.574  15.121  0.6919  0.0961  0.0310
  623TIP3    H123284   5.555   6.504  15.183 -0.5346  0.2272 -0.1593
  623TIP3    H223285   5.487   6.611  15.100  1.2054  0.8759 -0.7795
  624TIP3   OH223286   1.566   0.775  16.039 -0.5489 -0.1519 -0.4775
  624TIP3    H123287   1.611   0.813  16.115  0.7019 -2.8940  0.2847
  624TIP3    H223288   1.495   0.723  16.077 -0.3544 -0.9794 -1.2087
  625TIP3   OH223289   5.101   2.210  11.547  0.2901 -0.0635  0.1710
  625TIP3    H123290   5.021   2.216  11.600 -0.0480 -1.3745 -0.1461
  625TIP3    H223291   5.171   2.205  11.612  0.0389  0.2374  0.4715
  626TIP3   OH223292   5.844   0.740   3.294 -0.0470 -0.0606  0.7976
  626TIP3    H123293   5.872   0.714   3.381 -0.0605  0.5386  0.9845
  626TIP3    H223294   5.891   0.821   3.276  0.5041 -0.5465 -0.0469
  627TIP3   OH223295   6.306   4.435   3.552 -0.2293 -0.2909 -0.0963
  627TIP3    H123296   6.227   4.394   3.588 -0.8257  0.5611 -0.4036
  627TIP3    H223297   6.274   4.491   3.481  0.6050  0.3515  0.0131
  628TIP3   OH223298   1.870   3.096   5.571  0.6073 -0.2015  0.6167
  628TIP3    H123299   1.812   3.151   5.520 -0.7297 -1.1729  1.0411
  628TIP3    H223300   1.907   3.155   5.637 -0.0572  0.3960  0.4633
  629TIP3   OH223301   3.512   1.893   4.457  0.0666  0.0637 -0.1764
  629TIP3    H123302   3.485   1.822   4.400 -0.2238  1.3808 -1.7443
  629TIP3    H223303   3.607   1.893   4.452  0.1110 -0.6451  0.4178
  630TIP3   OH223304   5.564   6.220   1.241  0.1239  0.1477  0.1945
  630TIP3    H123305   5.528   6.264   1.317 -1.4406  2.4491 -1.7268
  630TIP3    H223306   5.494   6.161   1.212  0.4643 -0.2437  0.1564
  631TIP3   OH223307   4.765   0.121   2.313  0.4698 -0.1721  0.1844
  631TIP3    H123308   4.703   0.175   2.361  0.9940  1.4399 -0.8510
  631TIP3    H223309   4.743   0.137   2.221  0.9524 -1.3735 -0.1471
  632TIP3   OH223310   4.629   5.132   5.346 -0.1809  0.4510  0.0795
  632TIP3    H123311   4.627   5.038   5.330 -0.9749  0.0646  2.2107
  632TIP3    H223312   4.720   5.157   5.327  0.1668 -0.8264 -0.0170
  633TIP3   OH223313   2.432   3.905  13.808 -0.0538 -0.2269 -0.0158
  633TIP3    H123314   2.408   3.904  13.716  1.3145 -0.6715 -0.3918
  633TIP3    H223315   2.483   3.825  13.821 -0.2587 -0.1986  1.1437
  634TIP3   OH223316   1.166   2.737  14.891 -0.0241  0.1057 -0.6115
  634TIP3    H123317   1.110   2.671  14.933  2.8231 -3.1091 -1.3920
  634TIP3    H223318   1.137   2.738  14.800 -0.6317  0.6209 -0.4190
  635TIP3   OH223319   3.292   0.800   0.244  0.0472  0.4493 -0.0668
  635TIP3    H123320   3.340   0.882   0.260  1.9464 -1.0200  2.5625
  635TIP3    H223321   3.355   0.731   0.266 -1.5044 -1.7946 -2.1126
  636TIP3   OH223322   4.113   0.891   6.791  0.4453 -0.0030  0.0339
  636TIP3    H123323   4.158   0.940   6.859  0.3860  0.2097 -0.0789
  636TIP3    H223324   4.022   0.919   6.797  0.5293  0.4071 -0.4675
  637TIP3   OH223325   4.983   5.675  17.197 -0.7093 -0.7606  0.5404
  637TIP3    H123326   4.965   5.719  17.280 -0.3424 -0.4173  0.4412
  637TIP3    H223327   4.998   5.583  17.222  0.9345 -0.3886  1.0590
  638TIP3   OH223328   5.169   5.173  16.077  0.7410  0.2516 -0.3084
  638TIP3    H123329   5.205   5.209  16.158  1.0443  0.8050 -0.6836
  638TIP3    H223330   5.233   5.107  16.051  0.1648 -0.6190  0.3990
  639TIP3   OH223331   2.787   6.575   3.459  0.4945 -0.1118 -0.1887
  639TIP3    H123332   2.789   6.487   3.421 -0.2017 -0.4961  0.6327
  639TIP3    H223333   2.849   6.571   3.532  2.9593  1.0503 -2.0989
  640TIP3   OH223334   5.588   2.852   2.291  0.0172  0.2702 -0.1246
  640TIP3    H123335   5.570   2.853   2.385 -1.4812  0.9316 -0.3832
  640TIP3    H223336   5.533   2.781   2.257 -0.3144  0.7655 -0.6433
  641TIP3   OH223337   0.645   1.722  15.309 -0.7029  0.2626  0.1818
  641TIP3    H123338   0.599   1.652  15.356  0.0946 -1.0541 -0.9059
  641TIP3    H223339   0.595   1.801  15.328 -2.7529 -0.9101 -0.0275
  642TIP3   OH223340   1.660   1.753   1.656  0.1633 -0.1747 -0.3774
  642TIP3    H123341   1.615   1.809   1.719 -0.1924 -0.1451 -0.6506
  642TIP3    H223342   1.670   1.809   1.579  1.9165  0.2763  0.1429
  643TIP3   OH223343   3.660   2.484  16.436 -0.1048 -0.1239 -0.2166
  643TIP3    H123344   3.654   2.518  16.526  0.1928  1.4352 -0.7518
  643TIP3    H223345   3.743   2.436  16.434  0.0911  0.1830  0.2412
  644TIP3   OH223346   0.185   0.379  16.162  0.4387  0.6769 -0.3587
  644TIP3    H123347   0.189   0.360  16.068 -2.3732  0.2352 -0.4670
  644TIP3    H223348   0.194   0.474  16.168  0.1569  0.7592 -1.1431
  645TIP3   OH223349   4.440   0.751  13.685 -0.0340  0.5534  0.1255
  645TIP3    H123350   4.531   0.765  13.659  0.1524  1.6940  1.2703
  645TIP3    H223351   4.432   0.797  13.769 -1.2960 -0.6986  0.7281
  646TIP3   OH223352   2.575   6.659   1.151  0.5428  0.7234 -0.6634
  646TIP3    H123353   2.579   6.720   1.077 -1.3591  2.0591  0.2455
  646TIP3    H223354   2.503   6.600   1.130  2.8897 -1.9159 -1.9295
  647TIP3   OH223355   1.891   3.836   5.911  0.1594  0.2249  0.3120
  647TIP3    H123356   1.832   3.899   5.871  0.0480 -0.6049 -0.8969
  647TIP3    H223357   1.920   3.877   5.992 -0.3718  1.5580 -0.1588
  648TIP3   OH223358   3.200   3.494   1.784  0.2649  0.0687  0.2459
  648TIP3    H123359   3.264   3.563   1.765  1.5562 -1.1407  0.0789
  648TIP3    H223360   3.227   3.420   1.729 -0.0864 -1.1384  1.6479
  649TIP3   OH223361   2.638   2.394  12.243  0.0632 -0.1081  0.3515
  649TIP3    H123362   2.581   2.321  12.268  1.1230 -1.7695 -1.7788
  649TIP3    H223363   2.727   2.358  12.248  0.6967  1.3677  0.2157
  650TIP3   OH223364   6.245   4.821   6.030 -0.4672  0.3462  0.2302
  650TIP3    H123365   6.325   4.848   5.986  0.0856 -1.1921  0.2397
  650TIP3    H223366   6.257   4.852   6.120 -0.1878  0.7113  0.0730
  651TIP3   OH223367   0.809   6.037  13.599  0.2617  0.2210 -0.0654
  651TIP3    H123368   0.855   5.955  13.579  0.0299  0.2585 -0.8070
  651TIP3    H223369   0.745   6.046  13.528 -2.3190 -0.8712  1.9318
  652TIP3   OH223370   6.535   1.165   4.480 -0.2738 -0.0505  0.3086
  652TIP3    H123371   6.550   1.174   4.574 -1.6495  1.2528  0.4356
  652TIP3    H223372   6.476   1.090   4.472  0.4370 -0.6367  0.3937
  653TIP3   OH223373   6.490   0.078   3.970 -0.2470  0.0108 -0.3488
  653TIP3    H123374   6.437   0.043   3.898  2.2772 -0.2129 -2.2352
  653TIP3    H223375   6.560   0.013   3.982  0.1391  0.6915  1.4369
  654TIP3   OH223376   5.838   6.152  13.937 -0.7085 -0.2158  0.0293
  654TIP3    H123377   5.923   6.136  13.897 -1.1726  1.4382 -1.7575
  654TIP3    H223378   5.786   6.075  13.914 -0.3480 -0.2227 -0.7874
  655TIP3   OH223379   0.006   1.214   3.698 -0.0066 -1.0423  1.6656
  655TIP3    H123380   0.045   1.199   3.784  1.2258  1.5688  1.6664
  655TIP3    H223381   0.049   1.294   3.666 -1.5925 -1.0360 -0.6880
  656TIP3   OH223382   5.719   1.106  14.082 -0.2127  0.2250 -0.1243
  656TIP3    H123383   5.695   1.196  14.105 -2.2969 -0.3513  0.1736
  656TIP3    H223384   5.764   1.073  14.160  0.2127  0.8711 -0.0892
  657TIP3   OH223385   3.256   0.847  12.842  0.7028 -0.2185  0.0843
  657TIP3    H123386   3.266   0.855  12.936  0.1428  1.3844  0.0325
  657TIP3    H223387   3.286   0.758  12.822 -1.3752 -1.4483  2.0415
  658TIP3   OH223388   6.122   4.333   1.691  0.0803  0.1000 -0.2652
  658TIP3    H123389   6.131   4.428   1.695  1.0165 -0.0308  2.1741
  658TIP3    H223390   6.029   4.317   1.706  0.0120  0.6001 -0.1425
  659TIP3   OH223391   0.133   0.594  15.788 -0.1328  0.1820 -0.2235
  659TIP3    H123392   0.206   0.652  15.809 -0.3858 -0.2645  2.3064
  659TIP3    H223393   0.060   0.627  15.841 -1.0617 -0.7957 -0.8445
  660TIP3   OH223394   3.343   5.712   4.213  0.0418  0.0119  0.1007
  660TIP3    H123395   3.327   5.805   4.228 -0.3455 -0.2124  1.2050
  660TIP3    H223396   3.402   5.686   4.284  0.9160 -0.3906 -0.7446
  661TIP3   OH223397   6.677   5.604  17.068 -0.3389 -0.2972  0.0348
  661TIP3    H123398   6.749   5.667  17.078 -1.6208  1.0936  1.0966
  661TIP3    H223399   6.633   5.605  17.153 -2.2086 -0.3156 -0.8922
  662TIP3   OH223400   2.638   1.896  11.979  0.4993 -1.0524 -0.4923
  662TIP3    H123401   2.628   1.991  11.981 -0.6907 -1.1635  1.1888
  662TIP3    H223402   2.725   1.881  12.015  1.4221 -0.5649 -2.4196
  663TIP3   OH223403   0.940   0.420  15.510  0.2637  0.3049 -0.0397
  663TIP3    H123404   0.908   0.378  15.430 -0.7380 -0.2207  0.6188
  663TIP3    H223405   0.983   0.500  15.479  0.3845 -0.1623 -1.1422
  664TIP3   OH223406   3.830   0.888   2.267 -0.1032 -0.1591  0.0117
  664TIP3    H123407   3.919   0.908   2.238  0.4063 -1.2273  0.7527
  664TIP3    H223408   3.773   0.918   2.196  0.7898  1.2639 -0.1251
  665TIP3   OH223409   2.316   0.110  14.933  0.7863  0.5713  0.1608
  665TIP3    H123410   2.326   0.039  14.997  0.9682 -0.0435 -0.5396
  665TIP3    H223411   2.232   0.092  14.891  0.7700  0.8486  0.0727
  666TIP3   OH223412   1.026   0.089  13.348 -0.0228 -0.1592  0.4410
  666TIP3    H123413   1.032   0.172  13.301  1.2757  0.2196  1.2155
  666TIP3    H223414   0.982   0.111  13.430 -0.8435 -0.5115  0.1121
  667TIP3   OH223415   1.757   0.226   3.776  0.6949  0.4813 -0.4452
  667TIP3    H123416   1.836   0.257   3.730  0.9830 -0.6473 -0.7622
  667TIP3    H223417   1.783   0.223   3.868  0.9655  0.3173 -0.5228
  668TIP3   OH223418   1.516   5.754  13.196  0.0309  0.2016  0.0305
  668TIP3    H123419   1.570   5.826  13.228  0.2933  0.6219 -1.2923
  668TIP3    H223420   1.515   5.765  13.101 -0.6998 -1.0000 -0.1258
  669TIP3   OH223421   4.980   5.886   4.998  0.1953  0.3483 -0.3147
  669TIP3    H123422   4.954   5.977   5.009 -1.5482 -0.1928  0.4857
  669TIP3    H223423   5.001   5.856   5.087  1.3530  0.1249 -0.6508
  670TIP3   OH223424   0.525   5.599  14.533  0.0630  0.4940  0.3402
  670TIP3    H123425   0.511   5.694  14.538 -1.8453  0.3928 -1.5144
  670TIP3    H223426   0.459   5.562  14.591  0.0803  0.2898  0.2313
  671TIP3   OH223427   6.445   4.736  16.747 -0.2191  0.1068 -0.5147
  671TIP3    H123428   6.354   4.724  16.718  0.0083  1.0594 -1.6566
  671TIP3    H223429   6.494   4.669  16.700 -0.4384 -1.0045  0.7848
  672TIP3   OH223430   5.423   5.939  16.339 -0.0403  0.4642  0.2435
  672TIP3    H123431   5.359   6.009  16.328  1.4401  1.7172 -0.8621
  672TIP3    H223432   5.402   5.877  16.269 -0.7140  0.3083  0.5780
  673TIP3   OH223433   1.715   5.072   5.229 -0.7385  0.4159 -0.1268
  673TIP3    H123434   1.724   5.053   5.322  0.0735 -0.1523 -0.3115
  673TIP3    H223435   1.752   5.160   5.219  0.1297  0.0655 -0.0725
  674TIP3   OH223436   5.407   2.570   5.619  0.2972  0.2031 -0.4933
  674TIP3    H123437   5.484   2.546   5.567  0.9400  1.6348 -0.2456
  674TIP3    H223438   5.419   2.663   5.638 -1.2000  0.3034  0.0758
  675TIP3   OH223439   1.126   1.432   5.348  0.6325 -0.2530 -0.3069
  675TIP3    H123440   1.188   1.426   5.276  1.2493 -2.2665  0.3228
  675TIP3    H223441   1.109   1.341   5.373 -1.4102  0.2989  0.5462
  676TIP3   OH223442   3.012   4.549   6.098 -0.0947 -0.4262  0.0772
  676TIP3    H123443   3.067   4.489   6.148  0.4728 -0.1494 -0.2028
  676TIP3    H223444   3.046   4.636   6.118 -1.4298 -0.1173  1.1190
  677TIP3   OH223445   5.307   6.527  15.478 -0.0736 -0.3727 -0.4416
  677TIP3    H123446   5.287   6.460  15.412 -0.4696  0.0612 -0.7651
  677TIP3    H223447   5.368   6.483  15.538  1.9909 -0.1559 -2.2340
  678TIP3   OH223448   1.583   1.586  16.516 -0.0071 -0.2013 -0.3850
  678TIP3    H123449   1.624   1.555  16.596 -1.4163 -0.8146  0.1389
  678TIP3    H223450   1.651   1.638  16.472  1.0084 -0.4434  0.8463
  679TIP3   OH223451   5.477   1.605  11.004 -0.4997  0.2240  0.3602
  679TIP3    H123452   5.483   1.524  10.954  0.1743  1.7034 -2.1379
  679TIP3    H223453   5.405   1.653  10.963 -0.8282  0.9450  1.7297
  680TIP3   OH223454   2.986   5.612   4.225  0.3651  0.1067 -0.1377
  680TIP3    H123455   3.027   5.525   4.232  0.7698  0.3131  0.0830
  680TIP3    H223456   2.911   5.598   4.167  0.5518 -0.3479 -0.2749
  681TIP3   OH223457   3.198   5.986  15.526  0.1944 -0.0704 -0.2637
  681TIP3    H123458   3.289   6.007  15.508  0.0416 -0.2880 -1.3648
  681TIP3    H223459   3.170   6.053  15.589  1.0029  0.2261 -0.2087
  682TIP3   OH223460   0.159   3.552   0.280  0.1852 -0.0501  0.2087
  682TIP3    H123461   0.131   3.514   0.197 -0.2061 -0.4865  0.5321
  682TIP3    H223462   0.230   3.611   0.257 -1.6655  1.9280 -0.8232
  683TIP3   OH223463   1.003   2.078  14.752 -0.6442 -0.0206  0.2431
  683TIP3    H123464   1.084   2.053  14.797 -0.5820 -0.2310  0.0179
  683TIP3    H223465   0.947   2.114  14.821  0.0142  1.0439  0.2507
  684TIP3   OH223466   6.424   3.965  11.371  0.1200  0.2486 -0.2397
  684TIP3    H123467   6.440   3.873  11.353  0.4953  0.3105 -0.2406
  684TIP3    H223468   6.330   3.977  11.357 -0.1180 -0.3587  0.7389
  685TIP3   OH223469   6.552   1.535   3.491  0.0841  0.1725  0.1282
  685TIP3    H123470   6.603   1.599   3.541  0.6025  0.8590 -1.2233
  685TIP3    H223471   6.526   1.582   3.412  2.1501 -1.8160 -1.8585
  686TIP3   OH223472   2.753   6.048  16.206 -0.0482 -0.1522 -0.5843
  686TIP3    H123473   2.771   6.137  16.176  1.4808 -0.7922 -1.6769
  686TIP3    H223474   2.765   6.051  16.300 -1.8227  1.1853 -0.3496
  687TIP3   OH223475   4.849   3.694  11.807  0.2889  0.5264 -0.5131
  687TIP3    H123476   4.785   3.732  11.748 -1.3822 -2.3027 -0.7263
  687TIP3    H223477   4.908   3.644  11.750  2.0431  2.1086 -0.1979
  688TIP3   OH223478   2.273   5.017  15.235 -0.8889  0.0261 -0.3882
  688TIP3    H123479   2.190   5.035  15.193  0.0152 -1.7741 -3.2050
  688TIP3    H223480   2.301   4.933  15.200  1.6691  0.0780  1.2197
  689TIP3   OH223481   6.226   1.736   5.476 -0.1547  0.0719 -0.1158
  689TIP3    H123482   6.282   1.699   5.544  0.4228  0.5202 -0.3375
  689TIP3    H223483   6.200   1.661   5.423 -2.1698 -0.5798  1.6796
  690TIP3   OH223484   4.363   2.698  15.443  0.7865  0.0943  0.3729
  690TIP3    H123485   4.380   2.754  15.368 -1.9554 -0.3215 -0.6995
  690TIP3    H223486   4.293   2.742  15.490 -0.8162 -1.8839  0.0004
  691TIP3   OH223487   6.765   3.146   3.123  0.0412  0.3678  0.1096
  691TIP3    H123488   6.834   3.172   3.062 -1.2420  0.7071 -1.2468
  691TIP3    H223489   6.708   3.089   3.072 -0.6827  0.0836  1.2071
  692TIP3   OH223490   4.615   4.984  11.284  0.3073 -0.2341 -0.6305
  692TIP3    H123491   4.535   5.016  11.241  0.9226  0.6499 -1.1603
  692TIP3    H223492   4.594   4.984  11.377 -1.0843 -2.2722 -0.8951
  693TIP3   OH223493   3.650   0.140   1.793 -0.4644  0.3768 -0.3499
  693TIP3    H123494   3.652   0.155   1.699 -0.5574  3.0481 -0.0039
  693TIP3    H223495   3.559   0.152   1.817 -0.6753 -1.6102 -0.0635
  694TIP3   OH223496   6.597   0.486  12.500  0.2005 -0.0167 -0.4576
  694TIP3    H123497   6.505   0.484  12.474 -0.2041 -1.1500  0.9102
  694TIP3    H223498   6.625   0.577  12.484 -1.7485  0.9133  0.9818
  695TIP3   OH223499   4.817   4.068  11.176 -0.0633  0.1164  0.5486
  695TIP3    H123500   4.848   4.112  11.097  1.0778  0.8730  1.3876
  695TIP3    H223501   4.722   4.078  11.172  0.0610  1.3052 -0.0787
  696TIP3   OH223502   0.173   1.926   2.254 -0.8190  0.2544  0.2574
  696TIP3    H123503   0.228   1.976   2.194  0.3548  0.1118  1.1774
  696TIP3    H223504   0.184   1.968   2.339  0.0541 -1.3788  1.0195
  697TIP3   OH223505   2.103   0.297   4.638 -0.3520 -0.1780 -0.5382
  697TIP3    H123506   2.113   0.349   4.558  0.7364  0.0919 -0.2428
  697TIP3    H223507   2.059   0.217   4.610  1.5137 -0.8328 -1.7170
  698TIP3   OH223508   2.975   0.115  13.979  0.1153  0.0696  0.4200
  698TIP3    H123509   2.891   0.071  13.964  0.8148 -1.1550 -0.0636
  698TIP3    H223510   2.973   0.190  13.919 -0.0426 -0.7903 -0.6961
  699TIP3   OH223511   4.344   0.376   6.331  0.5580 -0.2615  0.2449
  699TIP3    H123512   4.290   0.437   6.280  2.1170 -0.1912 -1.4123
  699TIP3    H223513   4.283   0.340   6.396 -1.4579 -0.0417 -1.3909
  700TIP3   OH223514   3.704   2.309  11.444 -0.7600 -0.4149 -0.2917
  700TIP3    H123515   3.636   2.291  11.509  0.0589 -0.5969  0.5385
  700TIP3    H223516   3.673   2.386  11.396 -1.0740  0.1295  0.7618
  701TIP3   OH223517   0.110   2.355  14.958  0.1353  0.2972 -0.9522
  701TIP3    H123518   0.019   2.333  14.939 -0.4335 -3.1937  3.8970
  701TIP3    H223519   0.159   2.276  14.937  1.8042  1.4119 -1.5280
  702TIP3   OH223520   5.329   6.722  12.648  0.2617  0.1080  0.2402
  702TIP3    H123521   5.286   6.656  12.702 -0.0282  0.8157  0.8955
  702TIP3    H223522   5.413   6.738  12.691  0.1386  0.4855  0.3518
  703TIP3   OH223523   4.827   4.844   0.913 -0.4456  0.4549 -0.3490
  703TIP3    H123524   4.790   4.795   0.987 -1.1904 -2.0383 -2.2448
  703TIP3    H223525   4.920   4.852   0.934 -0.7734  0.5525  1.2145
  704TIP3   OH223526   6.344   4.695   6.487 -0.2596  0.7071 -0.7350
  704TIP3    H123527   6.382   4.725   6.404  1.0594  1.8996  0.2517
  704TIP3    H223528   6.250   4.706   6.475 -0.0166  2.1978 -1.6224
  705TIP3   OH223529   4.944   3.268  13.261  0.0028  0.8873 -0.3080
  705TIP3    H123530   4.974   3.220  13.184  0.1886  2.2997 -1.1664
  705TIP3    H223531   4.867   3.316  13.231 -1.0220  0.0749  0.9097
  706TIP3   OH223532   0.333   2.258   5.437  0.1482 -0.0545  0.8577
  706TIP3    H123533   0.294   2.320   5.498  0.2148  1.1133 -0.2633
  706TIP3    H223534   0.283   2.269   5.356  1.1095 -0.4097  0.1952
  707TIP3   OH223535   0.315   5.636   6.100  0.0844 -0.3689  0.5954
  707TIP3    H123536   0.374   5.711   6.095  0.3034 -0.4935  1.1574
  707TIP3    H223537   0.321   5.595   6.014  0.0135  0.2134  0.3040
  708TIP3   OH223538   4.175   3.184  13.731 -0.6633 -0.0056  0.1307
  708TIP3    H123539   4.157   3.255  13.791  2.1979  0.2938  0.7365
  708TIP3    H223540   4.116   3.200  13.657 -0.8019  2.4037  0.6907
  709TIP3   OH223541   5.486   0.844  16.510 -0.4687 -0.3263 -0.1540
  709TIP3    H123542   5.456   0.874  16.424  0.0937 -0.0656 -0.2620
  709TIP3    H223543   5.578   0.871  16.514  0.1762 -2.3260 -0.4044
  710TIP3   OH223544   6.103   3.864  11.528  0.1146 -0.3613  0.0750
  710TIP3    H123545   6.070   3.928  11.591  0.0821 -0.5751  0.2756
  710TIP3    H223546   6.131   3.917  11.453  1.1641 -0.0192  0.6969
  711TIP3   OH223547   1.476   4.145   5.115  0.1915  0.8092 -0.0719
  711TIP3    H123548   1.541   4.175   5.179 -1.5766  0.7832  1.8352
  711TIP3    H223549   1.429   4.224   5.090  1.9018  1.1112 -2.7235
  712TIP3   OH223550   3.441   6.466   5.889  0.0610 -0.2396  0.0101
  712TIP3    H123551   3.418   6.498   5.802 -1.2207 -0.7389  0.1464
  712TIP3    H223552   3.394   6.523   5.949 -1.9199 -2.0199  0.2707
  713TIP3   OH223553   0.870   2.683  15.519 -0.2554 -0.2088 -0.2053
  713TIP3    H123554   0.853   2.775  15.539 -1.5482 -0.2003 -1.1840
  713TIP3    H223555   0.833   2.671  15.431 -1.2867 -1.9520  0.4210
  714TIP3   OH223556   5.287   6.273   3.236  0.0397  0.2305 -0.0198
  714TIP3    H123557   5.327   6.200   3.283  0.0805  0.2622 -0.0054
  714TIP3    H223558   5.266   6.337   3.304  0.1133  0.2829 -0.0473
  715TIP3   OH223559   4.227   0.061  13.004 -0.4701 -0.3313  0.3155
  715TIP3    H123560   4.299   0.124  12.997 -1.1652  0.5433  0.8645
  715TIP3    H223561   4.255  -0.013  12.951  1.1701 -0.3274  1.1308
  716TIP3   OH223562   4.141   4.840  15.074  0.4942 -0.6076 -0.4500
  716TIP3    H123563   4.224   4.855  15.027  1.1112  0.8397  0.9834
  716TIP3    H223564   4.137   4.912  15.137 -2.2658 -0.1807 -0.9862
  717TIP3   OH223565   2.834   1.653   4.699  0.0180  0.2221  0.0151
  717TIP3    H123566   2.836   1.559   4.720  0.8543 -0.3341 -2.2621
  717TIP3    H223567   2.869   1.696   4.777 -0.1662 -1.3650  1.0248
  718TIP3   OH223568   0.818   5.285   1.666  0.3744 -0.1260 -0.2834
  718TIP3    H123569   0.729   5.308   1.640  0.2188 -0.3356  0.0428
  718TIP3    H223570   0.815   5.190   1.678  0.6116 -0.1183 -0.1618
  719TIP3   OH223571   5.889   2.093   4.028 -0.3513  0.3835 -0.3773
  719TIP3    H123572   5.853   2.009   4.057  1.0174  0.2957  1.2213
  719TIP3    H223573   5.825   2.158   4.057 -1.0428 -0.0276 -0.9439
  720TIP3   OH223574   1.215   6.486   3.388 -0.5153  0.6651  0.1226
  720TIP3    H123575   1.309   6.468   3.388 -0.4350  1.0886  0.8532
  720TIP3    H223576   1.195   6.516   3.476 -1.4246  0.1430  0.1126
  721TIP3   OH223577   0.637   5.388  14.934 -0.1486  0.3772  0.7016
  721TIP3    H123578   0.629   5.416  15.025  2.2559  1.1219  0.7411
  721TIP3    H223579   0.649   5.469  14.885  2.4815 -0.2087  0.2564
  722TIP3   OH223580   0.710   0.024  11.593 -0.2950  0.5306  0.1147
  722TIP3    H123581   0.797   0.065  11.598 -0.7503  1.4280  1.6947
  722TIP3    H223582   0.683   0.017  11.685 -1.8462  0.1745 -0.3499
  723TIP3   OH223583   5.463   6.341   0.179 -0.5038  0.3365  1.3559
  723TIP3    H123584   5.437   6.334   0.271 -2.0649 -0.2232  0.8964
  723TIP3    H223585   5.463   6.251   0.147 -1.4726  0.6465  0.4294
  724TIP3   OH223586   0.342   1.977  14.884 -0.0541  0.3719  0.0761
  724TIP3    H123587   0.438   1.975  14.893  0.1870 -1.1631 -2.0325
  724TIP3    H223588   0.323   2.066  14.857  0.9948  0.2867 -1.0471
  725TIP3   OH223589   4.723   1.009   6.129  0.0852 -0.2404  0.0191
  725TIP3    H123590   4.720   1.104   6.123  1.4190 -0.1192  0.9650
  725TIP3    H223591   4.690   0.989   6.217 -6.2343 -1.1494 -2.0186
  726TIP3   OH223592   1.207   5.822  17.210  0.4274  0.2956  0.3834
  726TIP3    H123593   1.247   5.803  17.295 -0.4151 -0.1440  0.6966
  726TIP3    H223594   1.271   5.791  17.146  0.4533 -0.6985  0.8741
  727TIP3   OH223595   0.224   2.716  11.004  0.1544 -0.0386 -0.5391
  727TIP3    H123596   0.218   2.799  10.958 -0.1622 -0.0621 -0.5418
  727TIP3    H223597   0.245   2.652  10.936  0.9981  0.1272 -0.4482
  728TIP3   OH223598   2.480   5.541  14.512 -0.5589  0.5200  0.0457
  728TIP3    H123599   2.540   5.598  14.463 -0.5825 -0.1601 -0.7921
  728TIP3    H223600   2.506   5.552  14.603 -0.0809  1.3055 -0.1774
  729TIP3   OH223601   2.724   0.108  11.897 -0.0101  0.2084 -0.1305
  729TIP3    H123602   2.729   0.173  11.967  0.0972  1.9246 -1.6587
  729TIP3    H223603   2.645   0.132  11.848 -0.3304 -1.2338 -0.3659
  730TIP3   OH223604   5.360   3.905   1.040  0.6675 -0.2523  0.4699
  730TIP3    H123605   5.319   3.986   1.071 -0.9245 -0.7991 -0.0957
  730TIP3    H223606   5.354   3.911   0.944 -3.1221 -2.7080  0.3759
  731TIP3   OH223607   2.747   2.781  16.927  0.2243  0.1512  0.5652
  731TIP3    H123608   2.769   2.820  16.842 -0.0043  0.4519  0.6424
  731TIP3    H223609   2.769   2.849  16.991  0.1655  0.0173  0.7281
  732TIP3   OH223610   2.161   5.166   3.387  0.6221  0.2176 -0.3237
  732TIP3    H123611   2.244   5.119   3.390  0.3312 -0.3456 -0.7140
  732TIP3    H223612   2.125   5.145   3.301 -0.9189 -1.3182  0.6267
  733TIP3   OH223613   2.454   3.815  10.949  0.8563  0.5169  0.6457
  733TIP3    H123614   2.481   3.839  10.860  0.2965 -1.8264 -0.2360
  733TIP3    H223615   2.359   3.804  10.943  0.3812  3.0432  2.2773
  734TIP3   OH223616   2.286   5.041  16.570  0.0745 -0.9737 -0.7351
  734TIP3    H123617   2.346   5.082  16.633 -0.4130 -0.5488 -0.5459
  734TIP3    H223618   2.203   5.034  16.616  0.2974 -2.8192 -0.5128
  735TIP3   OH223619   5.301   2.235  14.551  0.1449  0.8069 -0.1986
  735TIP3    H123620   5.266   2.232  14.640 -1.2046  1.4055 -0.6903
  735TIP3    H223621   5.305   2.143  14.524  3.5735  0.2637  1.5446
  736TIP3   OH223622   0.650   4.353  15.119  0.4529  0.1703  0.1296
  736TIP3    H123623   0.650   4.375  15.212  0.0664 -0.0805  0.1906
  736TIP3    H223624   0.715   4.411  15.080  0.2917  0.5894  0.4828
  737TIP3   OH223625   0.893   0.999  14.778 -0.2522 -0.1199  0.2419
  737TIP3    H123626   0.840   1.077  14.763 -1.9192 -1.4420 -1.1694
  737TIP3    H223627   0.967   1.009  14.719  0.5502  1.2275  1.4216
  738TIP3   OH223628   1.182   5.276   3.204  0.5417 -0.1084  0.3515
  738TIP3    H123629   1.157   5.185   3.221  1.5998 -0.5437 -0.3210
  738TIP3    H223630   1.203   5.311   3.290 -2.5290  0.3811  1.0104
  739TIP3   OH223631   0.505   1.458  12.935  0.1171 -0.6682  0.1671
  739TIP3    H123632   0.438   1.526  12.944 -0.0228 -0.8736  0.7190
  739TIP3    H223633   0.553   1.462  13.018 -0.6049 -2.0000  0.6834
  740TIP3   OH223634   1.021   6.088   0.667 -0.3975 -0.0284 -0.3130
  740TIP3    H123635   1.035   6.171   0.619 -0.2213 -1.0017 -2.0393
  740TIP3    H223636   0.928   6.072   0.660  0.0160 -1.8024 -3.3208
  741TIP3   OH223637   1.833   2.291  11.393 -0.2318  0.4797  0.1078
  741TIP3    H123638   1.871   2.208  11.367  0.8453  1.1127 -0.3929
  741TIP3    H223639   1.884   2.357  11.346 -0.8972  1.4403  0.6926
  742TIP3   OH223640   0.217   2.814   4.765 -0.4858  0.1968 -0.8530
  742TIP3    H123641   0.198   2.750   4.833 -2.6090  2.3637  0.7537
  742TIP3    H223642   0.311   2.833   4.775 -0.6401  0.0465  1.1057
  743TIP3   OH223643   3.073   5.055  10.674 -0.2318 -0.5836  0.4472
  743TIP3    H123644   2.980   5.064  10.697 -0.0623 -1.1537  1.4455
  743TIP3    H223645   3.101   5.144  10.654  0.0603  0.4887  4.5586
  744TIP3   OH223646   6.724   3.547   5.474 -0.1380  0.1090  0.2766
  744TIP3    H123647   6.720   3.453   5.494 -1.0370  0.1804  0.4307
  744TIP3    H223648   6.816   3.570   5.489 -0.4357 -0.1377  3.0080
  745TIP3   OH223649   3.775   3.530  11.311 -0.0012 -0.5136  0.6777
  745TIP3    H123650   3.772   3.543  11.217  0.1260  0.3401  0.7827
  745TIP3    H223651   3.825   3.449  11.323  0.1294 -0.5305  0.0262
  746TIP3   OH223652   1.639   0.459  12.040  0.1264  0.1854  0.6381
  746TIP3    H123653   1.601   0.528  12.095 -1.2102  0.6905 -0.8248
  746TIP3    H223654   1.594   0.379  12.067 -0.2699  0.3670  0.5195
  747TIP3   OH223655   2.673   5.370  15.092 -0.2896 -0.1142 -0.2567
  747TIP3    H123656   2.744   5.324  15.138  0.1619 -2.1844 -2.7776
  747TIP3    H223657   2.594   5.323  15.120 -0.2362 -0.1949 -0.2383
  748TIP3   OH223658   3.608   3.588  14.891 -0.0549  0.2174 -0.2524
  748TIP3    H123659   3.539   3.542  14.844 -0.3287  0.3664  0.0078
  748TIP3    H223660   3.620   3.669  14.842 -0.5353  0.5005  0.0981
  749TIP3   OH223661   3.606   5.877   0.992 -0.1458 -0.1784  0.7879
  749TIP3    H123662   3.516   5.902   1.014 -1.0376 -1.2856 -1.2874
  749TIP3    H223663   3.619   5.792   1.036 -0.4161 -0.4033  0.4380
  750TIP3   OH223664   2.321   3.034   4.269 -0.4897 -0.0319 -0.4907
  750TIP3    H123665   2.321   3.058   4.362  1.6068  2.8177 -1.0638
  750TIP3    H223666   2.397   2.978   4.258 -0.1545  0.4398 -0.6205
  751TIP3   OH223667   6.574   5.565  14.529  0.1846 -0.2412 -0.4020
  751TIP3    H123668   6.516   5.634  14.563 -2.4602 -1.1418 -2.6966
  751TIP3    H223669   6.589   5.508  14.605  1.0349  1.8470  1.1132
  752TIP3   OH223670   2.326   2.226   1.745  0.8375  0.3856 -0.0374
  752TIP3    H123671   2.285   2.293   1.800  0.6365 -0.1206  0.4461
  752TIP3    H223672   2.368   2.274   1.674 -0.5743  0.9351 -0.5288
  753TIP3   OH223673   3.490   5.193  13.945  0.1759 -0.4671  0.0023
  753TIP3    H123674   3.450   5.260  13.890 -0.4924  0.0907  1.1363
  753TIP3    H223675   3.420   5.165  14.004  0.8312 -1.1511  0.4798
  754TIP3   OH223676   5.317   4.375  11.369 -0.0254  0.1338  0.0265
  754TIP3    H123677   5.405   4.402  11.394 -0.4241  1.5572 -0.0046
  754TIP3    H223678   5.262   4.398  11.444 -0.5896  0.6626 -0.5345
  755TIP3   OH223679   2.413   1.466  13.920 -0.3458  0.0421 -0.3038
  755TIP3    H123680   2.319   1.479  13.934 -0.2032  0.9780 -0.1512
  755TIP3    H223681   2.433   1.518  13.842  0.1673  0.3514  0.0338
  756TIP3   OH223682   0.629   0.315   1.533 -0.1593  0.1843 -0.3025
  756TIP3    H123683   0.597   0.405   1.536 -1.7513 -0.3703  0.7020
  756TIP3    H223684   0.612   0.281   1.621  0.0330 -1.2174 -0.7845
  757TIP3   OH223685   5.538   0.993  11.295 -0.0975  0.2073  0.0464
  757TIP3    H123686   5.529   0.921  11.233 -0.7447 -0.6195  1.0601
  757TIP3    H223687   5.562   0.950  11.377 -1.0463  1.0885  0.8111
  758TIP3   OH223688   1.500   0.072   4.957  0.0911  0.1258  0.2845
  758TIP3    H123689   1.563   0.089   5.026 -1.2069  1.5434  1.1869
  758TIP3    H223690   1.484  -0.022   4.962  2.0409 -0.2416  0.0724
  759TIP3   OH223691   6.760   0.577   4.270  0.0580 -0.8719 -0.1132
  759TIP3    H123692   6.782   0.517   4.342 -0.2430 -2.0542 -0.9812
  759TIP3    H223693   6.840   0.627   4.256  0.6158 -1.6914  0.0537
  760TIP3   OH223694   3.224   6.207   1.892 -0.0449  0.2109 -0.1449
  760TIP3    H123695   3.140   6.229   1.933  0.3840 -0.3068  1.0334
  760TIP3    H223696   3.258   6.133   1.943  2.2936  1.9420  0.9874
  761TIP3   OH223697   3.830   3.021  10.822  0.5212  0.5475  0.2496
  761TIP3    H123698   3.756   3.057  10.773  0.4334 -0.8338 -0.6657
  761TIP3    H223699   3.902   3.080  10.802  0.7837 -0.5615 -2.5077
  762TIP3   OH223700   5.821   1.087  12.452  0.2179 -0.1502  0.0781
  762TIP3    H123701   5.731   1.112  12.431  0.2284 -1.0111 -1.1065
  762TIP3    H223702   5.846   1.145  12.524 -0.7354  1.1996 -0.6220
  763TIP3   OH223703   3.642   3.071   1.007 -0.5688 -0.6011  0.9012
  763TIP3    H123704   3.564   3.114   0.973  1.6011  1.4067 -1.9834
  763TIP3    H223705   3.656   3.112   1.093 -1.5624  0.4359  0.5929
  764TIP3   OH223706   1.538   1.750  16.802  0.5196  0.1359  0.4555
  764TIP3    H123707   1.475   1.748  16.731  1.8182  0.7786 -0.7541
  764TIP3    H223708   1.582   1.665  16.799  0.3987  0.0646  0.6606
  765TIP3   OH223709   0.731   1.161   1.549  0.0850 -0.1759 -0.1066
  765TIP3    H123710   0.737   1.253   1.574 -0.2221  0.2579 -1.5301
  765TIP3    H223711   0.658   1.127   1.602 -0.2398  0.5675 -0.0537
  766TIP3   OH223712   4.503   4.029   0.176  0.0735 -0.0089  0.5468
  766TIP3    H123713   4.437   3.970   0.139 -0.6682  1.6306 -0.8926
  766TIP3    H223714   4.534   3.984   0.255 -1.1065 -1.8709  0.0181
  767TIP3   OH223715   1.199   3.996  15.909  0.0057  0.6612  0.6383
  767TIP3    H123716   1.186   3.968  15.999  2.3036 -2.4661  0.1499
  767TIP3    H223717   1.287   4.035  15.908 -0.3614  1.5284 -0.1219
  768TIP3   OH223718   1.934   5.883   2.054 -0.1062 -0.3048  0.9470
  768TIP3    H123719   2.028   5.869   2.064  0.0339 -0.3320 -0.2524
  768TIP3    H223720   1.910   5.832   1.976 -0.9591  0.3255  0.7786
  769TIP3   OH223721   2.225   1.140  15.441 -0.0342 -0.1781 -0.3776
  769TIP3    H123722   2.210   1.160  15.533 -0.4376  1.1450 -0.7217
  769TIP3    H223723   2.320   1.144  15.431 -0.0778  1.3689 -0.3738
  770TIP3   OH223724   2.242   4.911  12.665 -0.4235 -0.1540 -0.1137
  770TIP3    H123725   2.276   4.842  12.723  1.4553 -1.7561 -2.8913
  770TIP3    H223726   2.300   4.986  12.682 -0.8485 -0.0698  1.0896
  771TIP3   OH223727   6.567   0.328   0.742 -0.1368 -0.2792  0.2234
  771TIP3    H123728   6.475   0.306   0.727 -0.8429  1.6655  1.3860
  771TIP3    H223729   6.576   0.330   0.837  1.4470 -1.5668  0.1564
  772TIP3   OH223730   3.892   4.753  15.197 -0.2860 -0.3862  0.1104
  772TIP3    H123731   3.894   4.846  15.176  1.2245 -0.2356  0.8034
  772TIP3    H223732   3.973   4.718  15.161  1.7487 -0.3828  4.0413
  773TIP3   OH223733   1.153   1.271  12.007  0.1934  0.1220  0.2678
  773TIP3    H123734   1.144   1.316  12.090 -0.8171  1.3005 -0.4402
  773TIP3    H223735   1.080   1.303  11.954  0.8401 -0.5483 -1.0924
  774TIP3   OH223736   3.467   2.882   4.687 -0.4758  0.1268  0.2567
  774TIP3    H123737   3.461   2.805   4.743 -0.3456 -0.2737 -0.2772
  774TIP3    H223738   3.540   2.932   4.722 -1.7468  0.9847  1.7980
  775TIP3   OH223739   4.181   6.342   1.813 -0.1095 -0.0813  0.0448
  775TIP3    H123740   4.177   6.410   1.880 -1.3554  0.2577 -0.3565
  775TIP3    H223741   4.109   6.362   1.754 -0.8007 -2.0113  0.1728
  776TIP3   OH223742   2.566   3.751   3.781  0.0575 -0.0773  0.2690
  776TIP3    H123743   2.518   3.764   3.700  0.8846 -2.3501 -0.6832
  776TIP3    H223744   2.658   3.761   3.757  0.2508  1.6650  1.5105
  777TIP3   OH223745   0.661   6.292  15.900 -0.1588 -0.5562 -0.2720
  777TIP3    H123746   0.694   6.240  15.973 -1.3525 -1.2151 -0.1749
  777TIP3    H223747   0.620   6.228  15.841 -3.5002  0.3490  0.8299
  778TIP3   OH223748   5.559   3.347  16.736  0.9312  0.0110  0.2100
  778TIP3    H123749   5.543   3.429  16.782  2.1569  1.0179 -1.0612
  778TIP3    H223750   5.649   3.354  16.705  0.6619 -1.2947 -0.9715
  779TIP3   OH223751   3.150   5.393   3.301 -0.0060 -0.4929 -0.1620
  779TIP3    H123752   3.138   5.303   3.269  0.9532 -0.5894 -0.2889
  779TIP3    H223753   3.188   5.382   3.389  1.3795 -0.2209 -0.7058
  780TIP3   OH223754   5.439   4.314   2.741 -0.2777  0.0714  0.1318
  780TIP3    H123755   5.489   4.335   2.820 -0.1789 -1.9768  0.6557
  780TIP3    H223756   5.347   4.321   2.768 -0.3903  3.0775 -0.6331
  781TIP3   OH223757   4.660   0.296   3.591 -0.0317  0.0744 -0.3289
  781TIP3    H123758   4.665   0.384   3.629  0.0336  0.2811 -0.8081
  781TIP3    H223759   4.750   0.264   3.590  0.0684  0.3694 -1.0024
  782TIP3   OH223760   5.404   2.294   2.077 -0.7126  0.4613  0.0537
  782TIP3    H123761   5.475   2.233   2.097 -1.8794 -0.5163  1.4493
  782TIP3    H223762   5.423   2.326   1.988 -0.4067 -2.4515 -1.0212
  783TIP3   OH223763   1.754   3.987  14.093 -0.1181 -0.3362  0.1713
  783TIP3    H123764   1.740   3.919  14.027 -1.6544 -0.7326  0.8385
  783TIP3    H223765   1.837   3.964  14.134 -0.6258 -1.8633  0.4079
  784TIP3   OH223766   0.318   5.853  12.112  0.3275  0.1397 -0.2080
  784TIP3    H123767   0.226   5.830  12.125  0.7821 -2.5707 -1.2276
  784TIP3    H223768   0.315   5.924  12.048 -1.0521  0.3621  0.0540
  785TIP3   OH223769   2.339   4.217  17.131  0.3904 -0.6361 -0.1263
  785TIP3    H123770   2.269   4.282  17.139  0.1525 -0.8899 -0.1255
  785TIP3    H223771   2.372   4.228  17.042  0.8106 -0.0529  0.1032
  786TIP3   OH223772   4.121   6.358   3.431  0.4249 -0.0017  0.1111
  786TIP3    H123773   4.161   6.372   3.517 -1.5229  1.4897  0.8377
  786TIP3    H223774   4.033   6.396   3.439 -0.4455 -1.4210 -2.0015
  787TIP3   OH223775   6.016   5.100   2.354 -0.3661  0.1146 -0.3203
  787TIP3    H123776   5.959   5.026   2.374  0.0287 -0.1685 -0.2217
  787TIP3    H223777   5.999   5.119   2.262  0.1298 -0.6386 -0.5778
  788TIP3   OH223778   1.943   5.940   5.186 -0.0155  0.0944 -0.0928
  788TIP3    H123779   2.001   6.005   5.147  0.8049 -0.6403 -0.1365
  788TIP3    H223780   1.994   5.859   5.186 -0.9076 -0.4867  0.2257
  789TIP3   OH223781   3.976   0.131  16.425 -0.0997 -0.3538  0.2245
  789TIP3    H123782   4.067   0.162  16.427 -0.4834  0.8806 -0.6857
  789TIP3    H223783   3.925   0.208  16.402 -1.2326 -1.3728 -0.7686
  790TIP3   OH223784   6.686   3.106   4.576  0.2212  0.0676  0.1754
  790TIP3    H123785   6.599   3.068   4.585 -0.2518  1.1332  0.2272
  790TIP3    H223786   6.731   3.085   4.658 -0.0094 -0.4385  0.1698
  791TIP3   OH223787   4.503   5.697   4.200  0.2860 -0.0939 -0.3372
  791TIP3    H123788   4.430   5.717   4.142  0.3147  1.3001  0.0626
  791TIP3    H223789   4.479   5.615   4.243  0.2805 -1.1862 -2.3261
  792TIP3   OH223790   0.145   1.319   0.891  0.4586  0.0411  0.2641
  792TIP3    H123791   0.067   1.280   0.930 -0.8212  0.2159 -1.9713
  792TIP3    H223792   0.218   1.281   0.940 -0.9407 -1.4845  1.2530
  793TIP3   OH223793   5.716   5.025  13.425 -0.0440  0.5195 -1.2923
  793TIP3    H123794   5.659   5.101  13.416 -1.1853 -0.2505 -0.7783
  793TIP3    H223795   5.657   4.950  13.420  0.8113 -0.2867  0.0869
  794TIP3   OH223796   0.852   5.699   0.133 -0.1389  0.5485 -0.2160
  794TIP3    H123797   0.904   5.644   0.192 -1.1216 -0.3253 -0.1361
  794TIP3    H223798   0.909   5.713   0.057  1.0655  1.5167  0.8278
  795TIP3   OH223799   3.083   4.399  16.422 -0.3281  0.1201  0.6722
  795TIP3    H123800   3.123   4.361  16.343 -0.1603  0.3844  0.6302
  795TIP3    H223801   2.994   4.364  16.423 -0.2648 -0.0478  0.4768
  796TIP3   OH223802   4.243   0.450  12.145  0.5003  0.9411  0.6080
  796TIP3    H123803   4.239   0.408  12.059 -2.2453  0.4206  0.8983
  796TIP3    H223804   4.257   0.378  12.206 -3.0016  0.4279  0.9943
  797TIP3   OH223805   1.040   6.642   1.468 -0.2477  0.4979 -0.1761
  797TIP3    H123806   1.131   6.670   1.477 -0.0957  1.8530 -4.2454
  797TIP3    H223807   1.046   6.549   1.447 -0.0569 -0.0179  1.9062
  798TIP3   OH223808   1.528   3.961  12.835  0.1152 -0.1441  0.0140
  798TIP3    H123809   1.591   4.028  12.863 -0.1020  0.1544 -0.2042
  798TIP3    H223810   1.495   3.924  12.916  3.6012 -3.2544  0.2806
  799TIP3   OH223811   4.851   0.216  15.144 -0.1187  0.5759  0.8218
  799TIP3    H123812   4.839   0.310  15.148  0.8600  0.7659 -0.1259
  799TIP3    H223813   4.851   0.195  15.051  0.7410 -0.2003  0.9755
  800TIP3   OH223814   1.242   4.617  12.717  0.2622 -0.2542  0.2285
  800TIP3    H123815   1.335   4.632  12.702  0.7265 -2.1410  0.9263
  800TIP3    H223816   1.206   4.600  12.630  0.9911 -1.4095  0.1247
  801TIP3   OH223817   4.043   6.634  16.498 -0.1768  0.0212 -0.1555
  801TIP3    H123818   4.033   6.667  16.588 -1.1810  0.2838 -0.3513
  801TIP3    H223819   4.059   6.712  16.445 -0.4992 -0.0301 -0.3295
  802TIP3   OH223820   4.929   6.243  15.684 -0.3759 -0.1197 -0.0061
  802TIP3    H123821   4.854   6.297  15.707 -0.0363  0.8998 -1.1945
  802TIP3    H223822   4.908   6.156  15.719 -2.5416 -0.0980 -1.0775
  803TIP3   OH223823   5.721   5.829   6.480  0.5408  0.5849  0.0986
  803TIP3    H123824   5.727   5.883   6.401 -0.3861  0.7022  0.0974
  803TIP3    H223825   5.630   5.839   6.509  0.0879 -1.6367 -0.3847
  804TIP3   OH223826   4.912   0.007  14.067  0.4230 -0.7057  0.3292
  804TIP3    H123827   4.978   0.044  14.126 -0.1156  1.4358 -0.3219
  804TIP3    H223828   4.932   0.045  13.982 -0.4166 -1.6591 -0.3191
  805TIP3   OH223829   0.141   4.803  10.924 -0.0731 -0.0469  0.1783
  805TIP3    H123830   0.172   4.889  10.954  0.3103 -0.9852  2.6494
  805TIP3    H223831   0.050   4.818  10.898  0.6739  1.5714 -1.8572
  806TIP3   OH223832   3.880   5.207   3.618  0.2908 -0.1165  0.1179
  806TIP3    H123833   3.794   5.197   3.577  0.8323  0.1515 -1.1288
  806TIP3    H223834   3.914   5.118   3.623  0.0531 -0.1950  0.3719
  807TIP3   OH223835   6.059   6.154   4.024  0.0735 -0.6317 -0.5282
  807TIP3    H123836   6.004   6.180   3.950  1.5817  1.7842 -0.9020
  807TIP3    H223837   6.047   6.224   4.089  1.7451 -0.6587 -0.1422
  808TIP3   OH223838   4.639   3.425   0.835  0.1374 -0.2869 -0.4931
  808TIP3    H123839   4.627   3.340   0.878  4.8071 -1.1188 -0.2660
  808TIP3    H223840   4.625   3.489   0.904  0.0678 -1.1281  0.2987
  809TIP3   OH223841   0.037   2.608   3.184 -0.4051  1.0817  0.3045
  809TIP3    H123842   0.090   2.551   3.239 -0.1314  0.9409 -0.0993
  809TIP3    H223843   0.100   2.670   3.146 -0.3705  0.2878 -0.9623
  810TIP3   OH223844   0.566   3.550   1.699 -0.2446 -0.4923  0.2205
  810TIP3    H123845   0.530   3.462   1.714 -1.6353  0.0665  0.2810
  810TIP3    H223846   0.561   3.593   1.784  1.8785 -0.8214  0.5694
  811TIP3   OH223847   5.053   6.038  13.824 -0.1803 -0.7569  0.0116
  811TIP3    H123848   5.053   5.955  13.776  1.9648 -0.2117 -1.0442
  811TIP3    H223849   4.981   6.088  13.786  0.3721 -1.0141 -1.4411
  812TIP3   OH223850   0.937   4.010  15.835  0.2955  0.4812 -0.2109
  812TIP3    H123851   1.022   3.975  15.862 -0.5680 -3.2170 -1.6858
  812TIP3    H223852   0.875   3.978  15.901 -0.4995 -0.7338 -1.4767
  813TIP3   OH223853   1.573   1.680  14.547  0.0985  0.4582 -0.3086
  813TIP3    H123854   1.493   1.731  14.560  0.8074  0.9640  3.0589
  813TIP3    H223855   1.633   1.740  14.502 -0.5303  1.0329 -0.3971
  814TIP3   OH223856   1.247   0.025  11.837  0.5004 -0.0732 -0.3904
  814TIP3    H123857   1.228   0.115  11.864 -0.3692 -0.3210 -0.1322
  814TIP3    H223858   1.215  -0.029  11.910  0.5895 -0.6124 -0.7447
  815TIP3   OH223859   0.397   5.795  15.632 -0.1030 -0.1705  0.1354
  815TIP3    H123860   0.374   5.820  15.542 -1.1645 -0.0649  0.4329
  815TIP3    H223861   0.353   5.860  15.687  1.0775  0.1567  0.7203
  816TIP3   OH223862   0.743   1.922  11.702  0.1966 -0.6175  0.2286
  816TIP3    H123863   0.785   1.938  11.617  0.1978  0.2551  0.3830
  816TIP3    H223864   0.810   1.877  11.753  0.8972  0.5803  0.4019
  817TIP3   OH223865   1.470   6.043   2.157 -0.1224 -0.2041 -0.1212
  817TIP3    H123866   1.446   6.034   2.064  0.0217 -1.1793 -0.0733
  817TIP3    H223867   1.563   6.022   2.159  0.2213  1.2384  0.0451
  818TIP3   OH223868   0.694   4.276   5.851 -0.0625 -0.2271  0.1898
  818TIP3    H123869   0.677   4.362   5.889  2.0772  0.1757  0.3369
  818TIP3    H223870   0.787   4.277   5.830 -0.6187 -1.3671 -2.7762
  819TIP3   OH223871   1.590   0.376  15.721 -0.1515 -0.6118  0.4416
  819TIP3    H123872   1.622   0.336  15.640 -0.7301  1.0619 -0.6621
  819TIP3    H223873   1.498   0.393  15.706  0.0708  1.1545  0.8196
  820TIP3   OH223874   4.969   0.079  11.029 -0.2936 -0.2460  0.1627
  820TIP3    H123875   4.947   0.005  10.973  1.0736 -1.6189  1.3211
  820TIP3    H223876   5.035   0.129  10.980 -1.1371  0.1555 -0.5744
  821TIP3   OH223877   0.470   3.543  14.121 -0.4159 -0.3396 -0.4928
  821TIP3    H123878   0.524   3.619  14.146 -0.2199 -0.4142 -0.6807
  821TIP3    H223879   0.522   3.500  14.053 -0.7269 -0.3995 -0.6898
  822TIP3   OH223880   4.915   1.322  12.965  0.3433  0.2421 -0.6020
  822TIP3    H123881   4.827   1.285  12.976 -0.2213  1.2099 -1.6956
  822TIP3    H223882   4.968   1.248  12.936  0.0173 -0.4626  0.5300
  823TIP3   OH223883   0.927   1.172  16.048  0.3260  0.2374  0.7580
  823TIP3    H123884   1.018   1.179  16.020 -0.6303 -1.1387 -3.4334
  823TIP3    H223885   0.923   1.093  16.102  1.6266  0.5623  1.3644
  824TIP3   OH223886   3.318   4.301  15.651  0.5358  0.0728 -0.5617
  824TIP3    H123887   3.376   4.359  15.601 -0.9849  0.6700 -1.7233
  824TIP3    H223888   3.230   4.335  15.634 -0.2119 -1.1106  0.7290
  825TIP3   OH223889   4.334   1.984  16.444 -0.1714 -0.0312 -0.0676
  825TIP3    H123890   4.378   2.068  16.450  0.7819 -0.3119 -2.1964
  825TIP3    H223891   4.401   1.919  16.464 -0.7238 -0.3408  0.8669
  826TIP3   OH223892   1.185   4.521  12.999 -0.1783 -0.0885  0.2287
  826TIP3    H123893   1.217   4.558  12.917 -2.4433 -2.5545 -1.9827
  826TIP3    H223894   1.245   4.449  13.018 -0.5015 -0.4729 -0.1674
  827TIP3   OH223895   1.153   5.315  13.551 -0.2911 -0.6841  0.4737
  827TIP3    H123896   1.209   5.389  13.576 -0.4413 -0.4240  0.0407
  827TIP3    H223897   1.138   5.327  13.458 -0.7442 -0.9763  0.5102
  828TIP3   OH223898   6.056   1.062   6.267  0.2554 -0.2938  0.4181
  828TIP3    H123899   6.109   1.000   6.217 -0.5928 -0.7768  0.1114
  828TIP3    H223900   6.043   1.020   6.352 -0.5060 -0.6412  0.1335
  829TIP3   OH223901   2.866   5.713   0.453 -0.1275 -0.7377  0.3166
  829TIP3    H123902   2.819   5.796   0.455 -0.5837 -0.9807  2.3671
  829TIP3    H223903   2.920   5.718   0.375 -1.1215  0.9293 -0.3205
  830TIP3   OH223904   4.842   6.376  13.363 -0.1885 -0.1745 -0.1006
  830TIP3    H123905   4.851   6.416  13.277  0.7519  0.9331  0.4816
  830TIP3    H223906   4.823   6.284  13.345  0.3853 -0.0452 -1.4953
  831TIP3   OH223907   4.786   4.306  11.039  0.1113  0.7958 -0.3761
  831TIP3    H123908   4.862   4.364  11.042 -0.9138  2.1611  0.2413
  831TIP3    H223909   4.772   4.291  10.945  1.5175 -0.0374 -0.4863
  832TIP3   OH223910   0.974   3.791  14.788 -0.7618 -0.3963  0.3023
  832TIP3    H123911   1.008   3.724  14.729 -2.8420  0.3615 -1.9212
  832TIP3    H223912   0.879   3.780  14.785 -1.0809  1.7352  0.9788
  833TIP3   OH223913   3.932   5.232  16.340  0.7923  0.1179  0.3076
  833TIP3    H123914   3.945   5.140  16.317  0.1701 -0.1685  1.0522
  833TIP3    H223915   3.905   5.273  16.258  0.4741 -0.4901  0.0983
  834TIP3   OH223916   1.007   1.792  11.754 -0.3779 -0.3406 -0.4716
  834TIP3    H123917   1.090   1.801  11.801  0.3675  0.0840 -1.8015
  834TIP3    H223918   1.013   1.706  11.712 -0.9716 -0.6527  0.0647
  835TIP3   OH223919   3.169   6.189   4.041 -0.0409  0.0491  0.0307
  835TIP3    H123920   3.194   6.215   3.953  1.5732 -0.6640  0.2373
  835TIP3    H223921   3.124   6.265   4.077  1.3257  1.2305 -0.6323
  836TIP3   OH223922   3.137   2.601  16.465  0.0903  0.3396  0.9927
  836TIP3    H123923   3.181   2.539  16.407  0.3826  1.3481  0.1129
  836TIP3    H223924   3.065   2.550  16.503  1.0178 -0.8693  1.2075
  837TIP3   OH223925   2.520   4.014   0.402  0.0455  0.1903 -0.0313
  837TIP3    H123926   2.614   4.022   0.390  0.2154 -1.5058 -0.0571
  837TIP3    H223927   2.492   4.101   0.431  1.6622  0.6047  0.3817
  838TIP3   OH223928   4.414   6.236  16.205  0.0318  0.5051  0.1982
  838TIP3    H123929   4.468   6.303  16.163  1.3716 -0.0185  1.0179
  838TIP3    H223930   4.464   6.210  16.282  0.9271 -3.2962 -1.4369
  839TIP3   OH223931   4.654   4.400   1.403 -0.1353 -0.1764  0.2323
  839TIP3    H123932   4.652   4.363   1.314 -2.5141  0.7089 -0.1840
  839TIP3    H223933   4.744   4.429   1.415 -0.1888  1.8555 -2.9071
  840TIP3   OH223934   3.301   3.516  12.987  0.3763  0.1499  0.3067
  840TIP3    H123935   3.327   3.492  13.075  0.1132  0.1487  0.3855
  840TIP3    H223936   3.211   3.485  12.979 -0.6697  2.7215  1.0784
  841TIP3   OH223937   4.416   0.391   1.246  0.0257 -0.6695  0.2266
  841TIP3    H123938   4.443   0.407   1.155 -1.8233  0.6559 -0.1308
  841TIP3    H223939   4.463   0.456   1.297 -1.1693  0.5608 -0.1899
  842TIP3   OH223940   6.461   3.334  16.122  0.5617  0.1426 -0.1388
  842TIP3    H123941   6.381   3.297  16.158 -0.5886  2.6372  0.0279
  842TIP3    H223942   6.441   3.351  16.030  0.4436  1.8922  0.1851
  843TIP3   OH223943   0.878   0.273   6.241  0.3050  0.2828 -0.2629
  843TIP3    H123944   0.886   0.194   6.295 -0.7592 -1.6189 -2.7190
  843TIP3    H223945   0.819   0.330   6.290 -1.5048 -1.8367  0.1176
  844TIP3   OH223946   1.424   1.959   6.150  0.0649  0.2468 -0.1053
  844TIP3    H123947   1.417   1.867   6.127  0.7326 -0.1015  1.0013
  844TIP3    H223948   1.493   1.962   6.216  0.2302  1.5767 -0.3156
  845TIP3   OH223949   5.433   0.578   0.790 -0.5899  0.0516  0.2765
  845TIP3    H123950   5.357   0.632   0.766 -1.9261 -1.1158  1.6860
  845TIP3    H223951   5.449   0.598   0.882 -1.2853 -2.0442  0.9248
  846TIP3   OH223952   3.871   3.457  13.495 -0.1744  0.1383 -0.0491
  846TIP3    H123953   3.913   3.374  13.519  2.0211  1.8167  2.5585
  846TIP3    H223954   3.783   3.451  13.533 -0.2163 -1.1635 -0.3096
  847TIP3   OH223955   4.963   0.190   5.903 -0.2584  0.0576  0.0726
  847TIP3    H123956   5.025   0.263   5.895 -0.1405  0.1301  1.4722
  847TIP3    H223957   4.878   0.232   5.914 -0.3773 -0.0327 -0.4869
  848TIP3   OH223958   3.189   6.507  12.449 -0.6575 -0.3041  0.4644
  848TIP3    H123959   3.185   6.512  12.354 -1.2236 -0.0895  0.4913
  848TIP3    H223960   3.101   6.533  12.478  0.5886  4.0212  1.1920
  849TIP3   OH223961   5.642   2.350  16.479 -0.5129 -0.2200 -0.2599
  849TIP3    H123962   5.630   2.315  16.391 -2.5376 -2.4566  0.7692
  849TIP3    H223963   5.736   2.346  16.495 -0.3470 -2.1701 -1.4453
  850TIP3   OH223964   0.063   2.094  11.936 -0.3438 -0.3097  0.3317
  850TIP3    H123965  -0.006   2.148  11.975  0.4938 -0.0380  1.5030
  850TIP3    H223966   0.105   2.051  12.011  2.2694  1.3438 -0.0593
  851TIP3   OH223967   6.292   0.698  15.446  0.0512 -0.1937 -0.6036
  851TIP3    H123968   6.357   0.648  15.396 -0.3060  1.2452 -2.6255
  851TIP3    H223969   6.344   0.748  15.509  0.7815 -0.1226 -1.2431
  852TIP3   OH223970   5.251   2.242  12.363  0.4483 -0.2431  0.2795
  852TIP3    H123971   5.204   2.295  12.428  0.5307 -0.6799  0.7079
  852TIP3    H223972   5.183   2.190  12.321  0.0918  1.5222 -1.4789
  853TIP3   OH223973   1.055   4.726   1.122 -0.6797  0.4821 -0.3426
  853TIP3    H123974   1.083   4.795   1.182 -0.8847  1.0803 -0.9276
  853TIP3    H223975   1.002   4.771   1.057 -0.2392 -0.1060 -1.1254
  854TIP3   OH223976   3.894   2.884  13.446  0.4244 -0.0863  0.0247
  854TIP3    H123977   3.878   2.888  13.351 -0.0404 -1.1899  0.0460
  854TIP3    H223978   3.989   2.872  13.453  0.7919  2.2449 -0.2158
  855TIP3   OH223979   3.804   3.962  15.216  0.0986  0.4735  0.6518
  855TIP3    H123980   3.737   3.996  15.275 -1.3414 -0.1550 -0.5726
  855TIP3    H223981   3.818   3.872  15.243  0.7766  0.7185  1.1591
  856TIP3   OH223982   3.860   1.422  15.200  0.2382  0.3226  0.4739
  856TIP3    H123983   3.913   1.496  15.171  0.9832 -0.5343 -0.4225
  856TIP3    H223984   3.772   1.459  15.213  0.3010  1.1357 -1.1683
  857TIP3   OH223985   3.414   3.048   1.930  0.1511 -0.4594  0.0003
  857TIP3    H123986   3.409   3.133   1.884  0.5253  1.0618  2.5879
  857TIP3    H223987   3.345   3.054   1.997 -0.2574 -2.5191 -0.1894
  858TIP3   OH223988   5.850   3.069  16.491  0.3693 -0.1751 -0.2876
  858TIP3    H123989   5.864   3.008  16.563  1.9889 -0.2882 -0.6614
  858TIP3    H223990   5.788   3.024  16.433 -2.5265  0.7105  1.8907
  859TIP3   OH223991   4.212   2.617   2.965  0.3237 -0.0224 -0.0422
  859TIP3    H123992   4.251   2.609   3.052  1.0375 -1.6559 -0.4822
  859TIP3    H223993   4.285   2.638   2.908 -0.2880  2.0109 -0.1470
  860TIP3   OH223994   2.330   3.583   4.980  0.3688 -0.0784  0.3185
  860TIP3    H123995   2.241   3.608   5.003  1.0566  1.2222  1.7464
  860TIP3    H223996   2.363   3.656   4.928  0.9618 -0.0337  0.7489
  861TIP3   OH223997   2.132   6.137  15.989 -0.0542 -0.1847  0.5473
  861TIP3    H123998   2.107   6.223  15.955  0.0622  0.7002  2.5825
  861TIP3    H223999   2.226   6.145  16.008 -0.5302  0.1169  3.0866
  862TIP3   OH224000   2.320   0.196  16.677  0.6112  0.0023  0.2621
  862TIP3    H124001   2.295   0.282  16.711  1.2244 -0.1729  1.1934
  862TIP3    H224002   2.335   0.211  16.584 -1.2032  0.4686  0.0049
  863TIP3   OH224003   3.550   4.424  12.806 -0.3941  0.3290  0.1026
  863TIP3    H124004   3.469   4.389  12.769 -1.1298 -0.3119  2.1892
  863TIP3    H224005   3.604   4.347  12.822 -0.4150  0.5087  1.0695
  864TIP3   OH224006   4.773   2.038  16.715 -0.4193 -0.4861  0.5397
  864TIP3    H124007   4.830   1.970  16.751 -0.8293 -1.2939 -0.2778
  864TIP3    H224008   4.740   2.000  16.633 -0.4506  0.8154 -0.0691
  865TIP3   OH224009   3.586   0.106  12.216  0.4478  0.3334 -0.2920
  865TIP3    H124010   3.522   0.152  12.272  2.2831  0.6632  1.6733
  865TIP3    H224011   3.568   0.014  12.230  0.7245  0.4191  0.6968
  866TIP3   OH224012   0.602   4.252  16.846  0.3359 -0.6363 -0.6608
  866TIP3    H124013   0.653   4.186  16.894 -0.4793 -1.4550 -0.8892
  866TIP3    H224014   0.657   4.275  16.771  0.8684 -0.6335 -0.2754
  867TIP3   OH224015   1.315   6.092  13.453  0.2815 -0.2665 -0.4109
  867TIP3    H124016   1.298   6.016  13.509 -0.9345  0.0554 -0.3136
  867TIP3    H224017   1.352   6.157  13.513 -1.4735  0.2547  0.1875
  868TIP3   OH224018   3.593   1.470  13.047  0.5852 -0.0080 -0.1038
  868TIP3    H124019   3.521   1.410  13.027  0.2282  1.1607 -2.7628
  868TIP3    H224020   3.671   1.425  13.016  0.5975  0.0161 -0.1070
  869TIP3   OH224021   1.362   6.068   5.250  0.0854 -0.0038 -0.8315
  869TIP3    H124022   1.350   6.134   5.182  0.5957  0.7858 -0.1870
  869TIP3    H224023   1.417   6.112   5.315  0.0102 -0.9040 -0.1473
  870TIP3   OH224024   6.442   1.338   2.524  0.0272 -0.0798 -0.5918
  870TIP3    H124025   6.406   1.424   2.543  2.4703  0.5303  1.9545
  870TIP3    H224026   6.369   1.278   2.535 -0.8035  1.2724  2.0581
  871TIP3   OH224027   4.376   5.109  10.566 -0.3650  0.2517  0.4950
  871TIP3    H124028   4.404   5.067  10.485 -0.8601 -1.7657  1.3067
  871TIP3    H224029   4.454   5.156  10.597  0.2416 -0.1265 -0.4235
  872TIP3   OH224030   3.299   3.055   3.619 -0.4678  0.1268 -0.5924
  872TIP3    H124031   3.294   3.150   3.634  0.0615  0.5224 -2.6992
  872TIP3    H224032   3.226   3.036   3.561 -1.7669 -1.1493  1.3625
  873TIP3   OH224033   2.244   1.101  13.651  0.4015 -0.2538 -0.0398
  873TIP3    H124034   2.303   1.155  13.703  2.5447 -2.1098 -0.4080
  873TIP3    H224035   2.234   1.020  13.700 -1.9433 -0.0022  0.0210
  874TIP3   OH224036   2.315   1.925   2.623 -0.4064  0.7890 -0.1881
  874TIP3    H124037   2.286   2.000   2.676  0.3242  1.2407 -0.4153
  874TIP3    H224038   2.408   1.915   2.645 -0.9141 -1.2852  1.3098
  875TIP3   OH224039   2.336   3.758  11.948 -0.1250 -0.7320 -0.0451
  875TIP3    H124040   2.291   3.843  11.948 -0.0502 -0.6888  0.2194
  875TIP3    H224041   2.267   3.695  11.969 -0.0290 -0.6428  0.5628
  876TIP3   OH224042   2.836   5.420  14.189 -0.2587 -0.1248 -0.3343
  876TIP3    H124043   2.910   5.380  14.234 -0.3666 -1.0353 -0.9277
  876TIP3    H224044   2.762   5.409  14.249  0.1581  1.2006  0.4582
  877TIP3   OH224045   0.561   6.779  16.548  0.7285 -0.3078 -0.0211
  877TIP3    H124046   0.474   6.759  16.514  0.4932  0.6811 -0.0266
  877TIP3    H224047   0.555   6.869  16.579  1.1500 -0.9083  1.9694
  878TIP3   OH224048   3.361   1.450  15.971 -0.0068  0.2370  0.1864
  878TIP3    H124049   3.287   1.412  15.923  0.5171 -0.5830 -0.0014
  878TIP3    H224050   3.437   1.429  15.916  0.6359 -0.8867  1.4505
  879TIP3   OH224051   0.956   5.920   2.457 -0.0295  0.0775  0.2139
  879TIP3    H124052   0.973   5.944   2.548 -0.7277 -1.4921  0.8045
  879TIP3    H224053   0.993   5.992   2.406 -1.3007  1.9716  1.7871
  880TIP3   OH224054   5.528   6.385  13.080  0.4035  0.5337  0.1173
  880TIP3    H124055   5.531   6.421  13.168 -0.3955  2.7968 -0.7068
  880TIP3    H224056   5.445   6.338  13.075  0.2278  0.8135  0.4296
  881TIP3   OH224057   1.669   4.176   0.435  0.0777 -0.7472 -0.0104
  881TIP3    H124058   1.595   4.143   0.384  1.0469 -0.0130 -1.9607
  881TIP3    H224059   1.731   4.103   0.437  0.0250 -0.7895  0.1953
  882TIP3   OH224060   0.711   5.886   1.714 -0.7513  0.2407  0.2618
  882TIP3    H124061   0.691   5.876   1.621 -0.6017  0.5391  0.1977
  882TIP3    H224062   0.709   5.797   1.749  1.4658 -0.1723 -0.4836
  883TIP3   OH224063   2.998   4.568  15.819 -0.7753 -0.3090  0.2947
  883TIP3    H124064   2.965   4.658  15.812 -1.2283 -0.5762 -1.6349
  883TIP3    H224065   3.092   4.576  15.806 -1.0722 -0.2860 -2.3993
  884TIP3   OH224066   4.675   0.266  12.995  0.5128 -0.4318 -0.0840
  884TIP3    H124067   4.730   0.328  13.043 -0.8128  0.7272  0.0097
  884TIP3    H224068   4.588   0.275  13.035 -0.1843 -0.8423 -1.4319
  885TIP3   OH224069   3.218   1.118  11.110  0.1902 -0.3347 -0.1056
  885TIP3    H124070   3.207   1.128  11.204 -1.0274  1.7002 -0.3970
  885TIP3    H224071   3.133   1.086  11.079 -0.8307  2.7889 -0.8884
  886TIP3   OH224072   2.551   4.384   3.395 -0.3156 -0.1042  0.0185
  886TIP3    H124073   2.645   4.395   3.384 -0.0975 -0.3186  1.5359
  886TIP3    H224074   2.514   4.411   3.310  1.0445  0.6352 -0.3660
  887TIP3   OH224075   0.826   6.471   0.649  0.3235  0.0819 -0.4424
  887TIP3    H124076   0.757   6.528   0.615  0.6343  0.9765  0.4067
  887TIP3    H224077   0.810   6.465   0.743 -0.1637 -1.8846 -0.6005
  888TIP3   OH224078   5.083   5.142  17.131  0.2596  0.0581  0.3903
  888TIP3    H124079   5.095   5.060  17.083 -0.6456  0.0458  0.1745
  888TIP3    H224080   5.156   5.197  17.102  1.5785 -1.0673  1.4326
  889TIP3   OH224081   0.586   4.950   3.492  0.4106 -0.0426  0.6567
  889TIP3    H124082   0.670   4.908   3.512 -0.1732 -1.2568  0.6143
  889TIP3    H224083   0.521   4.894   3.533 -0.3563  1.2686  1.2907
  890TIP3   OH224084   2.767   4.012  14.762 -0.7325  0.0284  0.2201
  890TIP3    H124085   2.755   4.069  14.838 -1.1853  0.0710  0.1241
  890TIP3    H224086   2.734   3.927  14.791  0.1327 -0.2406  0.4287
  891TIP3   OH224087   3.287   5.662  14.559 -0.1744  0.0698  0.3433
  891TIP3    H124088   3.294   5.654  14.464  1.3423  1.6002  0.2562
  891TIP3    H224089   3.263   5.753  14.573  0.1146 -0.0111  1.4322
  892TIP3   OH224090   1.860   6.236   2.467  0.5512 -0.3642  0.3878
  892TIP3    H124091   1.832   6.148   2.441 -0.2134 -0.2420  0.7807
  892TIP3    H224092   1.778   6.283   2.483  0.9769  0.0449  1.4162
  893TIP3   OH224093   6.653   2.180   4.563 -0.1935  0.5083  0.8164
  893TIP3    H124094   6.586   2.112   4.572  0.1627  0.0465  0.0531
  893TIP3    H224095   6.661   2.218   4.651 -2.0515  1.1540  0.7563
  894TIP3   OH224096   2.827   1.491  13.833 -0.0057 -0.2964 -0.2406
  894TIP3    H124097   2.875   1.464  13.754  1.4315  1.0656  0.1081
  894TIP3    H224098   2.765   1.420  13.849  0.5953 -1.2332 -1.8281
  895TIP3   OH224099   5.854   0.454   0.804  0.5130 -0.3665  0.0839
  895TIP3    H124100   5.838   0.500   0.887 -0.4690  0.4369 -0.5284
  895TIP3    H224101   5.786   0.487   0.745  0.3352 -1.9582 -0.6542
  896TIP3   OH224102   4.483   4.935   3.046  0.4873 -0.5300 -0.0547
  896TIP3    H124103   4.483   5.023   3.083  0.5930 -0.0087 -1.2680
  896TIP3    H224104   4.448   4.880   3.116  2.5147  0.0995  1.5519
  897TIP3   OH224105   1.530   1.614   4.464  0.1077  0.0418  0.2377
  897TIP3    H124106   1.617   1.619   4.503  0.1147  1.8874  0.0686
  897TIP3    H224107   1.479   1.682   4.510 -1.2932 -1.0670  0.4154
  898TIP3   OH224108   3.510   3.631   0.620  0.1124 -0.1272 -0.5369
  898TIP3    H124109   3.465   3.716   0.616 -0.1438 -0.2295 -0.0026
  898TIP3    H224110   3.459   3.574   0.562 -0.4836 -0.2478  0.0797
  899TIP3   OH224111   3.124   0.134   2.142 -0.3107  0.5953 -0.2496
  899TIP3    H124112   3.122   0.071   2.070  1.9187 -0.6064  0.6617
  899TIP3    H224113   3.163   0.213   2.103 -0.5129  0.4737 -0.7075
  900TIP3   OH224114   6.655   3.744   1.081 -0.2491  0.0720 -0.6817
  900TIP3    H124115   6.642   3.753   0.986  1.2999 -3.3181 -1.3362
  900TIP3    H224116   6.568   3.763   1.118 -0.6825  2.4359 -2.5863
  901TIP3   OH224117   0.368   3.229  12.480  0.0475 -0.9561  0.2731
  901TIP3    H124118   0.462   3.251  12.476 -0.1350 -0.2749 -0.6563
  901TIP3    H224119   0.324   3.311  12.458 -0.7553 -1.4562 -0.0206
  902TIP3   OH224120   2.024   4.836   0.462  0.2895 -0.3416 -0.4920
  902TIP3    H124121   2.102   4.809   0.511 -0.8127  0.5442  1.8585
  902TIP3    H224122   2.058   4.860   0.375  2.8225  0.9186  0.7370
  903TIP3   OH224123   6.535   2.859   5.602 -0.0721  0.3905  0.4886
  903TIP3    H124124   6.568   2.774   5.571 -2.1247  0.4371 -2.1527
  903TIP3    H224125   6.455   2.838   5.650 -1.0342  0.8199 -0.8672
  904TIP3   OH224126   4.584   5.522  14.181 -0.5174  0.3056  0.2447
  904TIP3    H124127   4.501   5.476  14.191 -2.0603  3.1283  1.6499
  904TIP3    H224128   4.651   5.454  14.191 -2.5959 -2.0225 -0.6561
  905TIP3   OH224129   5.313   6.630   4.959 -0.2905  0.1996  0.6874
  905TIP3    H124130   5.333   6.689   4.887 -1.0935 -0.8325 -0.4140
  905TIP3    H224131   5.222   6.602   4.943  0.0355 -1.2647  1.2117
  906TIP3   OH224132   1.523   4.449  12.972  0.6110  0.2124  0.1432
  906TIP3    H124133   1.520   4.527  12.917  0.0128 -0.2807 -0.5483
  906TIP3    H224134   1.578   4.388  12.922  0.1614 -0.1978  0.1517
  907TIP3   OH224135   2.932   1.352   2.712  0.2747  0.6680  0.3309
  907TIP3    H124136   2.841   1.377   2.697 -0.0934 -0.9176 -0.2717
  907TIP3    H224137   2.935   1.329   2.805 -0.0330  0.3292  0.2568
  908TIP3   OH224138   3.852   4.977   2.958 -0.8552 -0.1122 -0.5991
  908TIP3    H124139   3.846   5.002   2.866 -0.1403  0.1296 -0.5868
  908TIP3    H224140   3.782   4.913   2.970  0.2458 -1.5979 -1.7850
  909TIP3   OH224141   1.378   1.087  11.971 -0.4274  0.2391  0.1662
  909TIP3    H124142   1.296   1.072  12.019  0.4568  2.4584  2.6153
  909TIP3    H224143   1.360   1.163  11.916 -0.2062  0.3328  0.2215
  910TIP3   OH224144   0.258   0.454   4.741  0.0281 -0.7257 -0.0229
  910TIP3    H124145   0.245   0.525   4.679  0.8264 -0.0956  0.5113
  910TIP3    H224146   0.174   0.444   4.785 -0.3269 -0.6786 -0.6857
  911TIP3   OH224147   6.133   3.174   1.900 -0.5517 -0.1324 -0.0118
  911TIP3    H124148   6.166   3.115   1.967  1.3697 -0.8241 -1.4593
  911TIP3    H224149   6.208   3.186   1.841 -1.4947  2.2168 -0.8097
  912TIP3   OH224150   4.585   3.755  13.651  0.4885  0.0650  0.1019
  912TIP3    H124151   4.638   3.819  13.604 -0.0198 -0.5475 -1.3634
  912TIP3    H224152   4.545   3.702  13.582 -1.4761  0.0646  1.1799
  913TIP3   OH224153   3.265   0.335   1.412  0.0970 -1.1576  0.1554
  913TIP3    H124154   3.211   0.269   1.455 -1.5532 -0.1189 -0.2455
  913TIP3    H224155   3.245   0.326   1.319  0.7311 -0.8577 -0.0131
  914TIP3   OH224156   4.752   5.102  11.486  0.0297  0.5409  0.1995
  914TIP3    H124157   4.755   5.049  11.407 -1.1702  0.9290 -0.1292
  914TIP3    H224158   4.842   5.132  11.499  1.1880 -2.9228  1.3708
  915TIP3   OH224159   4.754   3.837   0.328  0.1927 -0.5975 -0.5752
  915TIP3    H124160   4.723   3.748   0.310 -1.2797 -0.3521  0.5626
  915TIP3    H224161   4.689   3.873   0.389  2.5091  0.1031  1.6415
  916TIP3   OH224162   4.983   0.608   2.255 -0.6451 -0.1184 -0.3608
  916TIP3    H124163   4.960   0.516   2.252 -1.6423  0.1203 -0.4177
  916TIP3    H224164   5.077   0.610   2.234 -0.7096 -1.0718 -0.7882
  917TIP3   OH224165   1.581   4.189  14.170 -0.0419  0.3463  0.3278
  917TIP3    H124166   1.500   4.147  14.198 -0.2544  1.2555  1.1566
  917TIP3    H224167   1.635   4.118  14.135  0.1003 -0.8154  2.7497
  918TIP3   OH224168   1.353   2.848  14.023  0.1111 -0.2315  0.6458
  918TIP3    H124169   1.266   2.834  13.984  0.1888 -1.3340  0.8425
  918TIP3    H224170   1.372   2.940  14.006 -0.7678 -0.1699 -0.0808
  919TIP3   OH224171   2.990   1.207   1.820  0.0249  0.3316  0.1809
  919TIP3    H124172   2.977   1.115   1.843  0.2207  0.2018 -0.2331
  919TIP3    H224173   3.066   1.234   1.871 -0.2664  0.3743  0.6007
  920TIP3   OH224174   1.443   4.200   3.394 -0.1679  0.5886 -0.3176
  920TIP3    H124175   1.376   4.131   3.385 -0.5191  0.7458  0.8931
  920TIP3    H224176   1.492   4.175   3.472  0.1633  1.3300 -0.2831
  921TIP3   OH224177   3.009   0.433  13.414  0.1311  0.7516 -0.4561
  921TIP3    H124178   3.080   0.497  13.417  1.2750 -0.5066  0.5067
  921TIP3    H224179   3.014   0.388  13.498 -1.9173  0.7045 -0.3025
  922TIP3   OH224180   2.796   1.105   5.518 -0.1807  0.4315  0.7997
  922TIP3    H124181   2.797   1.138   5.428 -1.9968 -1.0529  0.1744
  922TIP3    H224182   2.721   1.149   5.558 -1.6594 -1.6160  0.4248
  923TIP3   OH224183   6.215   1.366   4.920 -0.2910 -0.2662 -0.2512
  923TIP3    H124184   6.283   1.309   4.956  0.9619  0.8453 -0.7927
  923TIP3    H224185   6.146   1.365   4.987 -0.6740 -2.9828 -0.5688
  924TIP3   OH224186   5.153   1.751  15.233 -0.0700  0.7058 -0.4197
  924TIP3    H124187   5.207   1.746  15.154 -0.8003 -0.4701 -0.8718
  924TIP3    H224188   5.067   1.719  15.206  0.1449 -1.5848  1.2449
  925TIP3   OH224189   0.881   3.212   0.114  0.4682  0.2464 -0.1705
  925TIP3    H124190   0.906   3.194   0.023 -0.8662  1.9918 -0.9404
  925TIP3    H224191   0.959   3.249   0.154  0.5368  1.2350 -1.1780
  926TIP3   OH224192   4.637   3.577   0.143 -0.0309 -0.4570 -0.3259
  926TIP3    H124193   4.728   3.603   0.128 -0.2966  1.1991  0.7776
  926TIP3    H224194   4.643   3.502   0.202  0.6110 -0.2939 -0.1803
  927TIP3   OH224195   3.753   5.794   5.377 -0.4867  0.0063  0.1700
  927TIP3    H124196   3.762   5.700   5.390  0.8131  0.0451 -0.3223
  927TIP3    H224197   3.672   5.817   5.423 -0.6893 -1.2993  0.5042
  928TIP3   OH224198   4.708   5.735   4.018 -0.1513 -0.9752  0.5004
  928TIP3    H124199   4.616   5.734   4.044 -0.0350  0.3232  1.0102
  928TIP3    H224200   4.708   5.774   3.931 -0.2342 -2.5893 -0.2615
  929TIP3   OH224201   5.447   3.938   3.953 -0.2223  0.2410  0.5057
  929TIP3    H124202   5.484   4.025   3.968  0.7873  0.4960 -2.6509
  929TIP3    H224203   5.363   3.955   3.912 -0.8030 -0.3323  1.4189
  930TIP3   OH224204   4.642   3.041   4.176  0.0425  0.2737 -0.1464
  930TIP3    H124205   4.713   2.977   4.182 -0.3847 -0.2682 -0.7818
  930TIP3    H224206   4.682   3.124   4.205  0.8583 -0.0746 -0.2515
  931TIP3   OH224207   1.806   2.648  14.314  0.1886  0.5683  0.0685
  931TIP3    H124208   1.745   2.614  14.379 -0.0058 -1.9389 -1.3108
  931TIP3    H224209   1.751   2.677  14.242  0.4268  2.9345  0.7707
  932TIP3   OH224210   4.904   1.879  15.970 -0.1361  0.1098 -0.2851
  932TIP3    H124211   4.895   1.816  15.899 -2.4566  1.4851 -1.3281
  932TIP3    H224212   4.935   1.959  15.928  1.5067  0.1191  0.8143
  933TIP3   OH224213   5.036   1.993  13.265  0.3103 -0.2736 -0.6477
  933TIP3    H124214   4.964   1.947  13.308  1.9191 -0.0358  2.5829
  933TIP3    H224215   5.018   2.086  13.281  2.5028 -0.2422  2.6618
  934TIP3   OH224216   3.277   6.316   0.542 -0.2046  0.6356 -0.3597
  934TIP3    H124217   3.275   6.284   0.633 -0.1450 -3.9052 -1.6993
  934TIP3    H224218   3.367   6.346   0.530 -0.2764  1.5536  1.1028
  935TIP3   OH224219   2.362   0.391  11.933  0.0476 -0.0584  0.1373
  935TIP3    H124220   2.411   0.473  11.939 -0.3445  0.1539  0.4926
  935TIP3    H224221   2.295   0.408  11.867  0.0464 -0.1367  0.1186
  936TIP3   OH224222   1.374   1.375  13.622  0.8105 -0.0431 -0.2702
  936TIP3    H124223   1.438   1.442  13.646  0.2677 -0.2366  1.9452
  936TIP3    H224224   1.403   1.296  13.667  1.1849 -1.2222 -2.4803
  937TIP3   OH224225   6.319   3.262  14.409  0.1072  0.3551 -0.5205
  937TIP3    H124226   6.342   3.318  14.335  1.6230  0.3475 -0.0873
  937TIP3    H224227   6.312   3.174  14.371  0.4646  0.4131 -0.7241
  938TIP3   OH224228   4.934   2.377  16.150 -0.7797 -0.5309  0.3513
  938TIP3    H124229   4.883   2.413  16.223  1.7185  2.4664  0.8140
  938TIP3    H224230   4.912   2.432  16.075  0.7430  0.0236  0.2692
  939TIP3   OH224231   5.481   2.958  12.911 -0.5791  0.2953  0.2172
  939TIP3    H124232   5.564   2.951  12.958 -0.2506 -0.3951 -0.4441
  939TIP3    H224233   5.419   2.991  12.976  0.2754  1.1099  0.6436
  940TIP3   OH224234   5.609   2.942  16.081  0.1196 -0.0802 -0.0144
  940TIP3    H124235   5.662   2.878  16.034  1.3681  0.0636  1.1509
  940TIP3    H224236   5.661   3.022  16.080 -1.2698  0.8835 -1.1533
  941TIP3   OH224237   6.578   1.473   2.917 -0.2961 -0.3413 -0.4852
  941TIP3    H124238   6.517   1.403   2.937 -0.0688 -0.2204  0.6972
  941TIP3    H224239   6.594   1.516   3.001  2.0735 -0.9039 -0.5754
  942TIP3   OH224240   6.140   4.152   2.892 -0.4285  0.4327 -0.4160
  942TIP3    H124241   6.183   4.237   2.891  1.6078 -0.5293 -1.6814
  942TIP3    H224242   6.124   4.134   2.985  0.5564  1.5076 -0.0212
  943TIP3   OH224243   0.179   0.644   2.535 -0.0672 -0.1542 -0.2714
  943TIP3    H124244   0.143   0.649   2.623  1.3619 -1.6923  0.4527
  943TIP3    H224245   0.115   0.593   2.485  1.1977 -3.3759  1.1407
  944TIP3   OH224246   0.091   1.280  12.963  0.3502 -0.4408 -1.0933
  944TIP3    H124247   0.097   1.318  12.876 -0.4718  0.9349 -0.5770
  944TIP3    H224248   0.025   1.211  12.955 -0.8351  0.6742 -1.2552
  945TIP3   OH224249   2.646   5.685  14.352 -0.7536 -0.1433  0.7400
  945TIP3    H124250   2.659   5.778  14.366 -0.7497  0.1409 -0.9231
  945TIP3    H224251   2.626   5.677  14.259 -2.4024 -1.6284  1.1572
  946TIP3   OH224252   2.949   3.776  14.496 -0.4321 -0.1655 -0.2565
  946TIP3    H124253   2.943   3.752  14.588  0.3210  0.5485 -0.0085
  946TIP3    H224254   2.942   3.872  14.496 -0.2799 -0.1506 -0.9276
  947TIP3   OH224255   4.420   2.177   4.866  0.3467  0.9109 -0.2149
  947TIP3    H124256   4.336   2.136   4.845  0.3820  0.6279  0.1950
  947TIP3    H224257   4.481   2.104   4.877  0.8827  1.1417 -1.4750
  948TIP3   OH224258   5.619   2.407  14.914 -0.2734  0.1166 -0.1209
  948TIP3    H124259   5.673   2.485  14.898  2.0276 -1.2004  0.7275
  948TIP3    H224260   5.618   2.361  14.830 -0.7947  0.5604 -0.3597
  949TIP3   OH224261   0.010   4.750  15.197 -0.2547 -0.2942 -0.3785
  949TIP3    H124262  -0.029   4.724  15.280  0.2675 -1.2994 -0.4372
  949TIP3    H224263  -0.063   4.750  15.135 -1.1435  2.6726  0.4704
  950TIP3   OH224264   0.393   5.448   3.285  0.3508  0.2944 -0.2666
  950TIP3    H124265   0.305   5.470   3.317  0.0817 -0.4078 -0.5179
  950TIP3    H224266   0.412   5.363   3.324  1.8173  1.3806  1.5454
  951TIP3   OH224267   1.314   6.210   0.571 -0.2660 -0.1523  0.1384
  951TIP3    H124268   1.302   6.202   0.477 -0.2099 -1.1814  0.2119
  951TIP3    H224269   1.306   6.304   0.588  3.3609  0.5795 -1.3807
  952TIP3   OH224270   3.574   0.208  11.915 -0.0432 -0.1045 -0.3055
  952TIP3    H124271   3.574   0.247  11.827  0.1277  0.3146 -0.1219
  952TIP3    H224272   3.486   0.224  11.948 -0.6033 -1.6323 -0.9936
  953TIP3   OH224273   1.024   5.711  16.474 -0.2099  0.2598  0.2259
  953TIP3    H124274   1.097   5.649  16.470  1.1207  1.7057  1.0326
  953TIP3    H224275   1.000   5.724  16.382  0.2779 -0.5202 -0.0288
  954TIP3   OH224276   0.064   4.023  14.235  0.4918  0.6417  0.4089
  954TIP3    H124277   0.091   4.022  14.143  1.1599  0.0870  0.5967
  954TIP3    H224278   0.140   4.060  14.281  1.2161 -1.4461  1.0162
  955TIP3   OH224279   0.311   6.566   1.201 -0.3138  0.1922 -0.0238
  955TIP3    H124280   0.371   6.544   1.273 -1.7967  2.4617  2.1088
  955TIP3    H224281   0.243   6.499   1.205 -0.5823  0.5033  0.9987
  956TIP3   OH224282   5.932   2.216   4.896  0.2055  0.0904 -1.1011
  956TIP3    H124283   5.970   2.133   4.924  0.1095 -0.3308 -2.1653
  956TIP3    H224284   5.838   2.206   4.910  0.3909  1.1230  1.5082
  957TIP3   OH224285   6.635   0.111   1.984 -0.1156  0.0905  0.5117
  957TIP3    H124286   6.705   0.046   1.991 -0.5386 -0.2443  1.8571
  957TIP3    H224287   6.664   0.184   2.039 -0.1910  0.5529 -0.0481
  958TIP3   OH224288   3.628   5.840   0.519  0.3659 -0.3003 -0.3945
  958TIP3    H124289   3.632   5.935   0.508  1.5152 -0.1484  0.9385
  958TIP3    H224290   3.666   5.805   0.439  1.1776  0.4255 -0.3515
  959TIP3   OH224291   1.845   4.505   1.090  0.3870  0.1784 -0.2149
  959TIP3    H124292   1.769   4.516   1.032 -1.0949 -1.8625  1.2085
  959TIP3    H224293   1.894   4.433   1.052 -0.0598 -0.5178  0.5049
  960TIP3   OH224294   4.349   4.063   1.517  0.1897 -0.4360  0.3621
  960TIP3    H124295   4.430   4.036   1.561  0.5159  0.7886  0.5478
  960TIP3    H224296   4.329   3.991   1.457  0.7464 -1.3020  1.1892
  961TIP3   OH224297   4.673   1.572   1.412 -0.2134  0.1190 -0.3986
  961TIP3    H124298   4.578   1.579   1.425 -0.1911  1.9055 -1.0393
  961TIP3    H224299   4.685   1.578   1.317  0.5648 -0.0134 -0.3153
  962TIP3   OH224300   0.284   0.756  11.007 -0.1508 -0.0785  1.1355
  962TIP3    H124301   0.302   0.699  11.081 -1.8911 -2.1383  0.0804
  962TIP3    H224302   0.243   0.699  10.942  3.1885  1.0668 -2.3358
  963TIP3   OH224303   5.205   0.290   4.525 -0.2590  0.5805  0.1907
  963TIP3    H124304   5.298   0.270   4.539 -0.0311  2.1090  1.0638
  963TIP3    H224305   5.204   0.346   4.447 -0.6537 -0.7885 -0.8343
  964TIP3   OH224306   1.436   1.234   5.519  0.3586  0.1458 -0.6256
  964TIP3    H124307   1.525   1.221   5.553 -0.4043  1.2901  2.0202
  964TIP3    H224308   1.379   1.189   5.581 -0.9115 -3.4268 -3.9648
  965TIP3   OH224309   5.591   1.042   5.433 -0.0483 -0.3315 -0.1488
  965TIP3    H124310   5.545   1.112   5.385 -1.0356 -0.3912  0.6790
  965TIP3    H224311   5.575   1.061   5.525 -0.1347 -1.5243  0.0989
  966TIP3   OH224312   3.434   4.077   5.072  0.0112  0.1828 -0.4929
  966TIP3    H124313   3.417   4.135   4.998  0.0975 -0.3259 -0.9156
  966TIP3    H224314   3.529   4.076   5.081 -0.0283  0.7797  0.0621
  967TIP3   OH224315   1.750   0.750  12.460  0.2831  0.3037 -0.1641
  967TIP3    H124316   1.698   0.672  12.444  1.9916 -0.4754 -2.5123
  967TIP3    H224317   1.798   0.732  12.540 -0.3078 -0.4803  0.0213
  968TIP3   OH224318   1.624   6.527   3.214 -0.6302 -0.4284 -0.0420
  968TIP3    H124319   1.685   6.572   3.156 -2.6297  3.2081  0.3759
  968TIP3    H224320   1.545   6.514   3.160 -1.0301 -0.9778  0.6615
  969TIP3   OH224321   3.711   2.577  12.784 -0.3231  0.0759 -0.4031
  969TIP3    H124322   3.655   2.499  12.783 -1.3714  0.8050 -0.4939
  969TIP3    H224323   3.767   2.568  12.708 -1.0603 -0.1575 -0.9270
  970TIP3   OH224324   6.358   6.173  11.341 -0.3654  0.7723  0.0319
  970TIP3    H124325   6.375   6.179  11.247  0.4165 -0.9839  0.0316
  970TIP3    H224326   6.266   6.147  11.347  0.3655 -2.3353 -0.4296
  971TIP3   OH224327   4.427   6.323  16.581  0.0355  0.2148  0.5251
  971TIP3    H124328   4.445   6.409  16.619 -1.2776  1.4832 -1.4932
  971TIP3    H224329   4.507   6.301  16.533 -0.6426  1.8348 -1.4865
  972TIP3   OH224330   6.516   5.342  12.972  0.2677  0.5418  0.5490
  972TIP3    H124331   6.595   5.394  12.984  0.3896  0.1971  1.3945
  972TIP3    H224332   6.535   5.260  13.020 -0.9968  0.8926  1.7150
  973TIP3   OH224333   0.957   0.144  11.616  0.7481 -0.2011  0.1611
  973TIP3    H124334   0.918   0.231  11.613  1.0535 -0.0747 -0.0504
  973TIP3    H224335   1.003   0.141  11.700 -0.6693 -0.7581  0.9594
  974TIP3   OH224336   6.448   6.421   1.722 -0.5914 -0.0995 -0.5768
  974TIP3    H124337   6.515   6.368   1.765  0.6451  1.9380  0.1804
  974TIP3    H224338   6.367   6.371   1.733  0.5106 -1.8974 -0.1154
  975TIP3   OH224339   4.570   0.251  15.235 -0.5938 -0.1237  0.2625
  975TIP3    H124340   4.653   0.217  15.202  0.2977  0.7223  1.5167
  975TIP3    H224341   4.574   0.345  15.220 -0.8311  0.0728  1.3291
  976TIP3   OH224342   5.242   2.730  15.465  0.1063  0.0519 -0.2363
  976TIP3    H124343   5.306   2.783  15.512  0.7668 -1.3451  0.5144
  976TIP3    H224344   5.157   2.762  15.495  0.4964  0.5468  0.3595
  977TIP3   OH224345   2.572   2.644   4.581 -0.0599  0.1480 -0.1830
  977TIP3    H124346   2.633   2.677   4.515  0.6848 -0.0019  0.4210
  977TIP3    H224347   2.503   2.710   4.584 -0.0789  0.1858 -1.0645
  978TIP3   OH224348   4.066   6.705  11.316 -0.2145  0.4666 -0.4193
  978TIP3    H124349   4.108   6.775  11.265  0.4991  1.0850  0.9552
  978TIP3    H224350   3.985   6.687  11.269  0.2301  1.2685 -1.5616
  979TIP3   OH224351   2.500   5.435  15.951 -0.0717 -0.2169 -0.3523
  979TIP3    H124352   2.454   5.489  16.015  0.5976  2.4420 -1.9341
  979TIP3    H224353   2.431   5.405  15.892 -0.1980  1.5359 -1.1863
  980TIP3   OH224354   0.244   5.038   2.473  0.5134  0.0558  0.1216
  980TIP3    H124355   0.248   4.975   2.401 -0.8541 -0.3363  0.3448
  980TIP3    H224356   0.189   5.109   2.440  1.5842  0.8818  0.0724
  981TIP3   OH224357   0.165   3.321   5.738 -0.3525  0.5982  0.1272
  981TIP3    H124358   0.126   3.288   5.819  1.1544  1.6558  1.3498
  981TIP3    H224359   0.186   3.412   5.757 -0.2907  0.9810 -1.6019
  982TIP3   OH224360   3.545   0.598  15.981  0.2631  0.7696 -0.0845
  982TIP3    H124361   3.619   0.658  15.994 -0.4892  1.7625 -0.2675
  982TIP3    H224362   3.468   0.654  15.988 -0.4497 -0.1323 -0.5926
  983TIP3   OH224363   5.652   5.466  13.803 -0.8202 -0.4266  0.1460
  983TIP3    H124364   5.724   5.419  13.844  0.3960 -0.1719 -1.6004
  983TIP3    H224365   5.608   5.400  13.749 -0.9343 -0.2263 -0.0068
  984TIP3   OH224366   4.290   0.755   3.014 -0.5696  0.2681 -0.8753
  984TIP3    H124367   4.344   0.676   3.022  1.5794  1.6712 -0.8078
  984TIP3    H224368   4.266   0.778   3.104 -2.4290 -1.0309 -0.9734
  985TIP3   OH224369   4.970   6.052  13.043 -0.0817  0.7272  0.3207
  985TIP3    H124370   4.973   6.086  12.953  2.9108 -1.0878 -0.4348
  985TIP3    H224371   4.897   5.990  13.043  1.0027 -0.6554 -1.5289
  986TIP3   OH224372   6.241   3.781  12.740  0.8068 -0.1440  0.6272
  986TIP3    H124373   6.326   3.823  12.728 -0.6345  3.0031  0.3033
  986TIP3    H224374   6.201   3.780  12.653  0.1339 -0.6855  0.9278
  987TIP3   OH224375   0.639   0.870   1.353  0.3471  0.1296  0.0985
  987TIP3    H124376   0.733   0.860   1.340  0.4146 -1.7865  1.6678
  987TIP3    H224377   0.600   0.809   1.291  0.2354 -0.6470  0.9231
  988TIP3   OH224378   4.992   5.936  15.876 -0.2575 -0.0994 -0.0478
  988TIP3    H124379   4.978   5.854  15.923  0.8866  0.0696  0.5990
  988TIP3    H224380   4.925   5.935  15.807  0.8091 -2.3981 -1.1499
  989TIP3   OH224381   2.610   6.687   0.484  0.6807  0.4351  0.1779
  989TIP3    H124382   2.702   6.672   0.508  0.7333 -0.5435 -0.5765
  989TIP3    H224383   2.594   6.626   0.411 -0.1232  1.6902 -0.7308
  990TIP3   OH224384   3.833   0.016   2.936 -0.0961  0.4855 -0.2463
  990TIP3    H124385   3.773   0.067   2.882  0.1419 -0.9238 -1.9281
  990TIP3    H224386   3.920   0.037   2.902  0.0303 -0.7094 -0.7287
  991TIP3   OH224387   4.210   2.841  17.072 -0.0217  0.0991 -0.1111
  991TIP3    H124388   4.263   2.786  17.128 -0.4904  0.3886  0.6290
  991TIP3    H224389   4.178   2.911  17.129 -1.5674 -0.3159 -0.4012
  992TIP3   OH224390   3.297   3.582   5.013  0.1580  0.3008  0.4424
  992TIP3    H124391   3.265   3.604   5.100  1.0028  2.0502  0.3629
  992TIP3    H224392   3.323   3.666   4.975 -0.6990 -0.3358 -1.7162
  993TIP3   OH224393   3.906   0.639  10.889 -0.1498  0.0482  0.3017
  993TIP3    H124394   3.945   0.558  10.921  0.3666  0.9914  2.2206
  993TIP3    H224395   3.847   0.666  10.959  0.8501  2.1134  0.4154
  994TIP3   OH224396   3.370   4.553   3.962  0.1357 -0.1482  0.3473
  994TIP3    H124397   3.382   4.543   4.056  1.8817 -1.4723  0.0197
  994TIP3    H224398   3.296   4.497   3.941 -0.4264  0.3530  0.9596
  995TIP3   OH224399   0.043   4.428  16.968  0.0999  0.8721 -0.2355
  995TIP3    H124400   0.129   4.389  16.951  0.2112  1.4677 -1.1054
  995TIP3    H224401   0.040   4.439  17.063  0.5024 -0.2338 -0.0746
  996TIP3   OH224402   5.546   6.512  11.790  0.2527 -0.6437 -0.0060
  996TIP3    H124403   5.510   6.577  11.730 -0.8923 -2.0127 -0.8485
  996TIP3    H224404   5.479   6.500  11.857  0.7816 -0.4161  0.5773
  997TIP3   OH224405   2.332   3.931  16.990 -0.4588  0.7312 -0.4456
  997TIP3    H124406   2.403   3.876  16.958 -0.6731  0.0664  0.1919
  997TIP3    H224407   2.366   4.021  16.983  0.3020  0.4461 -0.4833
  998TIP3   OH224408   3.074   6.492   1.758  0.3977  0.0319 -0.1402
  998TIP3    H124409   3.023   6.507   1.678 -1.1379  1.3967  1.0249
  998TIP3    H224410   3.010   6.464   1.823  1.3808  0.2695  0.9674
  999TIP3   OH224411   1.063   3.401  12.649  0.1724  0.1237 -0.5439
  999TIP3    H124412   1.044   3.403  12.742  0.1970 -0.8654 -0.5061
  999TIP3    H224413   1.087   3.491  12.627 -0.4385  0.4934  0.2699
 1000TIP3   OH224414   3.670   4.456  10.436 -0.5162 -0.4814 -0.5564
 1000TIP3    H124415   3.633   4.535  10.476  1.6380  0.2831  0.0658
 1000TIP3    H224416   3.659   4.469  10.342 -1.0255  0.1259 -0.4181
 1001TIP3   OH224417   5.260   3.656   0.040 -0.2639  0.0215  0.2515
 1001TIP3    H124418   5.326   3.696   0.097 -1.2049  0.1372  1.3113
 1001TIP3    H224419   5.292   3.568   0.024  0.2666  0.1554  0.5621
 1002TIP3   OH224420   2.425   0.904  16.454  0.2636  0.0826 -0.0010
 1002TIP3    H124421   2.436   0.856  16.535 -1.3868 -0.0427  0.1804
 1002TIP3    H224422   2.366   0.976  16.476 -1.5208 -0.8818 -1.4069
 1003TIP3   OH224423   0.440   6.370   6.521  0.0632  0.4637  0.2519
 1003TIP3    H124424   0.481   6.289   6.491  0.6590  0.5245  0.8694
 1003TIP3    H224425   0.369   6.340   6.579 -0.5016  0.3669 -0.4816
 1004TIP3   OH224426   2.134   0.639   4.113  0.6135  0.5250 -0.1463
 1004TIP3    H124427   2.202   0.660   4.048 -0.0448 -1.2211 -1.4697
 1004TIP3    H224428   2.099   0.554   4.085 -0.3447  0.1467  1.9885
 1005TIP3   OH224429   3.112   4.868   5.929  0.7670 -0.2086 -0.1262
 1005TIP3    H124430   3.089   4.800   5.864 -1.6531  0.4034  0.0123
 1005TIP3    H224431   3.125   4.819   6.010  1.9509 -0.7751 -0.6180
 1006TIP3   OH224432   4.025   1.399   1.132  0.2894 -0.4955  0.6829
 1006TIP3    H124433   3.983   1.481   1.157  0.5446 -0.1755  0.0755
 1006TIP3    H224434   3.957   1.333   1.147 -0.5970  0.0674 -0.6584
 1007TIP3   OH224435   4.756   2.023  16.428 -0.6524  0.5559  0.3107
 1007TIP3    H124436   4.694   2.096  16.430 -1.6103 -0.2466  0.8233
 1007TIP3    H224437   4.786   2.019  16.337 -0.6136  1.5581  0.2755
 1008TIP3   OH224438   2.280   6.760  10.805  0.3384  0.4565 -0.1143
 1008TIP3    H124439   2.274   6.759  10.709  0.4419  0.6832 -0.1234
 1008TIP3    H224440   2.306   6.850  10.827  1.1340  0.1943  0.0695
 1009TIP3   OH224441   5.653   0.954  14.801 -0.0678  0.0542 -0.0197
 1009TIP3    H124442   5.690   0.867  14.783  0.1069  0.0225  0.4893
 1009TIP3    H224443   5.653   0.998  14.716  0.9332 -0.0303 -0.0702
 1010TIP3   OH224444   4.043   4.378  13.215  0.1079  0.3374  0.4181
 1010TIP3    H124445   4.102   4.417  13.151 -0.6047  3.4573  1.4770
 1010TIP3    H224446   4.100   4.353  13.288  0.4802  0.2597  0.1069
 1011TIP3   OH224447   2.936   1.683  14.847 -1.2951 -0.2693 -0.5064
 1011TIP3    H124448   2.983   1.730  14.778 -0.7993 -0.6421 -0.4309
 1011TIP3    H224449   2.882   1.620  14.800 -1.9506  0.3501 -0.6073
 1012TIP3   OH224450   4.080   1.449  14.629  0.2577  0.1596  0.1079
 1012TIP3    H124451   4.114   1.534  14.600 -1.2355  0.7803  0.0685
 1012TIP3    H224452   3.985   1.463  14.637 -0.0317 -1.5461 -0.0276
 1013TIP3   OH224453   5.589   4.891   2.965 -0.0243  0.1225  0.8084
 1013TIP3    H124454   5.680   4.863   2.974  0.4225  1.4705  0.6698
 1013TIP3    H224455   5.583   4.926   2.876 -1.1710 -1.6206  0.1535
 1014TIP3   OH224456   6.540   0.417   2.939  0.1318 -0.4175  0.3996
 1014TIP3    H124457   6.517   0.481   2.873 -2.2244 -2.4269 -0.8651
 1014TIP3    H224458   6.459   0.369   2.956  1.3244 -1.8001  2.7135
 1015TIP3   OH224459   4.675   1.229  12.529 -0.3131 -0.5702 -0.3275
 1015TIP3    H124460   4.748   1.244  12.589  0.0362 -2.5424 -0.2175
 1015TIP3    H224461   4.601   1.208  12.586 -0.6095 -0.0253 -0.5026
 1016TIP3   OH224462   6.264   1.871   3.376 -0.1541  0.0828  0.2191
 1016TIP3    H124463   6.180   1.916   3.374 -0.9357 -1.2781  0.7575
 1016TIP3    H224464   6.260   1.809   3.303  0.1681 -0.3232  0.5399
 1017TIP3   OH224465   3.092   5.688   3.714 -0.3629 -0.9859 -0.5641
 1017TIP3    H124466   3.059   5.614   3.765  0.4969 -0.4523  0.8580
 1017TIP3    H224467   3.108   5.756   3.780  0.8056 -0.2563 -1.5512
 1018TIP3   OH224468   4.652   2.732   4.759 -0.1455  0.3055 -0.4761
 1018TIP3    H124469   4.615   2.647   4.734  0.8444 -1.1797  2.5861
 1018TIP3    H224470   4.741   2.712   4.788 -0.6153  1.8927  2.5078
 1019TIP3   OH224471   0.019   0.536   0.909 -0.1687 -0.5354  0.0630
 1019TIP3    H124472   0.023   0.444   0.937  0.6734 -0.7136 -0.5910
 1019TIP3    H224473  -0.046   0.576   0.966 -1.2718 -1.7664 -0.2850
 1020TIP3   OH224474   2.808   3.535  10.529 -0.3576  0.5181  0.7718
 1020TIP3    H124475   2.880   3.507  10.586 -0.3607  0.8194  0.9308
 1020TIP3    H224476   2.817   3.631  10.525  1.0744  0.3683 -1.6288
 1021TIP3   OH224477   0.345   2.252   4.747  0.3349 -0.1735  0.4303
 1021TIP3    H124478   0.402   2.278   4.820  1.2760  0.7277 -0.5794
 1021TIP3    H224479   0.257   2.251   4.785  0.9103 -0.8882  1.8548
 1022TIP3   OH224480   2.092   4.174   0.628  0.3082 -0.1100 -0.1268
 1022TIP3    H124481   2.033   4.100   0.612 -0.5003  0.4582  0.1245
 1022TIP3    H224482   2.133   4.153   0.712  0.1488 -0.3149 -0.0982
 1023TIP3   OH224483   0.899   0.967  16.256 -0.6177 -0.2977 -0.5113
 1023TIP3    H124484   0.831   0.911  16.293 -1.3104 -0.2637 -1.6631
 1023TIP3    H224485   0.966   0.972  16.323 -1.7595 -0.3318  0.6645
 1024TIP3   OH224486   3.851   2.914   6.386 -0.6707 -0.2628 -0.0412
 1024TIP3    H124487   3.778   2.882   6.332 -0.5077 -2.0314  0.7008
 1024TIP3    H224488   3.876   2.838   6.438  1.3941  0.4449  0.0655
 1025TIP3   OH224489   5.814   6.492   4.731 -0.4554  0.6988  0.3610
 1025TIP3    H124490   5.740   6.548   4.753  0.0677  2.0099 -1.0267
 1025TIP3    H224491   5.775   6.412   4.697 -1.2167  0.3202  2.0357
 1026TIP3   OH224492   2.312   0.978   0.746 -0.1930  0.0645 -0.7333
 1026TIP3    H124493   2.394   0.994   0.698  0.3147  0.2410  0.1600
 1026TIP3    H224494   2.282   1.066   0.770 -0.8309  0.0181 -1.3476
 1027TIP3   OH224495   0.320   6.702   2.440 -0.0930 -0.0447 -0.2559
 1027TIP3    H124496   0.371   6.703   2.521  0.4009 -0.0241 -0.5620
 1027TIP3    H224497   0.332   6.789   2.403 -0.3479 -0.0416 -0.3331
 1028TIP3   OH224498   4.825   0.377  11.372  0.2208  0.3100  0.4134
 1028TIP3    H124499   4.743   0.369  11.324 -0.3578 -1.0096  1.5536
 1028TIP3    H224500   4.871   0.295  11.355  1.6163  1.2585 -0.6864
 1029TIP3   OH224501   1.013   0.605   3.763  0.4005 -0.3287  0.5096
 1029TIP3    H124502   0.958   0.649   3.829  1.5427  0.2841  1.0903
 1029TIP3    H224503   1.032   0.519   3.800 -0.9553 -0.9341 -0.1428
 1030TIP3   OH224504   1.244   5.125   0.924 -0.8110  0.0317 -0.4351
 1030TIP3    H124505   1.179   5.196   0.925 -1.3497 -0.3693 -2.4285
 1030TIP3    H224506   1.320   5.161   0.969 -1.4544  1.4868 -0.4651
 1031TIP3   OH224507   3.874   5.073  14.006 -0.5648  0.0614  0.0043
 1031TIP3    H124508   3.800   5.017  14.029 -1.8656  1.7846  0.2136
 1031TIP3    H224509   3.847   5.116  13.925  0.6163  0.0338 -0.4234
 1032TIP3   OH224510   4.706   5.062   6.024 -0.6739  0.0903 -0.1560
 1032TIP3    H124511   4.644   5.036   6.093 -0.4857 -0.8066 -0.3137
 1032TIP3    H224512   4.672   5.023   5.944 -0.7515  0.9200 -0.5458
 1033TIP3   OH224513   6.442   4.620  11.782  0.3697  0.1137  0.6819
 1033TIP3    H124514   6.366   4.648  11.832 -1.6168 -2.4750 -0.6324
 1033TIP3    H224515   6.486   4.556  11.837 -1.1221 -1.8192 -0.2496
 1034TIP3   OH224516   4.021   0.682   3.674  0.3950 -0.2859 -0.5513
 1034TIP3    H124517   4.032   0.725   3.758 -3.2390  2.2095 -1.1183
 1034TIP3    H224518   4.031   0.588   3.693 -0.8827  0.1491  2.8062
 1035TIP3   OH224519   1.705   0.646   0.855 -0.3263 -0.0300 -0.9527
 1035TIP3    H124520   1.769   0.586   0.817  0.0432 -0.2419 -0.0316
 1035TIP3    H224521   1.647   0.591   0.906  1.2503  0.5086  1.6338
 1036TIP3   OH224522   6.180   6.276   0.154  0.4500 -0.2234 -0.0061
 1036TIP3    H124523   6.237   6.352   0.142 -0.3276  0.4998  0.7157
 1036TIP3    H224524   6.113   6.307   0.215  0.3103 -1.5948  0.5637
 1037TIP3   OH224525   5.022   4.083  10.787 -0.0685  0.1406 -0.3168
 1037TIP3    H124526   5.057   4.063  10.874 -0.8445  0.1074 -0.0014
 1037TIP3    H224527   5.098   4.111  10.736  0.3665  0.3232  0.4197
 1038TIP3   OH224528   3.999   3.723   5.528  0.0773  0.0218  0.5850
 1038TIP3    H124529   3.930   3.727   5.462  1.4178 -0.8002 -0.9328
 1038TIP3    H224530   3.997   3.632   5.560  1.2795 -0.3850 -0.4300
 1039TIP3   OH224531   2.067   6.576   5.626 -0.3260 -0.0421  0.0097
 1039TIP3    H124532   2.062   6.497   5.680 -1.5252 -0.1346 -0.2219
 1039TIP3    H224533   1.984   6.621   5.641  0.3319  1.1745  0.1234
 1040TIP3   OH224534   1.317   2.754  13.635  0.9091 -0.7272  0.5786
 1040TIP3    H124535   1.354   2.675  13.676  1.8292 -0.5718  0.0710
 1040TIP3    H224536   1.222   2.738  13.636  1.0573 -1.7199  0.7256
 1041TIP3   OH224537   5.281   2.189  14.237  0.0031  0.6273 -0.0947
 1041TIP3    H124538   5.294   2.122  14.304  0.8445  1.3697  0.5112
 1041TIP3    H224539   5.204   2.160  14.188  0.6573 -1.0503 -0.1926
 1042TIP3   OH224540   0.007   3.048  14.283 -0.2523  0.0519  0.0951
 1042TIP3    H124541  -0.017   3.137  14.255  0.4282  0.3366  0.3927
 1042TIP3    H224542   0.096   3.037  14.251  0.3117  0.1396  1.5554
 1043TIP3   OH224543   6.713   0.938  16.672  0.0268 -0.0433  0.7017
 1043TIP3    H124544   6.622   0.969  16.679  0.1530  0.2822  0.9559
 1043TIP3    H224545   6.713   0.882  16.594 -0.2638  0.4228  0.3578
 1044TIP3   OH224546   1.476   5.561  11.867  0.0797 -0.8923  0.4303
 1044TIP3    H124547   1.468   5.619  11.943  1.8504 -0.0775  0.0626
 1044TIP3    H224548   1.570   5.546  11.859 -0.2797 -3.7624  0.4219
 1045TIP3   OH224549   6.448   2.628  15.610 -0.1938  0.0419 -0.3625
 1045TIP3    H124550   6.439   2.675  15.692  3.5722  1.2277 -0.4346
 1045TIP3    H224551   6.486   2.543  15.635  2.8802  1.1551 -0.8488
 1046TIP3   OH224552   2.912   2.205  13.746  0.0109 -0.3817  1.2913
 1046TIP3    H124553   2.934   2.169  13.832  1.6659  2.2354  2.0787
 1046TIP3    H224554   2.866   2.287  13.766 -1.0573 -0.5337 -0.3620
 1047TIP3   OH224555   0.615   0.164   0.425 -0.1304 -0.1482  0.3020
 1047TIP3    H124556   0.652   0.223   0.492  0.4744  0.4397 -0.5325
 1047TIP3    H224557   0.528   0.200   0.408  0.5450  1.0369 -0.8037
 1048TIP3   OH224558   0.313   1.185   1.075  0.2045  0.2240 -0.3671
 1048TIP3    H124559   0.389   1.210   1.127 -0.7200 -0.0599  1.1959
 1048TIP3    H224560   0.348   1.127   1.007  1.7767  2.4178 -1.5375
 1049TIP3   OH224561   4.088   0.974   4.839 -0.3998  0.0926  0.0431
 1049TIP3    H124562   4.180   1.000   4.830 -0.2429 -0.8335 -1.6226
 1049TIP3    H224563   4.044   1.015   4.764 -1.3803  0.5981  0.8732
 1050TIP3   OH224564   6.160   4.024  11.299  0.4263 -0.0506  0.2343
 1050TIP3    H124565   6.160   4.002  11.205 -0.0490  0.5590  0.0805
 1050TIP3    H224566   6.138   4.117  11.301 -2.9045 -0.7286  1.0914
 1051TIP3   OH224567   3.359   4.686   3.676  0.6077  0.2670  0.1024
 1051TIP3    H124568   3.315   4.758   3.721  1.3042  0.8807 -0.1727
 1051TIP3    H224569   3.416   4.647   3.743 -0.5223 -0.7004  0.5328
 1052TIP3   OH224570   3.213   0.417   2.306 -0.2313  0.0479 -0.0911
 1052TIP3    H124571   3.226   0.428   2.212  1.5391  2.1771  0.3239
 1052TIP3    H224572   3.297   0.443   2.345 -0.8509 -0.9996  2.0763
 1053TIP3   OH224573   2.137   2.905  13.115  0.0024  0.1399  0.0810
 1053TIP3    H124574   2.188   2.940  13.188  0.3475 -1.8544  0.8663
 1053TIP3    H224575   2.088   2.980  13.081  1.9143  1.6942  0.5925
 1054TIP3   OH224576   0.174   5.001   4.796  0.0242 -0.0486 -0.1437
 1054TIP3    H124577   0.095   5.050   4.773  0.2195  1.1403  1.4513
 1054TIP3    H224578   0.239   5.069   4.813  0.8236 -0.9283  0.4267
 1055TIP3   OH224579   0.709   6.086   5.150  0.5403 -0.4904  0.4382
 1055TIP3    H124580   0.792   6.084   5.103  2.7625 -1.6528  3.9482
 1055TIP3    H224581   0.657   6.015   5.111  1.4246 -0.1476 -1.4284
 1056TIP3   OH224582   0.755   0.497   3.073  0.3808  0.2327  0.4777
 1056TIP3    H124583   0.732   0.574   3.021  1.3396  0.6590  0.6711
 1056TIP3    H224584   0.705   0.426   3.033 -0.6369  0.9692  0.3853
 1057TIP3   OH224585   0.585   2.081  12.115 -0.8076  0.2567 -0.4614
 1057TIP3    H124586   0.507   2.091  12.060 -2.0105 -2.8900  0.4561
 1057TIP3    H224587   0.604   1.987  12.113  0.9595  0.4665  1.9842
 1058TIP3   OH224588   3.056   4.878   3.518  0.0785 -0.2612 -0.0256
 1058TIP3    H124589   3.008   4.797   3.540 -1.1279  0.7085  1.1307
 1058TIP3    H224590   3.086   4.911   3.603  1.4102  0.0224 -0.5834
 1059TIP3   OH224591   6.484   5.359  15.302  0.6007  0.2459  0.2822
 1059TIP3    H124592   6.514   5.279  15.259 -0.2993  1.3484 -2.6720
 1059TIP3    H224593   6.390   5.363  15.283  0.1284  0.8372  2.4566
 1060TIP3   OH224594   1.295   3.779   5.453 -0.1208  0.5150  0.6596
 1060TIP3    H124595   1.348   3.856   5.431  0.8646 -0.1079  0.7880
 1060TIP3    H224596   1.321   3.757   5.543  0.7356 -0.8520  0.1079
 1061TIP3   OH224597   6.297   3.606   3.779 -0.4478 -0.5268 -0.0234
 1061TIP3    H124598   6.334   3.520   3.760 -0.1860 -0.1615 -1.3208
 1061TIP3    H224599   6.202   3.595   3.770 -0.5860 -1.1213  1.8237
 1062TIP3   OH224600   2.196   0.218  13.724 -0.4981 -0.5543  0.4303
 1062TIP3    H124601   2.210   0.310  13.702 -1.5720  0.3447  3.1771
 1062TIP3    H224602   2.104   0.212  13.748 -0.1299 -2.0377  1.6343
 1063TIP3   OH224603   0.957   3.204   2.950  0.1153 -0.1551  0.2342
 1063TIP3    H124604   1.004   3.189   3.033 -1.8471 -1.7650  1.1414
 1063TIP3    H224605   0.886   3.263   2.973  0.6468  0.9174 -0.7703
 1064TIP3   OH224606   6.625   2.561  16.920 -0.4567 -0.0224  0.5481
 1064TIP3    H124607   6.618   2.599  17.007 -0.7698  0.2616  0.3989
 1064TIP3    H224608   6.579   2.477  16.927 -1.1823  0.3532  0.4539
 1065TIP3   OH224609   0.004   6.758  16.903  0.2491  0.3973  0.5573
 1065TIP3    H124610   0.043   6.806  16.976  1.6234  1.3972 -0.7600
 1065TIP3    H224611  -0.082   6.798  16.891  0.5331  1.1015  0.8286
 1066TIP3   OH224612   0.840   6.088  15.531  0.0734  0.0024 -0.9725
 1066TIP3    H124613   0.908   6.054  15.473  0.7319  0.4160 -0.4564
 1066TIP3    H224614   0.780   6.014  15.543  0.3775 -0.3397 -1.5091
 1067TIP3   OH224615   3.073   5.310  11.156  0.4528 -0.5733 -0.0031
 1067TIP3    H124616   3.101   5.271  11.239  1.1165 -0.8542 -0.3473
 1067TIP3    H224617   3.012   5.247  11.119 -1.4968  0.4996  1.2243
 1068TIP3   OH224618   2.296   6.747   0.897 -0.1953 -0.3538 -0.5718
 1068TIP3    H124619   2.253   6.666   0.924  1.8048 -0.9514  1.0938
 1068TIP3    H224620   2.228   6.814   0.906 -1.2278 -1.4763  0.4049
 1069TIP3   OH224621   3.925   2.090  11.642  0.2443 -0.0411  0.7929
 1069TIP3    H124622   3.836   2.057  11.629  0.8571 -2.0914  1.5232
 1069TIP3    H224623   3.982   2.021  11.608  1.5935  0.7499  1.3478
 1070TIP3   OH224624   4.902   5.085  15.356  0.1315  0.3769 -0.0467
 1070TIP3    H124625   4.972   5.150  15.351  0.7045 -0.2514 -0.2416
 1070TIP3    H224626   4.936   5.017  15.414  0.1176 -0.4547 -1.0015
 1071TIP3   OH224627   6.553   2.017   0.617 -0.0763 -0.2208  0.1682
 1071TIP3    H124628   6.518   1.992   0.703  1.2999  0.3386  0.9102
 1071TIP3    H224629   6.530   2.109   0.608 -0.3466 -0.3164 -0.1394
 1072TIP3   OH224630   1.135   0.552   6.238  0.0130 -0.2146 -0.4178
 1072TIP3    H124631   1.203   0.618   6.252 -2.0580  1.7523  1.1401
 1072TIP3    H224632   1.160   0.479   6.295  1.1834  0.1536 -0.4410
 1073TIP3   OH224633   6.686   6.351   1.855  0.2384  0.2144  0.1948
 1073TIP3    H124634   6.647   6.423   1.905 -0.8561 -0.2974  0.1277
 1073TIP3    H224635   6.713   6.287   1.922  2.2573  1.1381  0.3274
 1074TIP3   OH224636   0.552   1.595   4.301 -0.2475 -0.2946  0.1889
 1074TIP3    H124637   0.494   1.522   4.321 -0.0748 -0.5694 -0.2851
 1074TIP3    H224638   0.636   1.554   4.282 -0.9068 -0.3557 -3.4297
 1075TIP3   OH224639   6.389   2.069   2.772  0.1759  0.3339 -0.6398
 1075TIP3    H124640   6.401   2.155   2.813  0.4846 -0.0435  0.0606
 1075TIP3    H224641   6.349   2.015   2.840  1.9151 -0.6700 -0.3734
 1076TIP3   OH224642   1.182   0.302   4.586  0.7463 -0.1284 -0.0997
 1076TIP3    H124643   1.190   0.207   4.585  2.0087 -0.0728  1.0207
 1076TIP3    H224644   1.108   0.319   4.644 -0.5925 -0.4334 -1.6538
 1077TIP3   OH224645   4.818   5.016   1.198  0.2960  0.0014 -0.2112
 1077TIP3    H124646   4.889   5.037   1.137 -1.6286 -0.1812 -2.6608
 1077TIP3    H224647   4.772   5.099   1.210 -1.5960 -0.6947 -2.1594
 1078TIP3   OH224648   4.494   0.948  15.742  0.3909  0.2129 -0.0000
 1078TIP3    H124649   4.527   0.938  15.832  1.7668  0.3985 -0.4673
 1078TIP3    H224650   4.471   0.859  15.715  0.7405  0.0421  0.2566
 1079TIP3   OH224651   4.989   6.128   4.826  0.4941 -0.1725 -0.1341
 1079TIP3    H124652   4.918   6.082   4.781 -0.3692  1.9013 -1.0664
 1079TIP3    H224653   5.069   6.095   4.786 -0.1594  0.1212 -1.7659
 1080TIP3   OH224654   3.530   3.154  12.505  0.4956  0.3465 -0.5950
 1080TIP3    H124655   3.467   3.206  12.456 -0.4590 -1.1089 -0.9843
 1080TIP3    H224656   3.479   3.115  12.576  0.5962 -1.8925 -1.6706
 1081TIP3   OH224657   6.435   1.918  15.614  0.5359 -0.5273  0.2142
 1081TIP3    H124658   6.502   1.931  15.547  1.0726 -2.0596  0.4323
 1081TIP3    H224659   6.383   1.844  15.583 -1.3327  0.8583 -0.1388
 1082TIP3   OH224660   3.741   4.774   4.430 -0.4855 -0.1478 -0.1946
 1082TIP3    H124661   3.648   4.757   4.445 -0.3619 -1.3355 -0.6745
 1082TIP3    H224662   3.760   4.852   4.483 -1.1278 -1.4652  2.1462
 1083TIP3   OH224663   6.499   1.183   1.585  0.0893  0.7432 -0.8147
 1083TIP3    H124664   6.574   1.140   1.625 -0.7795 -0.1931 -0.1077
 1083TIP3    H224665   6.535   1.257   1.537  1.6605 -0.7734 -2.0941
 1084TIP3   OH224666   3.755   3.971   0.536 -0.0774  0.8534  0.4074
 1084TIP3    H124667   3.818   3.979   0.464 -0.6467  1.8783  0.0008
 1084TIP3    H224668   3.713   4.057   0.540 -2.5581 -0.2446 -0.3641
 1085TIP3   OH224669   0.714   1.383   1.711  0.2291 -0.5434 -0.1499
 1085TIP3    H124670   0.669   1.382   1.795 -1.6287  0.0905 -1.0948
 1085TIP3    H224671   0.794   1.433   1.727  0.6771 -1.7562  1.5886
 1086TIP3   OH224672   6.162   6.513  13.642 -0.1368 -0.4800 -0.5416
 1086TIP3    H124673   6.166   6.443  13.707  0.6874 -1.7085 -1.8598
 1086TIP3    H224674   6.186   6.592  13.691 -1.5686 -0.9996  1.0778
 1087TIP3   OH224675   3.848   0.721   0.119  0.5152  0.6899 -0.4242
 1087TIP3    H124676   3.941   0.700   0.119  0.5262  0.7043 -1.0980
 1087TIP3    H224677   3.844   0.813   0.091  0.5026  1.8264  2.8917
 1088TIP3   OH224678   1.786   1.032   1.525  0.4250  0.5668  0.1093
 1088TIP3    H124679   1.765   0.947   1.486  1.1117  0.4283  0.0286
 1088TIP3    H224680   1.726   1.039   1.599 -1.4771  1.1867 -1.3859
 1089TIP3   OH224681   3.779   1.830  10.684  0.2285  0.5522  0.3810
 1089TIP3    H124682   3.782   1.875  10.768 -1.4095  0.2752  0.6023
 1089TIP3    H224683   3.707   1.871  10.636  0.4690  0.0006 -0.4856
 1090TIP3   OH224684   4.543   4.617  12.844  0.3788  1.1628  0.0704
 1090TIP3    H124685   4.490   4.613  12.765 -0.7896 -0.2062  0.8776
 1090TIP3    H224686   4.622   4.566  12.823  0.3681  1.3375 -0.3989
 1091TIP3   OH224687   5.037   3.971  11.533  0.1457  0.1972  0.5693
 1091TIP3    H124688   5.075   3.942  11.615  0.5927 -1.2200 -0.1099
 1091TIP3    H224689   5.112   3.990  11.477 -0.1545  1.0762  0.4374
 1092TIP3   OH224690   4.074   3.503  12.749  0.1728 -0.4359 -0.2480
 1092TIP3    H124691   4.015   3.575  12.771 -0.7831 -0.3181 -2.8212
 1092TIP3    H224692   4.027   3.424  12.775  0.2361 -0.2230  0.5162
 1093TIP3   OH224693   2.367   5.953  13.660 -0.0979  0.2503  0.2254
 1093TIP3    H124694   2.295   5.891  13.648 -1.6727  2.2659 -1.7587
 1093TIP3    H224695   2.326   6.029  13.702  0.9194  1.2724 -0.5683
 1094TIP3   OH224696   1.111   4.741  11.361 -0.3121 -0.3138 -0.0129
 1094TIP3    H124697   1.191   4.697  11.334  0.7756  0.7525  1.3503
 1094TIP3    H224698   1.048   4.670  11.374  1.1204 -1.4128  1.2137
 1095TIP3   OH224699   1.388   1.601   4.072 -0.3138 -0.4267  0.3575
 1095TIP3    H124700   1.431   1.574   3.990 -1.9068 -1.1918 -0.2741
 1095TIP3    H224701   1.396   1.697   4.072 -0.6300 -0.3756 -0.9009
 1096TIP3   OH224702   0.323   6.748  16.398 -0.1675  0.0989  0.6247
 1096TIP3    H124703   0.238   6.760  16.439 -0.7302 -0.5720 -0.3149
 1096TIP3    H224704   0.307   6.690  16.324  1.2935 -0.9647  1.0831
 1097TIP3   OH224705   2.537   4.189   1.670 -0.3792 -0.4061  0.7114
 1097TIP3    H124706   2.545   4.261   1.607  1.3540  1.5082  2.9335
 1097TIP3    H224707   2.445   4.190   1.695 -0.7248 -0.0725 -0.4806
 1098TIP3   OH224708   5.943   6.315   2.772 -0.4918  0.3233 -0.1695
 1098TIP3    H124709   5.988   6.256   2.832 -0.6097 -0.7666 -1.1011
 1098TIP3    H224710   5.861   6.270   2.751 -0.4342  0.6398 -1.1610
 1099TIP3   OH224711   3.895   0.826  11.975 -0.7240 -0.3625 -0.3125
 1099TIP3    H124712   3.883   0.733  11.958  0.7657 -0.6754  0.1963
 1099TIP3    H224713   3.845   0.842  12.056 -1.4545 -0.5747 -0.7118
 1100TIP3   OH224714   5.858   3.735   6.323  0.3362  0.2246  0.0172
 1100TIP3    H124715   5.889   3.820   6.353 -1.2524  1.4144 -1.5289
 1100TIP3    H224716   5.901   3.722   6.239 -0.0459 -0.1125 -0.1279
 1101TIP3   OH224717   5.768   3.534   4.036 -0.6561 -0.0698 -0.4064
 1101TIP3    H124718   5.815   3.544   3.953 -1.7269  4.5193 -0.7503
 1101TIP3    H224719   5.679   3.511   4.009 -0.8327  0.7149 -0.5199
 1102TIP3   OH224720   2.031   1.006   2.221  0.1222  0.2033 -0.2593
 1102TIP3    H124721   1.993   0.918   2.223  2.0085 -0.6367  0.8170
 1102TIP3    H224722   2.016   1.040   2.309  0.3141  0.5435 -0.3566
 1103TIP3   OH224723   4.245   1.270  12.945  0.3964  0.2693  0.2013
 1103TIP3    H124724   4.252   1.214  13.023 -1.2949 -0.3778 -0.0660
 1103TIP3    H224725   4.317   1.241  12.889  0.3748 -0.7218  0.6472
 1104TIP3   OH224726   4.090   5.590  13.567 -1.0402  0.4996  0.4985
 1104TIP3    H124727   4.158   5.565  13.629 -0.0514  2.4496  0.2945
 1104TIP3    H224728   4.012   5.606  13.620 -0.9651 -0.4053  0.8954
 1105TIP3   OH224729   2.869   0.809  10.711  0.2238 -0.0441 -0.2871
 1105TIP3    H124730   2.808   0.784  10.780  0.2784 -0.9130 -0.5473
 1105TIP3    H224731   2.815   0.820  10.633  0.5150 -1.9514 -0.7961
 1106TIP3   OH224732   0.269   3.629  13.113 -0.8595  0.3741 -0.9095
 1106TIP3    H124733   0.300   3.570  13.182 -0.3666  1.9199  0.2460
 1106TIP3    H224734   0.219   3.573  13.054  0.3295 -1.3625 -0.3474
 1107TIP3   OH224735   0.791   0.567   1.025  0.0616  0.0788  0.2637
 1107TIP3    H124736   0.832   0.631   0.966  1.3600 -1.0410 -0.1302
 1107TIP3    H224737   0.777   0.490   0.970 -0.1882 -0.4496  1.0475
 1108TIP3   OH224738   6.750   3.138  13.337 -0.3697 -0.1335  0.5486
 1108TIP3    H124739   6.669   3.088  13.336  0.0588 -0.8564 -1.0752
 1108TIP3    H224740   6.817   3.076  13.308  0.4539  0.9296  0.0926
 1109TIP3   OH224741   2.040   4.704   6.156 -0.7491  0.1907 -0.4184
 1109TIP3    H124742   2.099   4.632   6.138 -0.4045  0.1640  0.7551
 1109TIP3    H224743   2.097   4.779   6.173 -1.0767  0.4431 -0.4066
 1110TIP3   OH224744   3.765   1.978   1.499 -0.0547  0.1024  0.1393
 1110TIP3    H124745   3.691   1.957   1.441 -0.9514  0.9909  0.9275
 1110TIP3    H224746   3.739   2.060   1.541 -1.0424 -2.1545  4.4239
 1111TIP3   OH224747   2.803   5.813  16.043  0.4047 -0.7970 -0.0066
 1111TIP3    H124748   2.760   5.854  16.118  2.1862  0.7365  0.2445
 1111TIP3    H224749   2.741   5.824  15.970 -0.1722  0.1511  0.6170
 1112TIP3   OH224750   5.836   3.995   3.453  0.2246 -0.1542  0.2519
 1112TIP3    H124751   5.791   4.039   3.525 -1.9389  0.1861 -1.2166
 1112TIP3    H224752   5.779   3.922   3.429 -0.0742  0.7918 -2.2368
 1113TIP3   OH224753   1.508   3.078  13.055  0.2128  0.1890 -0.5276
 1113TIP3    H124754   1.549   3.022  12.989 -0.6909 -0.0908 -0.8587
 1113TIP3    H224755   1.445   3.021  13.099 -0.3236  0.7990 -0.4958
 1114TIP3   OH224756   1.529   5.547  10.897 -0.1226  0.3680  0.8117
 1114TIP3    H124757   1.481   5.520  10.975  0.5526 -0.4989  0.9377
 1114TIP3    H224758   1.484   5.503  10.825  1.4611 -1.8843  1.0894
 1115TIP3   OH224759   4.143   5.818   5.647 -0.0948 -0.6294 -0.6190
 1115TIP3    H124760   4.121   5.766   5.570  2.1422  0.1626 -1.9048
 1115TIP3    H224761   4.148   5.754   5.719 -1.8221 -1.4422 -1.1871
 1116TIP3   OH224762   6.585   6.107  12.529  0.3563  0.6596 -0.2217
 1116TIP3    H124763   6.663   6.079  12.577 -0.7847 -0.1953  1.2403
 1116TIP3    H224764   6.576   6.200  12.550  1.1668  0.8496 -0.6922
 1117TIP3   OH224765   4.848   1.076   0.982 -0.7512  0.3504 -0.5037
 1117TIP3    H124766   4.772   1.132   0.968 -0.9473  0.4988  0.9341
 1117TIP3    H224767   4.811   0.991   1.006 -0.6046  1.0302  2.6343
 1118TIP3   OH224768   2.246   1.594   4.020 -0.1503 -0.1168 -0.8164
 1118TIP3    H124769   2.317   1.531   4.009  0.4641  0.4938 -0.3283
 1118TIP3    H224770   2.187   1.552   4.083  0.8347  0.2812  0.4035
 1119TIP3   OH224771   6.787   4.984  13.024  0.2191 -0.0183 -0.5948
 1119TIP3    H124772   6.801   5.004  13.116 -1.9288  1.1870 -0.4715
 1119TIP3    H224773   6.718   4.917  13.024 -0.7890  0.9880 -1.3253
 1120TIP3   OH224774   4.807   1.433   6.731  0.3314  0.2405  0.2349
 1120TIP3    H124775   4.772   1.515   6.698 -1.3432 -0.5900 -0.1572
 1120TIP3    H224776   4.886   1.418   6.678 -0.0083  0.9878 -0.5037
 1121TIP3   OH224777   0.911   5.685   4.153 -0.4430  0.0253 -0.0968
 1121TIP3    H124778   0.827   5.643   4.131 -0.8605  0.1212  1.2126
 1121TIP3    H224779   0.910   5.691   4.249  1.6745 -1.2236  0.0494
 1122TIP3   OH224780   3.802   2.788  11.517  0.1073  0.2982  0.1104
 1122TIP3    H124781   3.738   2.718  11.502  1.9738 -1.2655 -0.9642
 1122TIP3    H224782   3.830   2.777  11.607 -1.9493  1.7885  1.0213
 1123TIP3   OH224783   1.278   1.581   0.913  0.1380 -0.0931  0.7042
 1123TIP3    H124784   1.199   1.579   0.859  0.8768  0.1230 -0.4094
 1123TIP3    H224785   1.349   1.555   0.854  0.8186 -0.9958  1.8611
 1124TIP3   OH224786   3.436   0.945  16.580 -0.0227 -0.5942  0.0860
 1124TIP3    H124787   3.434   0.888  16.657  0.7461  2.4177  2.5510
 1124TIP3    H224788   3.355   0.995  16.585  1.3422  1.7105  0.7687
 1125TIP3   OH224789   5.217   0.574  15.670  0.1113  0.0943  0.5560
 1125TIP3    H124790   5.231   0.528  15.588 -0.6001  1.7599 -0.5487
 1125TIP3    H224791   5.303   0.579  15.710  0.7950  0.7868 -0.9414
 1126TIP3   OH224792   1.786   6.084   4.150 -0.1270  0.0092  0.3828
 1126TIP3    H124793   1.824   6.137   4.221 -0.3954 -0.4702  0.8945
 1126TIP3    H224794   1.857   6.028   4.121 -0.4064 -0.8564  1.3106
 1127TIP3   OH224795   3.892   2.686  14.333 -0.4196  0.2625  0.0218
 1127TIP3    H124796   3.899   2.611  14.274  2.3311  0.0840  0.4494
 1127TIP3    H224797   3.928   2.654  14.416 -0.3623  1.6949  0.5713
 1128TIP3   OH224798   1.853   2.958   1.370 -0.1363  0.2701 -0.1540
 1128TIP3    H124799   1.876   2.933   1.460  0.1361 -0.7514 -0.5004
 1128TIP3    H224800   1.879   3.050   1.364  1.0377 -0.0033  0.4254
 1129TIP3   OH224801   2.817   4.321   1.825 -0.1305 -0.2195  0.2387
 1129TIP3    H124802   2.817   4.245   1.767 -0.9388 -0.6731  0.8198
 1129TIP3    H224803   2.801   4.395   1.767  0.1081 -0.5519 -0.2592
 1130TIP3   OH224804   0.717   4.394  12.151  0.2323  0.1048  0.3846
 1130TIP3    H124805   0.632   4.390  12.108 -0.4140  2.3337  1.3139
 1130TIP3    H224806   0.710   4.333  12.225 -1.0357  1.1215  1.1535
 1131TIP3   OH224807   1.803   0.968  11.935 -0.0731  0.6084  0.2047
 1131TIP3    H124808   1.717   0.971  11.976  0.0923  0.5491  0.5616
 1131TIP3    H224809   1.786   0.944  11.845 -0.3183 -0.8849  0.6243
 1132TIP3   OH224810   2.639   0.505   1.128  0.5090  0.2543 -0.6163
 1132TIP3    H124811   2.642   0.459   1.212  0.4295  0.2723 -0.6041
 1132TIP3    H224812   2.650   0.597   1.151 -1.9448  0.5498 -0.3880
 1133TIP3   OH224813   6.433   0.111   1.238  0.6019  0.0579  0.0210
 1133TIP3    H124814   6.338   0.106   1.227  0.5146  1.0687  0.2101
 1133TIP3    H224815   6.466   0.135   1.152  0.9306 -2.4765 -0.6463
 1134TIP3   OH224816   1.299   5.446   0.232  0.1706 -0.5995 -0.2895
 1134TIP3    H124817   1.340   5.372   0.187  0.5173 -1.6529  1.6575
 1134TIP3    H224818   1.214   5.456   0.188  0.7040 -1.2035 -1.5193
 1135TIP3   OH224819   5.087   2.931  13.076  0.3479  0.3057 -0.0797
 1135TIP3    H124820   5.153   2.864  13.060 -0.2585 -0.7270  1.4531
 1135TIP3    H224821   5.120   3.008  13.031  1.7846 -0.6183 -0.7031
 1136TIP3   OH224822   1.994   2.868  15.584  0.1153  0.4649 -0.1457
 1136TIP3    H124823   1.934   2.940  15.568  1.5213  1.7740  0.2769
 1136TIP3    H224824   1.960   2.825  15.663 -1.1490  0.1765 -0.8326
 1137TIP3   OH224825   4.316   2.075  13.627  0.5477  0.5624  0.1211
 1137TIP3    H124826   4.356   2.040  13.547  0.0120  1.0855 -0.3877
 1137TIP3    H224827   4.270   2.153  13.598  0.9775  1.1913  1.0870
 1138TIP3   OH224828   1.222   3.206   2.486 -0.2544  0.6927 -0.0346
 1138TIP3    H124829   1.215   3.271   2.556  0.7516 -0.8785  1.6388
 1138TIP3    H224830   1.316   3.190   2.478 -0.4928 -0.9099 -0.0147
 1139TIP3   OH224831   0.540   1.399   5.427  0.3631  0.1900 -0.3894
 1139TIP3    H124832   0.517   1.358   5.510  0.1163 -0.1661 -0.6332
 1139TIP3    H224833   0.635   1.389   5.421  0.2967 -0.4086 -0.4776
 1140TIP3   OH224834   4.055   0.272   3.759  0.4166  0.1140  0.8804
 1140TIP3    H124835   4.101   0.346   3.799  2.6297 -0.4199 -0.5217
 1140TIP3    H224836   4.085   0.271   3.668 -2.9819  0.1451 -0.3999
 1141TIP3   OH224837   2.200   1.931  14.344 -0.1215 -0.2902 -0.0928
 1141TIP3    H124838   2.274   1.969  14.297  0.6331 -0.4667  0.9126
 1141TIP3    H224839   2.159   1.872  14.281  0.6668 -0.2799 -0.6258
 1142TIP3   OH224840   0.951   1.620   2.229 -0.0976 -0.1675 -0.0170
 1142TIP3    H124841   0.967   1.590   2.318  1.1039 -1.0344 -0.4968
 1142TIP3    H224842   1.031   1.599   2.182 -0.1407  1.6403 -0.9660
 1143TIP3   OH224843   6.395   3.971  12.077 -0.6805 -0.0638  0.3780
 1143TIP3    H124844   6.465   3.948  12.138  0.1668  1.8750  0.2004
 1143TIP3    H224845   6.413   3.920  11.998 -0.9103 -1.4222  1.1649
 1144TIP3   OH224846   0.232   3.547  15.454  0.6783 -0.7826  0.1434
 1144TIP3    H124847   0.293   3.593  15.511 -0.1343  2.2134 -1.2197
 1144TIP3    H224848   0.240   3.590  15.369 -1.5471 -1.9107 -0.7376
 1145TIP3   OH224849   3.770   1.107   3.306  0.4446  0.3232  0.2349
 1145TIP3    H124850   3.849   1.142   3.265  0.4340 -0.7378 -0.7285
 1145TIP3    H224851   3.731   1.182   3.350  2.8514  0.5516  2.1866
 1146TIP3   OH224852   5.387   0.240  14.186 -0.0549  0.1834 -0.3847
 1146TIP3    H124853   5.449   0.186  14.234 -1.0582 -0.2707  0.4536
 1146TIP3    H224854   5.384   0.322  14.236 -0.3190  0.1054 -0.2711
 1147TIP3   OH224855   2.301   2.733  16.137 -0.4258 -0.1676  0.3798
 1147TIP3    H124856   2.251   2.656  16.163 -1.4825  0.4660  0.2859
 1147TIP3    H224857   2.302   2.729  16.041 -1.6854  0.6506  0.3116
 1148TIP3   OH224858   2.005   3.768   2.811 -0.5661 -0.2035  0.9534
 1148TIP3    H124859   1.936   3.768   2.745 -1.4980  0.2368  1.8935
 1148TIP3    H224860   2.086   3.785   2.762 -0.8249 -2.5548 -0.4294
 1149TIP3   OH224861   4.419   1.544  15.758  0.1708 -0.0864 -0.8400
 1149TIP3    H124862   4.487   1.567  15.821  0.2017  0.7593 -1.1663
 1149TIP3    H224863   4.347   1.512  15.811  0.7190 -0.7352 -0.4743
 1150TIP3   OH224864   4.060   5.171   1.416 -0.2144  0.5978  0.3629
 1150TIP3    H124865   4.007   5.137   1.345 -0.2919 -0.8850  1.0830
 1150TIP3    H224866   4.115   5.238   1.376  0.3068 -0.7417 -1.2702
 1151TIP3   OH224867   6.082   5.912   5.597 -0.3192 -0.2840 -0.1101
 1151TIP3    H124868   6.078   5.826   5.556 -1.7354 -0.1074 -0.4038
 1151TIP3    H224869   6.003   5.957   5.566 -0.1972  0.7090  0.9437
 1152TIP3   OH224870   2.791   1.411   0.361  0.3790  0.0381 -0.4216
 1152TIP3    H124871   2.761   1.403   0.451  0.4350 -1.0940 -0.4894
 1152TIP3    H224872   2.868   1.468   0.366  0.8475 -0.6328  0.3593
 1153TIP3   OH224873   6.374   3.886  13.025 -0.5461 -0.1540  0.0873
 1153TIP3    H124874   6.363   3.791  13.021  0.4591 -0.2819  0.1332
 1153TIP3    H224875   6.386   3.905  13.118 -0.6744  0.0100  0.0719
 1154TIP3   OH224876   4.456   4.410  11.490  0.1312  0.4676  0.0458
 1154TIP3    H124877   4.394   4.337  11.493  0.3622  0.2174 -0.9942
 1154TIP3    H224878   4.528   4.382  11.546 -0.2592  0.3458  0.4908
 1155TIP3   OH224879   1.094   6.707  15.496 -0.1625 -0.0694 -0.4906
 1155TIP3    H124880   1.072   6.615  15.484  2.6427 -0.8164 -0.6642
 1155TIP3    H224881   1.026   6.755  15.449 -0.7649 -2.1241 -1.8491
 1156TIP3   OH224882   1.111   4.162  16.431  0.1833  0.3648  0.0694
 1156TIP3    H124883   1.133   4.168  16.338  0.5432  0.6393  0.1703
 1156TIP3    H224884   1.026   4.119  16.433  0.7060 -0.7002 -0.3204
 1157TIP3   OH224885   5.881   4.379   0.251  0.2499 -0.0747  0.3187
 1157TIP3    H124886   5.910   4.340   0.169 -1.5300 -0.9813  0.0683
 1157TIP3    H224887   5.867   4.304   0.309 -2.4331  0.1465  0.0966
 1158TIP3   OH224888   6.042   0.734   2.704 -0.0709 -0.3949  0.1605
 1158TIP3    H124889   6.017   0.716   2.794  0.1939  0.5268  0.4264
 1158TIP3    H224890   6.106   0.666   2.683 -1.5454 -1.7988  0.0055
 1159TIP3   OH224891   5.856   1.132   3.311 -0.2867  0.0277 -0.2774
 1159TIP3    H124892   5.936   1.104   3.265 -0.1392 -0.6021  0.3394
 1159TIP3    H224893   5.879   1.127   3.404 -0.3171  2.0752 -0.1235
 1160TIP3   OH224894   4.237   2.953   3.500  0.4746 -0.3996  0.1567
 1160TIP3    H124895   4.246   2.939   3.406  1.2264  2.0192 -0.2053
 1160TIP3    H224896   4.300   3.023   3.520 -0.6600  0.1211  2.1833
 1161TIP3   OH224897   0.787   6.601  12.523 -0.1306 -0.2957  0.0584
 1161TIP3    H124898   0.757   6.654  12.597 -1.4527 -2.1865  0.9682
 1161TIP3    H224899   0.816   6.665  12.458 -1.7060  1.5456  1.0474
 1162TIP3   OH224900   0.219   2.056   3.715  0.2129 -0.1543 -0.5754
 1162TIP3    H124901   0.135   2.069   3.670 -1.2172 -2.2553  1.2580
 1162TIP3    H224902   0.283   2.045   3.644 -1.2814  0.1766 -2.0387
 1163TIP3   OH224903   2.457   0.655   3.277  0.0764  0.0549 -0.2233
 1163TIP3    H124904   2.366   0.645   3.248 -0.2986  0.2625  0.8534
 1163TIP3    H224905   2.453   0.717   3.350  1.0218 -0.2657  0.1180
 1164TIP3   OH224906   0.015   6.501  13.032 -0.3553 -0.0060 -0.3501
 1164TIP3    H124907   0.070   6.564  13.079  2.3000 -0.8053 -2.1414
 1164TIP3    H224908   0.017   6.422  13.086 -0.8055  0.3572  0.2062
 1165TIP3   OH224909   4.288   4.366   3.498 -0.2908 -0.0011  0.0750
 1165TIP3    H124910   4.341   4.334   3.571 -1.0563  0.1713  0.7229
 1165TIP3    H224911   4.295   4.462   3.504 -0.7077  0.0231  0.1915
 1166TIP3   OH224912   1.006   1.757   5.653 -0.3157 -0.5040 -0.1865
 1166TIP3    H124913   1.078   1.699   5.628 -0.8832 -0.1786 -2.8787
 1166TIP3    H224914   0.937   1.697   5.682 -0.1789 -1.0541 -0.9595
 1167TIP3   OH224915   5.356   0.922   0.984 -0.3048  0.0846  0.3786
 1167TIP3    H124916   5.420   0.977   1.030  0.8238 -1.3019  0.5222
 1167TIP3    H224917   5.271   0.952   1.018  0.2458  1.7593  0.4066
 1168TIP3   OH224918   0.726   5.080  14.701 -0.2376  0.2284 -0.1129
 1168TIP3    H124919   0.697   5.157  14.653  0.5342 -0.1808 -1.2773
 1168TIP3    H224920   0.741   5.112  14.790 -0.7641  1.2180 -0.3616
 1169TIP3   OH224921   5.212   6.499  12.182 -0.2032 -0.1187 -0.5551
 1169TIP3    H124922   5.270   6.494  12.106 -1.1692 -1.8628 -1.2569
 1169TIP3    H224923   5.260   6.454  12.252  1.0910  2.3079  0.2395
 1170TIP3   OH224924   2.211   2.165  13.395 -0.4085  0.0856  0.2631
 1170TIP3    H124925   2.176   2.085  13.434  0.4931 -0.6123 -0.3321
 1170TIP3    H224926   2.167   2.172  13.310 -1.9664  1.3150  1.1142
 1171TIP3   OH224927   0.759   2.839   2.027  0.2384 -0.3561  0.0787
 1171TIP3    H124928   0.841   2.887   2.032 -0.1301  0.1779  1.4878
 1171TIP3    H224929   0.781   2.757   1.981  1.6001 -0.3423  0.6730
 1172TIP3   OH224930   0.680   5.595   4.368 -0.4585  0.0332 -0.3399
 1172TIP3    H124931   0.602   5.564   4.323 -1.1214 -0.4071  1.0416
 1172TIP3    H224932   0.740   5.521   4.366 -0.1386  0.3067 -1.2316
 1173TIP3   OH224933   6.759   1.027   5.384 -0.4005 -0.9476 -0.5286
 1173TIP3    H124934   6.709   1.106   5.407  0.3744 -0.2825 -1.0926
 1173TIP3    H224935   6.829   1.058   5.327  1.2203 -1.7148  0.9572
 1174TIP3   OH224936   5.943   6.375  12.961 -0.0838 -0.3207  0.3256
 1174TIP3    H124937   5.888   6.304  12.994 -1.4257  0.7586  0.4964
 1174TIP3    H224938   6.007   6.390  13.031  0.4243 -1.5470  0.1517
 1175TIP3   OH224939   2.028   3.140  16.831  0.0230  0.3539 -0.1672
 1175TIP3    H124940   2.073   3.192  16.764 -0.6412  0.8305 -0.2565
 1175TIP3    H224941   2.062   3.051  16.820  0.1946  0.5040 -0.8865
 1176TIP3   OH224942   3.265   0.152   6.668  0.0544  0.2127  0.5325
 1176TIP3    H124943   3.336   0.120   6.611  1.7088  1.2782  1.9059
 1176TIP3    H224944   3.256   0.085   6.735  2.1449  1.5510  2.2662
 1177TIP3   OH224945   3.915   5.776  13.198 -0.2750 -0.0752  0.4483
 1177TIP3    H124946   3.955   5.701  13.242 -0.9319  0.1401  1.4395
 1177TIP3    H224947   3.910   5.844  13.265 -2.5938 -0.1963  0.4871
 1178TIP3   OH224948   6.055   4.049  11.738 -0.2183 -0.2492  0.1596
 1178TIP3    H124949   6.075   4.075  11.828 -1.8648  1.7848  0.0278
 1178TIP3    H224950   6.059   4.132  11.689 -1.9433 -0.8579 -1.1039
 1179TIP3   OH224951   5.918   6.495   2.565  0.1683  0.1169  0.0862
 1179TIP3    H124952   5.926   6.426   2.631  0.8659 -1.7627 -1.8273
 1179TIP3    H224953   5.832   6.533   2.580 -0.7557 -1.9951  0.5083
 1180TIP3   OH224954   0.231   4.518   2.621  0.4051 -0.3579  0.6050
 1180TIP3    H124955   0.203   4.500   2.711  4.2807 -0.9009  1.8902
 1180TIP3    H224956   0.225   4.433   2.578  1.2610 -0.7647  1.2518
 1181TIP3   OH224957   0.419   1.452  13.914  0.3669  0.3178  0.3440
 1181TIP3    H124958   0.328   1.444  13.884  0.5793 -1.3631  0.0765
 1181TIP3    H224959   0.411   1.486  14.004 -0.5336  0.1182  0.3509
 1182TIP3   OH224960   4.908   5.003   6.532  0.4154  0.6295  0.0101
 1182TIP3    H124961   4.908   4.941   6.605  1.3006  0.4098 -0.1638
 1182TIP3    H224962   4.849   4.964   6.467 -1.0564  1.2397  0.9282
 1183TIP3   OH224963   5.480   5.327  14.845  0.0106 -0.1929 -0.0306
 1183TIP3    H124964   5.536   5.405  14.843  1.0642 -0.8549  1.3700
 1183TIP3    H224965   5.526   5.263  14.792  1.3440 -1.1558  2.1425
 1184TIP3   OH224966   3.876   3.113  13.217  0.1220 -0.5973  0.5506
 1184TIP3    H124967   3.897   3.052  13.146  0.4552 -1.0964  1.0758
 1184TIP3    H224968   3.806   3.167  13.181  1.7623  0.6247 -0.9661
 1185TIP3   OH224969   6.612   6.509   5.924  0.2033  0.1860 -0.2602
 1185TIP3    H124970   6.521   6.516   5.897 -0.0629  2.7468  1.0266
 1185TIP3    H224971   6.608   6.481   6.015  0.6693  0.4582 -0.1523
 1186TIP3   OH224972   3.705   1.767   2.259 -0.0388  0.2239  0.7412
 1186TIP3    H124973   3.743   1.837   2.313  0.3903  1.7229 -1.3730
 1186TIP3    H224974   3.674   1.702   2.322 -0.8859  2.5176  2.8586
 1187TIP3   OH224975   6.504   4.736   6.247 -0.1521 -0.3247 -0.2212
 1187TIP3    H124976   6.541   4.786   6.320  0.8054 -0.3994 -0.6398
 1187TIP3    H224977   6.521   4.791   6.170 -1.6097 -0.0061 -0.3417
 1188TIP3   OH224978   0.230   4.054   5.085 -0.3225 -0.1180  0.3439
 1188TIP3    H124979   0.205   4.134   5.132 -1.7170 -1.0530  1.2767
 1188TIP3    H224980   0.168   4.048   5.013 -0.0399 -0.2294  0.1080
 1189TIP3   OH224981   5.000   0.466  11.591 -0.2588 -0.2920  0.0659
 1189TIP3    H124982   4.924   0.480  11.534 -1.2382 -0.9048  1.1765
 1189TIP3    H224983   4.962   0.448  11.677  1.1823  1.7601  1.2181
 1190TIP3   OH224984   4.927   6.744   0.638  0.1373  0.4079  0.3269
 1190TIP3    H124985   4.850   6.789   0.604  1.5255  1.0659 -2.1588
 1190TIP3    H224986   4.996   6.810   0.639  1.6141 -1.0266 -1.1163
 1191TIP3   OH224987   2.788   1.511  12.793 -0.4628 -0.6310  0.0416
 1191TIP3    H124988   2.734   1.580  12.832 -0.0212 -1.1858  1.7267
 1191TIP3    H224989   2.875   1.549  12.789 -0.5806 -0.4311 -0.8457
 1192TIP3   OH224990   1.332   1.820   1.696 -0.2253 -0.6107  0.4803
 1192TIP3    H124991   1.348   1.894   1.637  0.2444 -1.0629  0.0361
 1192TIP3    H224992   1.237   1.813   1.701 -0.2755  0.0038  0.5015
 1193TIP3   OH224993   4.526   0.419  17.079 -0.1804  0.1147  0.1918
 1193TIP3    H124994   4.454   0.436  17.019 -0.2562 -1.5948 -0.2253
 1193TIP3    H224995   4.597   0.387  17.024 -0.0755 -0.9714  0.9195
 1194TIP3   OH224996   3.038   1.232  11.920  0.2307  0.6191 -0.2584
 1194TIP3    H124997   3.017   1.141  11.941 -1.2645  0.6095 -1.6177
 1194TIP3    H224998   3.035   1.277  12.004  0.8607 -0.5361  0.4174
 1195TIP3   OH224999   0.142   6.229  15.849 -0.2277 -0.3196  0.4079
 1195TIP3    H125000   0.134   6.320  15.876 -2.2463 -0.0512 -0.8512
 1195TIP3    H225001   0.195   6.231  15.770  2.4018 -0.6626  2.0655
 1196TIP3   OH225002   6.322   0.583  14.100 -0.1803  0.3367  0.1885
 1196TIP3    H125003   6.240   0.535  14.110 -1.1467  1.5722 -1.3479
 1196TIP3    H225004   6.337   0.622  14.186 -0.3063 -1.2098  0.9477
 1197TIP3   OH225005   0.886   5.339   3.800 -0.3076 -0.0099 -0.3441
 1197TIP3    H125006   0.855   5.270   3.741  0.3815 -0.3070 -0.3696
 1197TIP3    H225007   0.981   5.328   3.801 -0.1705  1.0836 -0.5309
 1198TIP3   OH225008   2.848   1.941   0.937  0.1233  0.1685  0.2961
 1198TIP3    H125009   2.757   1.935   0.910  0.2123  0.3314 -0.0417
 1198TIP3    H225010   2.854   2.025   0.983  0.1380  0.2255  0.1888
 1199TIP3   OH225011   3.063   3.219  15.471 -0.1967  0.1675 -0.5356
 1199TIP3    H125012   3.135   3.263  15.516 -1.5666  0.9052  1.0401
 1199TIP3    H225013   3.059   3.132  15.510  1.1174 -0.6495 -2.1071
 1200TIP3   OH225014   5.165   5.731  15.102 -0.2064  0.5639  0.3965
 1200TIP3    H125015   5.197   5.712  15.014 -0.7723 -0.1082  0.3288
 1200TIP3    H225016   5.169   5.827  15.109 -0.2078  0.6245 -0.3783
 1201TIP3   OH225017   1.211   3.380  12.079  0.4420 -0.2072  0.9146
 1201TIP3    H125018   1.259   3.379  12.162  0.2655 -1.5045  1.0117
 1201TIP3    H225019   1.151   3.306  12.084  0.3124 -0.2114 -0.3020
 1202TIP3   OH225020   1.815   4.613   0.634 -0.6441 -0.0755  0.1228
 1202TIP3    H125021   1.860   4.528   0.625  0.1502  0.3885 -0.4126
 1202TIP3    H225022   1.840   4.643   0.721  1.4881  0.9302 -0.7620
 1203TIP3   OH225023   3.378   2.806  16.193  0.3509  0.0082 -0.4449
 1203TIP3    H125024   3.350   2.726  16.236  1.9402  0.0284  0.6826
 1203TIP3    H225025   3.382   2.783  16.100 -1.5570 -0.4872 -0.4449
 1204TIP3   OH225026   5.209   0.590   6.502  0.6531 -0.1234  0.2199
 1204TIP3    H125027   5.153   0.662   6.533  2.0006  0.1904  2.1053
 1204TIP3    H225028   5.298   0.622   6.515  1.2872 -1.3517 -0.9136
 1205TIP3   OH225029   1.998   1.255  14.617  0.4098 -0.5117 -0.2329
 1205TIP3    H125030   2.089   1.251  14.586  0.3418 -0.5816 -0.4300
 1205TIP3    H225031   1.981   1.169  14.653  0.1344 -0.8046 -1.0350
 1206TIP3   OH225032   2.001   6.152   0.557 -0.4006 -0.0307 -0.0786
 1206TIP3    H125033   1.912   6.129   0.528 -0.3102 -0.8818  0.2806
 1206TIP3    H225034   2.055   6.140   0.479 -0.5483  0.1736 -0.2148
 1207TIP3   OH225035   1.584   0.029   3.625 -0.6925 -0.4029 -0.0237
 1207TIP3    H125036   1.636  -0.050   3.635  1.0669  0.0372 -4.0142
 1207TIP3    H225037   1.631   0.096   3.675 -0.4729 -1.1548  0.7999
 1208TIP3   OH225038   6.487   1.654  14.507 -0.0257  0.0119 -0.0956
 1208TIP3    H125039   6.468   1.609  14.425 -1.9832 -0.8849  0.7756
 1208TIP3    H225040   6.569   1.699  14.491  0.4321 -1.3680 -2.0400
 1209TIP3   OH225041   1.790   2.754   3.851 -0.6867  0.0002  0.3028
 1209TIP3    H125042   1.880   2.738   3.824 -0.1978  1.2092  1.1573
 1209TIP3    H225043   1.742   2.763   3.769  0.5171  2.2420 -0.2304
 1210TIP3   OH225044   4.001   6.209   4.265  0.4492  0.3119 -0.7848
 1210TIP3    H125045   4.004   6.161   4.183 -0.4296 -0.1841 -0.5283
 1210TIP3    H225046   3.915   6.251   4.266  0.4883  0.3864 -0.1535
 1211TIP3   OH225047   5.660   0.738   4.448 -0.5250 -0.2820 -0.2141
 1211TIP3    H125048   5.589   0.698   4.398  0.1944 -1.0321 -0.6722
 1211TIP3    H225049   5.739   0.719   4.397  0.0876 -0.0777  0.6330
 1212TIP3   OH225050   1.227   3.925   5.972 -0.1525 -0.0114 -0.1113
 1212TIP3    H125051   1.282   3.957   6.044 -0.0456  1.2256 -0.7033
 1212TIP3    H225052   1.191   3.842   6.004  3.5489 -1.9361 -0.4188
 1213TIP3   OH225053   1.491   5.442  14.296 -0.1640 -0.6072 -0.0786
 1213TIP3    H125054   1.587   5.452  14.295 -0.1875 -0.2044  0.6783
 1213TIP3    H225055   1.478   5.347  14.299  0.1674 -0.7378 -1.7512
 1214TIP3   OH225056   1.782   5.453   1.908  0.7420 -0.3039 -0.0363
 1214TIP3    H125057   1.726   5.456   1.830 -0.3530 -0.0776  0.7261
 1214TIP3    H225058   1.752   5.375   1.955 -1.4142  1.6287  2.1071
 1215TIP3   OH225059   2.027   3.413  15.467 -0.6495  0.4488  0.4037
 1215TIP3    H125060   2.063   3.328  15.442 -0.0751 -0.0703  2.7383
 1215TIP3    H225061   2.078   3.477  15.418  1.6518 -0.4027  1.5408
 1216TIP3   OH225062   0.378   5.607  15.316  0.9679 -0.3860 -0.0847
 1216TIP3    H125063   0.307   5.566  15.266  1.3573 -1.3248  0.1120
 1216TIP3    H225064   0.378   5.561  15.400 -0.7274  2.2162  1.5068
 1217TIP3   OH225065   1.633   3.073   0.652 -0.2933  0.1050 -0.2428
 1217TIP3    H125066   1.549   3.117   0.663  0.0630  0.1998  3.3898
 1217TIP3    H225067   1.693   3.123   0.707  2.1418 -0.1449 -2.4949
 1218TIP3   OH225068   4.979   4.511  15.954  0.2228 -0.3553 -0.5966
 1218TIP3    H125069   4.938   4.441  16.005 -0.9400 -0.3515 -1.4849
 1218TIP3    H225070   5.003   4.577  16.019  0.7770 -1.2877  0.1816
 1219TIP3   OH225071   2.803   1.172   4.072 -0.1102 -0.5652 -0.2776
 1219TIP3    H125072   2.756   1.218   4.002  0.0300 -2.2664 -1.5258
 1219TIP3    H225073   2.739   1.168   4.144 -0.4530  0.6929 -0.4748
 1220TIP3   OH225074   3.383   4.044  14.219  0.2583 -0.0466  0.1469
 1220TIP3    H125075   3.448   4.105  14.183 -0.6430  0.8033 -0.0648
 1220TIP3    H225076   3.365   3.983  14.147  0.4031  0.0554  0.0225
 1221TIP3   OH225077   2.159   5.135  11.638 -0.7100 -0.3515  0.5108
 1221TIP3    H125078   2.091   5.191  11.600 -0.1827  0.3088  0.5116
 1221TIP3    H225079   2.158   5.056  11.584 -1.2935 -0.2416  0.3488
 1222TIP3   OH225080   3.791   1.174   0.870 -0.5448 -0.0103 -0.2826
 1222TIP3    H125081   3.801   1.196   0.777 -1.8218 -0.7204 -0.6107
 1222TIP3    H225082   3.774   1.258   0.912 -0.6839  0.2326 -0.8098
 1223TIP3   OH225083   5.104   3.405  16.598  0.2118  0.5126 -0.5128
 1223TIP3    H125084   5.099   3.361  16.683  0.4347  1.1240 -0.1778
 1223TIP3    H225085   5.171   3.356  16.550  0.3784  0.4156 -0.1855
 1224TIP3   OH225086   2.691   2.627  13.266 -0.3339 -0.4500  0.1755
 1224TIP3    H125087   2.699   2.707  13.214  1.0205  0.3301  1.4819
 1224TIP3    H225088   2.629   2.650  13.335 -0.9962 -0.9852 -0.2413
 1225TIP3   OH225089   1.094   0.874   6.089 -0.2084 -0.2080 -0.1638
 1225TIP3    H125090   1.162   0.848   6.152  0.4508  0.5443 -0.5471
 1225TIP3    H225091   1.137   0.938   6.033 -1.1375  0.0033 -0.6495
 1226TIP3   OH225092   3.875   4.091  16.787  0.2235 -0.4013 -0.3066
 1226TIP3    H125093   3.848   4.071  16.697  2.9845  1.3762 -1.6707
 1226TIP3    H225094   3.929   4.016  16.812  1.5554  0.2445 -1.1630
 1227TIP3   OH225095   5.030   6.393   6.012 -0.4131  0.2077  0.0098
 1227TIP3    H125096   5.022   6.400   6.107  0.2385 -0.8907  0.1691
 1227TIP3    H225097   4.995   6.476   5.979  0.2356  1.0076  1.2395
 1228TIP3   OH225098   1.559   3.822   3.376  0.0869  0.1092  0.4147
 1228TIP3    H125099   1.475   3.779   3.357  1.1651 -1.9533  0.0822
 1228TIP3    H225100   1.554   3.846   3.468 -0.1853 -1.6645  0.8889
 1229TIP3   OH225101   3.372   0.766   4.003  0.5901 -0.1717 -0.4356
 1229TIP3    H125102   3.422   0.708   3.946 -0.2169 -0.5385 -0.7902
 1229TIP3    H225103   3.329   0.827   3.943  0.3348 -0.0825 -0.1632
 1230TIP3   OH225104   6.000   2.635  15.026  0.0178  0.0558 -0.7618
 1230TIP3    H125105   6.064   2.612  14.959  1.1997  0.2379  0.2715
 1230TIP3    H225106   5.922   2.661  14.976  1.0108  0.6529 -2.0767
 1231TIP3   OH225107   5.394   2.706  13.244 -0.6254 -0.0570 -1.1460
 1231TIP3    H125108   5.418   2.650  13.318  1.4524  0.0926 -1.6373
 1231TIP3    H225109   5.324   2.659  13.200 -1.0965 -0.7082  0.2299
 1232TIP3   OH225110   1.592   6.514   2.015 -0.3474 -0.1526  0.1971
 1232TIP3    H125111   1.649   6.579   2.057 -1.6381  0.6696  0.7402
 1232TIP3    H225112   1.637   6.431   2.028 -0.0463  0.2536  2.0752
 1233TIP3   OH225113   0.783   0.011  14.593  0.1513 -0.3797  0.4535
 1233TIP3    H125114   0.736  -0.056  14.544  1.9931 -0.5168 -1.2619
 1233TIP3    H225115   0.742   0.093  14.565  1.7574 -0.3560 -2.2656
 1234TIP3   OH225116   2.308   1.795   4.638  0.2320  0.2111 -0.6091
 1234TIP3    H125117   2.372   1.810   4.707 -0.0885  1.2610 -0.5233
 1234TIP3    H225118   2.232   1.849   4.663  0.0225  0.4236 -1.6464
 1235TIP3   OH225119   3.950   6.428  12.930  0.3859  0.8142  0.4581
 1235TIP3    H125120   3.991   6.368  12.868 -1.7237  1.2974 -1.5188
 1235TIP3    H225121   4.005   6.507  12.926  1.2102  0.2615  0.5059
 1236TIP3   OH225122   3.758   0.993  16.239 -0.5569 -0.2297  0.4095
 1236TIP3    H125123   3.799   0.989  16.153  1.0027  0.4373  1.0730
 1236TIP3    H225124   3.714   1.078  16.242 -0.3512 -0.1227  0.3816
 1237TIP3   OH225125   5.068   3.076  14.161 -0.0255 -0.1765  1.0972
 1237TIP3    H125126   5.161   3.100  14.159  0.1573 -0.8590  0.2001
 1237TIP3    H225127   5.057   3.018  14.085 -1.5993  1.3712  0.0640
 1238TIP3   OH225128   0.115   2.472   5.199 -0.1450 -0.1084 -0.7392
 1238TIP3    H125129   0.192   2.529   5.192  1.5708 -1.8364  1.9104
 1238TIP3    H225130   0.058   2.516   5.261  0.7507 -0.7496  0.5868
 1239TIP3   OH225131   1.881   4.200   4.289  0.0860  0.1240 -0.4024
 1239TIP3    H125132   1.893   4.280   4.237 -0.5707  0.5395  0.0684
 1239TIP3    H225133   1.787   4.185   4.288  0.1639 -0.3863 -0.0949
 1240TIP3   OH225134   0.234   6.579   6.478 -0.1256 -0.6579 -0.2003
 1240TIP3    H125135   0.289   6.517   6.526 -0.8929 -1.3291 -0.1459
 1240TIP3    H225136   0.151   6.531   6.465 -1.2414  0.8398  1.0261
 1241TIP3   OH225137   0.189   0.762   4.273 -0.4207 -0.2865  0.1612
 1241TIP3    H125138   0.154   0.825   4.336 -2.5854  0.4675 -1.6793
 1241TIP3    H225139   0.284   0.774   4.278 -0.7054  2.5866  0.4454
 1242TIP3   OH225140   3.505   0.364  15.835 -0.8826  0.1120  0.0965
 1242TIP3    H125141   3.412   0.381  15.822 -1.1717 -0.3972  1.3864
 1242TIP3    H225142   3.533   0.431  15.898 -0.5365 -0.1379  0.2113
 1243TIP3   OH225143   3.762   5.941  16.012  0.2719  0.2041 -0.3469
 1243TIP3    H125144   3.810   6.006  16.063  1.8681 -0.3972 -1.0227
 1243TIP3    H225145   3.685   5.920  16.066  0.9966  0.8681  0.9946
 1244TIP3   OH225146   4.086   4.156   6.562 -0.3574 -0.3647  0.8837
 1244TIP3    H125147   4.081   4.062   6.544 -1.5386 -0.8830  3.4460
 1244TIP3    H225148   3.996   4.186   6.559 -0.2019  0.2638  2.0148
 1245TIP3   OH225149   2.705   6.405  11.689 -0.0443  0.2758  0.6132
 1245TIP3    H125150   2.765   6.332  11.705  1.7488  1.4538 -0.3305
 1245TIP3    H225151   2.633   6.367  11.639  1.5167 -0.6469 -1.0457
 1246TIP3   OH225152   3.570   6.430   0.456 -0.3942 -0.0391 -0.7889
 1246TIP3    H125153   3.533   6.511   0.420 -0.4273  0.5666  0.5487
 1246TIP3    H225154   3.642   6.459   0.512 -0.8843 -0.8688  0.3143
 1247TIP3   OH225155   5.552   6.674  16.731 -0.1842  0.0693 -0.1684
 1247TIP3    H125156   5.624   6.647  16.674  0.5909 -1.2930  1.3791
 1247TIP3    H225157   5.478   6.687  16.671  0.6181 -1.2060 -1.4971
 1248TIP3   OH225158   2.312   3.188   5.189 -0.1179  0.4316 -0.5733
 1248TIP3    H125159   2.218   3.175   5.204  0.2897 -0.3627  1.7239
 1248TIP3    H225160   2.354   3.154   5.268  2.3789 -2.3049 -2.8331
 1249TIP3   OH225161   2.470   0.735  15.366  0.3071 -0.6811 -0.2599
 1249TIP3    H125162   2.402   0.719  15.301 -1.2400 -1.6306  1.4917
 1249TIP3    H225163   2.552   0.721  15.319 -0.7765 -2.3382 -1.7667
 1250TIP3   OH225164   2.597   6.511  12.052 -0.0273 -0.0218  0.6892
 1250TIP3    H125165   2.672   6.512  11.993  0.9598  0.1637  1.9094
 1250TIP3    H225166   2.526   6.550  12.001  0.5601 -0.6278 -0.6499
 1251TIP3   OH225167   5.567   4.850  12.959 -0.5827  0.0137  0.5893
 1251TIP3    H125168   5.589   4.883  12.872 -1.8049 -0.3236  0.1305
 1251TIP3    H225169   5.552   4.928  13.012 -2.7504  0.2716 -0.2962
 1252TIP3   OH225170   5.253   0.661  13.091  0.3585 -0.1066 -0.2519
 1252TIP3    H125171   5.325   0.609  13.126 -0.3408 -0.4391  0.7600
 1252TIP3    H225172   5.176   0.605  13.100  0.0809 -0.0661 -2.0603
 1253TIP3   OH225173   5.383   1.495   3.434  0.7713 -0.1155  0.0262
 1253TIP3    H125174   5.350   1.516   3.522  3.2082  2.7405  0.4010
 1253TIP3    H225175   5.439   1.419   3.448  0.7174 -0.0153  0.8543
 1254TIP3   OH225176   5.019   2.630   5.633  0.1022 -0.4178 -0.4706
 1254TIP3    H125177   5.098   2.685   5.630 -0.5000  0.4197 -1.7786
 1254TIP3    H225178   4.998   2.624   5.726 -0.8000  3.0630 -0.3160
 1255TIP3   OH225179   3.216   6.021   5.167 -0.6931 -1.0869  0.5417
 1255TIP3    H125180   3.253   5.971   5.239  0.6572  0.0001  0.6439
 1255TIP3    H225181   3.125   6.037   5.192  0.0360  0.2633  2.6012
 1256TIP3   OH225182   6.029   5.319  17.171  0.0105 -0.0649 -0.3971
 1256TIP3    H125183   6.120   5.345  17.158 -0.1158  0.6624  0.1051
 1256TIP3    H225184   6.033   5.241  17.226  0.3279 -0.0900 -0.4566
 1257TIP3   OH225185   0.601   5.298  14.590  0.3389  0.0018 -0.5277
 1257TIP3    H125186   0.593   5.366  14.656  0.6011 -0.2319 -0.2553
 1257TIP3    H225187   0.637   5.343  14.513  1.8118 -0.0994  0.0866
 1258TIP3   OH225188   3.947   5.536   2.566  0.3483 -0.0867  0.0835
 1258TIP3    H125189   3.903   5.510   2.485 -2.1963 -2.1367  1.9573
 1258TIP3    H225190   4.037   5.506   2.555 -0.3449 -1.8084 -1.3836
 1259TIP3   OH225191   2.660   3.230  15.850 -0.2160  0.5562  0.4125
 1259TIP3    H125192   2.659   3.239  15.946 -3.0053 -0.6223  0.5987
 1259TIP3    H225193   2.578   3.184  15.830  2.5528 -3.9877 -2.1368
 1260TIP3   OH225194   3.979   5.506   0.817  0.4598 -0.4569  0.4441
 1260TIP3    H125195   3.993   5.592   0.777  1.7379 -0.4155  0.9503
 1260TIP3    H225196   3.884   5.492   0.809  0.3628  0.5602 -0.5060
 1261TIP3   OH225197   5.881   5.235  15.010 -0.4219 -0.1459  0.6556
 1261TIP3    H125198   5.971   5.234  14.975 -0.6576 -2.4336 -0.0488
 1261TIP3    H225199   5.842   5.313  14.971  0.6130 -0.3194 -0.8553
 1262TIP3   OH225200   3.109   6.608  10.939  0.1755 -0.3918 -0.1895
 1262TIP3    H125201   3.127   6.517  10.962 -0.5670 -0.4430  0.2449
 1262TIP3    H225202   3.185   6.657  10.972 -0.3435 -0.6080  1.4302
 1263TIP3   OH225203   0.378   4.222  17.174 -0.0474 -0.0275  0.2263
 1263TIP3    H125204   0.388   4.312  17.204  0.8554  0.4484 -1.3685
 1263TIP3    H225205   0.461   4.179  17.195 -0.9936 -0.9610  2.3276
 1264TIP3   OH225206   4.073   5.560   1.082  0.6876  0.2553  0.1415
 1264TIP3    H125207   4.132   5.487   1.100 -0.8694 -1.1741 -0.2633
 1264TIP3    H225208   4.077   5.571   0.987  0.3840  0.2132  0.1225
 1265TIP3   OH225209   5.967   2.848   1.583  0.1306  0.5275  0.2198
 1265TIP3    H125210   5.872   2.840   1.592 -0.1981  1.9183 -1.6835
 1265TIP3    H225211   5.988   2.801   1.502  0.7153  2.2677 -0.6759
 1266TIP3   OH225212   0.203   1.207   4.105  0.0320  0.3596 -0.1414
 1266TIP3    H125213   0.246   1.174   4.184  1.9012 -0.3699 -1.4110
 1266TIP3    H225214   0.114   1.172   4.111  0.2087  0.0982  1.5038
 1267TIP3   OH225215   6.121   1.605   5.832 -0.8763 -0.2259  0.5071
 1267TIP3    H125216   6.154   1.572   5.916  1.3808 -0.5387 -0.4169
 1267TIP3    H225217   6.172   1.685   5.816 -0.6196 -0.6461 -0.9422
 1268TIP3   OH225218   5.876   0.512  12.920  0.0158 -0.1588 -0.5138
 1268TIP3    H125219   5.849   0.591  12.966  1.0509 -0.6205  0.9319
 1268TIP3    H225220   5.916   0.544  12.839  1.0560  0.8429  0.3662
 1269TIP3   OH225221   1.590   4.539  11.386 -1.0941 -0.4086  0.6246
 1269TIP3    H125222   1.604   4.445  11.398 -1.8627 -0.5825  0.2270
 1269TIP3    H225223   1.498   4.552  11.410 -0.4762  0.5898  2.6678
 1270TIP3   OH225224   1.762   3.711  16.222 -0.0537 -0.1408 -0.0619
 1270TIP3    H125225   1.735   3.710  16.131  0.4552  0.3069 -0.2228
 1270TIP3    H225226   1.707   3.778  16.263 -0.4335 -0.4944  0.0109
 1271TIP3   OH225227   6.783   4.129  16.789 -0.0824 -0.4249  0.2935
 1271TIP3    H125228   6.784   4.179  16.707 -0.0806 -2.2777 -0.8769
 1271TIP3    H225229   6.851   4.170  16.842  1.7033 -0.7644 -1.6267
 1272TIP3   OH225230   2.307   5.306   5.092  0.0836  0.2867  0.5729
 1272TIP3    H125231   2.267   5.318   5.006  1.0223  0.3368  0.1244
 1272TIP3    H225232   2.239   5.332   5.155  0.0643  2.2899 -0.2061
 1273TIP3   OH225233   4.849   4.640  15.238  0.4200  0.0744  0.4048
 1273TIP3    H125234   4.769   4.627  15.288 -0.5420 -0.6558 -1.2337
 1273TIP3    H225235   4.836   4.724  15.194  1.6163  1.1291  1.9484
 1274TIP3   OH225236   1.662   1.741   6.513  0.1031 -0.4296  0.1805
 1274TIP3    H125237   1.567   1.746   6.526  0.2596 -0.4027  1.4163
 1274TIP3    H225238   1.690   1.669   6.569  0.8050 -0.5085 -0.2648
 1275TIP3   OH225239   0.821   2.970  15.567 -0.0973  0.5452 -0.0470
 1275TIP3    H125240   0.731   3.000  15.552 -0.3120 -0.0963 -0.0713
 1275TIP3    H225241   0.863   2.978  15.481 -0.5047 -0.3745 -0.3452
 1276TIP3   OH225242   3.305   1.514  10.837 -0.0725  0.2661 -0.5717
 1276TIP3    H125243   3.344   1.429  10.854  1.0574  1.0087  0.7251
 1276TIP3    H225244   3.213   1.495  10.819  0.0325 -1.1638  0.2581
 1277TIP3   OH225245   6.085   1.465   2.450 -0.1306  0.0291 -0.1660
 1277TIP3    H125246   6.135   1.544   2.430  1.3718 -0.8288  0.0765
 1277TIP3    H225247   6.145   1.410   2.500 -1.6376 -0.6664  0.9413
 1278TIP3   OH225248   3.770   2.299  17.015  0.1430  0.3267  0.0606
 1278TIP3    H125249   3.857   2.261  17.028  0.6667  1.6745  0.6677
 1278TIP3    H225250   3.714   2.224  16.998  0.9771 -0.8299  2.0070
 1279TIP3   OH225251   2.842   1.277   3.224  0.3026 -0.3099 -0.3601
 1279TIP3    H125252   2.890   1.296   3.304  1.8045 -0.6437 -1.1398
 1279TIP3    H225253   2.773   1.215   3.251  1.6783 -1.5485  0.4593
 1280TIP3   OH225254   1.863   2.198  11.987  0.9307 -0.4642 -0.2937
 1280TIP3    H125255   1.830   2.254  11.916  0.3072  0.5117  0.7437
 1280TIP3    H225256   1.958   2.193  11.972  0.8883  0.2487 -0.8295
 1281TIP3   OH225257   1.209   5.974  12.709 -0.5430 -0.1501  0.6532
 1281TIP3    H125258   1.158   6.056  12.713 -0.3687 -0.0453  0.7091
 1281TIP3    H225259   1.172   5.920  12.779  0.5481  0.5723  1.8446
 1282TIP3   OH225260   6.080   2.722   2.769 -0.1148  0.1152  0.1236
 1282TIP3    H125261   6.109   2.657   2.832 -1.2293 -0.7133 -0.1954
 1282TIP3    H225262   6.035   2.788   2.821  1.8079  1.1510  0.5610
 1283TIP3   OH225263   1.992   0.388   2.222  0.3788 -0.0872  0.3820
 1283TIP3    H125264   2.033   0.459   2.172  2.0495 -1.2728 -0.0479
 1283TIP3    H225265   2.044   0.384   2.303 -0.4038 -0.1195  0.8853
 1284TIP3   OH225266   1.589   2.603   0.986 -0.4348  0.9015 -0.2473
 1284TIP3    H125267   1.512   2.556   0.951 -0.7136  1.6365 -0.6457
 1284TIP3    H225268   1.641   2.624   0.909  1.0427 -1.0249  0.1384
 1285TIP3   OH225269   1.371   0.782  17.212 -1.0573  0.0307 -0.5273
 1285TIP3    H125270   1.367   0.706  17.270  0.4701  0.4134  0.1257
 1285TIP3    H225271   1.457   0.776  17.171 -1.9687 -0.0391 -2.5274
 1286TIP3   OH225272   2.861   2.641   3.957 -0.2535 -0.1026  0.0759
 1286TIP3    H125273   2.938   2.588   3.977  0.1409  0.4396  0.0073
 1286TIP3    H225274   2.889   2.731   3.972 -0.7185  0.1383 -0.4570
 1287TIP3   OH225275   1.797   1.356  16.509 -0.4307 -0.2057  0.5644
 1287TIP3    H125276   1.713   1.344  16.465  0.8420 -3.3475 -1.3466
 1287TIP3    H225277   1.774   1.387  16.597 -3.3956  1.0158 -0.5104
 1288TIP3   OH225278   3.690   6.192  10.919 -0.2152  0.0369 -0.2716
 1288TIP3    H125279   3.693   6.142  10.838  0.0394  1.0544 -0.9107
 1288TIP3    H225280   3.765   6.252  10.912 -0.8524  0.8966  0.2053
 1289TIP3   OH225281   5.528   1.396  14.990  0.5435 -0.5676 -0.0230
 1289TIP3    H125282   5.550   1.486  15.015 -0.0404 -0.1269 -1.0315
 1289TIP3    H225283   5.612   1.350  14.988  0.7767 -0.2364  1.1831
 1290TIP3   OH225284   3.653   3.165  15.494 -0.4118 -0.0664  0.2866
 1290TIP3    H125285   3.651   3.078  15.455 -0.4982  0.2791 -0.4966
 1290TIP3    H225286   3.565   3.199  15.483 -0.7698 -0.3986  1.8410
 1291TIP3   OH225287   6.374   3.760   0.705 -0.1583 -0.0557 -0.0122
 1291TIP3    H125288   6.320   3.832   0.673 -1.1281 -0.0665  1.5036
 1291TIP3    H225289   6.312   3.691   0.726  0.3389  0.1334  2.3346
 1292TIP3   OH225290   1.069   1.922   2.097 -0.4783  0.3500  0.2218
 1292TIP3    H125291   1.149   1.872   2.115  0.6265  1.1899 -1.9829
 1292TIP3    H225292   1.052   1.970   2.178  0.4164 -0.9257  1.2056
 1293TIP3   OH225293   1.327   2.984   3.557  0.5207 -0.0649 -0.1417
 1293TIP3    H125294   1.380   2.974   3.636  0.7625  0.1055 -0.2808
 1293TIP3    H225295   1.346   3.073   3.526  0.7128 -0.2597 -0.5975
 1294TIP3   OH225296   3.961   4.918   3.368 -0.0225  0.2565 -0.5011
 1294TIP3    H125297   3.885   4.926   3.425  0.6637  1.9904  0.2462
 1294TIP3    H225298   3.976   5.007   3.336  2.5565  0.2919  0.5615
 1295TIP3   OH225299   2.776   4.696   4.804  0.3290 -0.1561 -0.2023
 1295TIP3    H125300   2.743   4.756   4.738 -1.3050 -1.4758 -0.6475
 1295TIP3    H225301   2.738   4.727   4.886 -2.8331 -2.0574 -0.7966
 1296TIP3   OH225302   1.528   5.566   2.539  0.1397  0.2332  0.5712
 1296TIP3    H125303   1.454   5.627   2.533  0.6054  1.0173  2.3414
 1296TIP3    H225304   1.514   5.519   2.621  1.8282  0.7449  1.1893
 1297TIP3   OH225305   6.070   3.144  14.624 -0.3238  0.6157  0.1430
 1297TIP3    H125306   6.129   3.218  14.638  0.7839 -0.4703  1.6466
 1297TIP3    H225307   6.045   3.118  14.713 -0.4040 -1.0018 -0.3271
 1298TIP3   OH225308   2.007   1.870  16.631 -0.1825  0.2764  0.1870
 1298TIP3    H125309   1.941   1.813  16.671  2.0577 -1.7986  1.1470
 1298TIP3    H225310   2.043   1.920  16.704 -1.4641  2.3494 -0.5165
 1299TIP3   OH225311   6.717   4.280  13.229  0.6032 -0.3773 -0.1714
 1299TIP3    H125312   6.729   4.368  13.266  1.7699 -1.2713  1.7582
 1299TIP3    H225313   6.727   4.292  13.135 -0.4919  1.7338 -0.0914
 1300TIP3   OH225314   3.049   4.076  13.120  0.1832  0.0667  0.1286
 1300TIP3    H125315   3.136   4.101  13.152  0.8661  0.0230 -1.5919
 1300TIP3    H225316   2.992   4.087  13.196  1.1652  2.7964  0.5761
 1301TIP3   OH225317   4.824   0.033  12.678 -0.1464 -0.8982 -0.3617
 1301TIP3    H125318   4.732   0.023  12.657 -0.7543  2.8194 -0.2016
 1301TIP3    H225319   4.867   0.048  12.594 -0.4740  1.4697 -0.1745
 1302TIP3   OH225320   5.231   4.803   0.690  0.5781  0.0124 -0.5912
 1302TIP3    H125321   5.179   4.767   0.618  0.2870  1.2882 -1.0361
 1302TIP3    H225322   5.320   4.773   0.673  0.0256 -2.2704  0.2215
 1303TIP3   OH225323   1.018   0.786  14.105  0.1027 -0.6494  0.3229
 1303TIP3    H125324   1.077   0.840  14.052 -1.5766  0.8446 -0.1376
 1303TIP3    H225325   1.051   0.794  14.194 -0.1627  1.3177  0.2861
 1304TIP3   OH225326   1.807   4.386   0.255  0.0822  0.1827  0.4423
 1304TIP3    H125327   1.745   4.323   0.219 -1.8979  2.6059 -0.7090
 1304TIP3    H225328   1.763   4.419   0.334 -0.9555  3.0104 -1.1859
 1305TIP3   OH225329   3.063   1.015  14.116 -0.6295 -0.6500  0.2311
 1305TIP3    H125330   3.141   1.008  14.170  0.0999 -0.0990 -0.7204
 1305TIP3    H225331   2.999   0.957  14.158 -0.2118  0.0403  1.8647
 1306TIP3   OH225332   4.765   0.361   0.979 -0.0496  0.3363 -0.0623
 1306TIP3    H125333   4.685   0.321   0.946  0.5765  0.3569 -1.7038
 1306TIP3    H225334   4.776   0.325   1.067 -1.8169  0.2998  0.1668
 1307TIP3   OH225335   5.009   4.267   6.415  0.4737 -0.0865 -0.1000
 1307TIP3    H125336   4.922   4.307   6.419  0.0564 -1.0300  0.8017
 1307TIP3    H225337   5.048   4.287   6.500  0.7704 -0.4431 -0.1517
 1308TIP3   OH225338   6.018   5.824   0.072 -0.0814 -0.1868 -0.3178
 1308TIP3    H125339   6.056   5.834  -0.015  0.4735  1.5848  0.0897
 1308TIP3    H225340   5.998   5.914   0.100 -1.3529 -0.8140  0.9009
 1309TIP3   OH225341   4.106   4.799  13.113 -0.4082  0.3483  0.3304
 1309TIP3    H125342   4.050   4.864  13.156  0.9427  0.7808  1.5605
 1309TIP3    H225343   4.152   4.757  13.186  1.0681  0.2324 -0.6333
 1310TIP3   OH225344   1.580   1.157  11.106 -0.8848 -0.5975  0.5470
 1310TIP3    H125345   1.535   1.151  11.022 -2.8905 -3.7071  1.6385
 1310TIP3    H225346   1.509   1.156  11.171  0.5280  2.6435  2.3675
 1311TIP3   OH225347   3.699   0.754  11.050  0.3928 -0.3054 -0.4264
 1311TIP3    H125348   3.719   0.846  11.036 -0.6327 -0.1720 -1.1878
 1311TIP3    H225349   3.604   0.749  11.040  0.3768 -1.3623  0.1078
 1312TIP3   OH225350   2.748   3.594   0.617  0.3206  0.4843 -0.4472
 1312TIP3    H125351   2.814   3.548   0.669  0.1670 -1.0151 -1.5333
 1312TIP3    H225352   2.791   3.611   0.533 -0.9649 -1.4794 -1.5704
 1313TIP3   OH225353   1.453   2.955  15.866  0.5081 -0.3950 -0.3123
 1313TIP3    H125354   1.466   2.933  15.774 -1.7570 -1.1483 -0.5180
 1313TIP3    H225355   1.420   3.045  15.865 -4.2855 -1.8522 -0.8431
 1314TIP3   OH225356   4.251   1.151   1.017 -0.1228  0.2201 -0.7407
 1314TIP3    H125357   4.282   1.105   0.939 -0.8488 -0.8832 -0.4128
 1314TIP3    H225358   4.161   1.121   1.028  0.1370 -0.0762  0.8187
 1315TIP3   OH225359   4.407   5.755   0.381  0.5649 -0.1911  0.1681
 1315TIP3    H125360   4.332   5.695   0.374 -0.0419  0.6874 -1.1342
 1315TIP3    H225361   4.483   5.697   0.388 -0.1620 -1.0956  0.9155
 1316TIP3   OH225362   1.810   0.184  12.769 -0.1018 -0.6304  0.0652
 1316TIP3    H125363   1.824   0.278  12.756  0.4019 -0.8233 -0.8640
 1316TIP3    H225364   1.719   0.177  12.799 -0.4128  0.0848 -0.6899
 1317TIP3   OH225365   1.375   4.605  14.440  0.0055  0.2247 -0.0511
 1317TIP3    H125366   1.284   4.615  14.467  0.0691  1.5171 -0.2293
 1317TIP3    H225367   1.415   4.690  14.459  1.4872 -0.6845  1.1447
 1318TIP3   OH225368   2.030   5.605  16.322 -0.1076  0.2368 -0.3254
 1318TIP3    H125369   2.052   5.553  16.400  0.3844 -1.4866 -1.5348
 1318TIP3    H225370   2.077   5.687  16.333 -0.0949  0.0368  1.2088
 1319TIP3   OH225371   5.911   3.316  12.381  0.5975 -0.2245  0.3557
 1319TIP3    H125372   5.996   3.314  12.338  0.6345  1.1920  0.3284
 1319TIP3    H225373   5.897   3.408  12.404 -0.4097 -0.6076  1.4004
 1320TIP3   OH225374   6.411   1.110   4.972 -0.7371  0.3310  0.4013
 1320TIP3    H125375   6.458   1.035   5.010 -0.6523 -0.4696 -1.2018
 1320TIP3    H225376   6.357   1.072   4.903  0.6579  1.9063 -1.6942
 1321TIP3   OH225377   0.569   1.017  16.320 -0.4867  0.1618  0.3326
 1321TIP3    H125378   0.481   0.992  16.292 -0.4279 -0.4124  0.6456
 1321TIP3    H225379   0.589   1.096  16.270 -1.2677  0.4223  0.4212
 1322TIP3   OH225380   6.063   3.013   4.990 -0.0985  0.0034 -0.1364
 1322TIP3    H125381   5.997   2.977   5.050  0.0035  0.1245  0.0507
 1322TIP3    H225382   6.105   2.935   4.952 -2.0835 -0.1439 -2.2542
 1323TIP3   OH225383   2.559   0.356  12.285 -0.6024  0.2092 -0.2672
 1323TIP3    H125384   2.604   0.296  12.344  2.8403  1.9388 -0.8619
 1323TIP3    H225385   2.518   0.420  12.344  0.3900  0.3077  0.3620
 1324TIP3   OH225386   5.011   3.085  10.954 -0.0146 -0.0101 -0.1872
 1324TIP3    H125387   4.955   3.059  10.880  2.5025 -0.4128 -2.0779
 1324TIP3    H225388   5.069   3.010  10.968  1.7018  1.2830 -0.0173
 1325TIP3   OH225389   5.409   0.787  14.611 -0.0941 -0.4291 -0.5066
 1325TIP3    H125390   5.479   0.759  14.671 -1.0709 -1.9548 -0.0193
 1325TIP3    H225391   5.438   0.873  14.579  1.2289 -0.2969  0.9066
 1326TIP3   OH225392   0.843   2.385   0.970  0.3904  0.2266  0.6988
 1326TIP3    H125393   0.929   2.349   0.993  0.9209  1.0140  0.0412
 1326TIP3    H225394   0.843   2.473   1.008  0.9686  1.2421 -1.4951
 1327TIP3   OH225395   2.974   0.476   1.665  0.4246  0.0826 -0.3174
 1327TIP3    H125396   2.911   0.469   1.736  0.1971  0.5240 -0.4730
 1327TIP3    H225397   3.046   0.419   1.691  0.2157  0.0205  0.1298
 1328TIP3   OH225398   3.862   6.008   1.848 -0.3834  0.1010  0.0511
 1328TIP3    H125399   3.877   5.965   1.933 -0.2625 -0.3443 -0.1887
 1328TIP3    H225400   3.925   5.966   1.789  0.8694  1.7507  0.1723
 1329TIP3   OH225401   4.948   6.444   4.143  0.3415  0.5114  0.1956
 1329TIP3    H125402   5.002   6.458   4.221  1.6645  1.6201 -0.8582
 1329TIP3    H225403   4.962   6.352   4.121 -0.5980 -0.0145  1.6148
 1330TIP3   OH225404   3.158   0.583   2.730 -0.1150 -0.3737 -0.3770
 1330TIP3    H125405   3.226   0.604   2.794 -1.5601 -1.5857  1.6848
 1330TIP3    H225406   3.077   0.614   2.770 -1.0060 -0.6134 -1.9187
 1331TIP3   OH225407   3.174   4.491   2.637  0.0244  0.2197  0.3345
 1331TIP3    H125408   3.223   4.481   2.719 -0.3098 -0.5220  0.4497
 1331TIP3    H225409   3.237   4.468   2.569  0.1010  0.1665  0.4222
 1332TIP3   OH225410   1.447   2.270   1.532  0.2891  0.0849 -0.0158
 1332TIP3    H125411   1.518   2.330   1.554 -0.5826  1.0382  0.3151
 1332TIP3    H225412   1.427   2.288   1.440 -0.2404  0.6179  0.1932
 1333TIP3   OH225413   5.501   5.447  12.708  0.2762 -1.1109 -0.1030
 1333TIP3    H125414   5.481   5.490  12.791 -1.5990  1.5426 -1.7823
 1333TIP3    H225415   5.578   5.493  12.675 -1.7484  1.2665 -1.9160
 1334TIP3   OH225416   3.981   5.240  10.726  0.2251 -0.4193 -0.1252
 1334TIP3    H125417   3.994   5.153  10.689 -2.0694 -0.6379 -0.5931
 1334TIP3    H225418   3.909   5.229  10.788  0.2512  1.0340  0.1987
 1335TIP3   OH225419   3.353   2.696   2.352 -0.1719 -0.1436  0.0400
 1335TIP3    H125420   3.393   2.626   2.301  1.4417 -0.4958  1.6958
 1335TIP3    H225421   3.387   2.776   2.312  1.0699 -0.4100  0.5254
 1336TIP3   OH225422   2.175   3.764  10.906  0.7816  0.2631 -0.1834
 1336TIP3    H125423   2.098   3.818  10.893  0.0332 -0.8804 -0.6404
 1336TIP3    H225424   2.183   3.713  10.825  1.9543  0.2890 -0.0999
 1337TIP3   OH225425   3.527   6.455   5.165  0.3636  0.6624  0.2112
 1337TIP3    H125426   3.448   6.444   5.111  2.3684 -2.0335 -2.4811
 1337TIP3    H225427   3.501   6.420   5.250 -1.3280 -0.2810 -0.6268
 1338TIP3   OH225428   2.076   0.667  16.009 -0.2210 -0.2272  0.3313
 1338TIP3    H125429   2.151   0.706  15.964  0.3846 -0.6991  0.9032
 1338TIP3    H225430   1.999   0.704  15.965  0.3450 -0.1178 -0.5977
 1339TIP3   OH225431   3.217   3.895  16.013 -0.5790 -0.3346 -0.0427
 1339TIP3    H125432   3.163   3.880  15.935 -3.2929  1.0943  1.4481
 1339TIP3    H225433   3.192   3.827  16.074  1.4161 -1.3381 -0.2401
 1340TIP3   OH225434   5.474   2.117  10.865  0.0258  0.2511 -0.2242
 1340TIP3    H125435   5.387   2.142  10.835  0.4776  1.2832 -0.7283
 1340TIP3    H225436   5.471   2.021  10.871 -0.6510  0.1437 -1.8019
 1341TIP3   OH225437   5.727   0.375  13.411  0.0096 -0.2848  0.0664
 1341TIP3    H125438   5.672   0.429  13.468 -0.1466  0.1471 -0.4850
 1341TIP3    H225439   5.696   0.285  13.425 -1.0155 -0.0210 -0.4290
 1342TIP3   OH225440   5.260   3.219   5.792 -0.0866  1.1539  0.3454
 1342TIP3    H125441   5.250   3.314   5.794  0.5007  1.2212  2.4411
 1342TIP3    H225442   5.330   3.200   5.854  1.0336 -0.5543 -1.3163
 1343TIP3   OH225443   1.598   6.080  15.740  0.1591  0.0582  0.9676
 1343TIP3    H125444   1.582   6.094  15.646 -0.6014 -0.7463  0.9561
 1343TIP3    H225445   1.691   6.059  15.746  0.4264  1.0512  0.5191
 1344TIP3   OH225446   4.965   0.473   5.286 -0.4036 -0.6078 -0.4495
 1344TIP3    H125447   4.961   0.402   5.223  0.8417 -3.0617  2.0087
 1344TIP3    H225448   4.907   0.445   5.357 -2.7854  2.6379 -0.8570
 1345TIP3   OH225449   2.221   5.584   1.914 -0.4318 -0.3180 -0.1734
 1345TIP3    H125450   2.312   5.558   1.923 -0.4159 -1.0950 -2.0645
 1345TIP3    H225451   2.224   5.668   1.869 -0.6424 -0.1724  0.0806
 1346TIP3   OH225452   3.215   2.401   2.060  0.7871 -0.0156  0.7223
 1346TIP3    H125453   3.160   2.467   2.103  0.9327 -0.6677  1.9629
 1346TIP3    H225454   3.201   2.416   1.967 -1.7215 -0.3264  0.9750
 1347TIP3   OH225455   4.028   1.115  16.329  0.3078 -0.2259 -0.0161
 1347TIP3    H125456   4.019   1.065  16.248  0.2437 -0.2684  0.0168
 1347TIP3    H225457   4.044   1.204  16.300 -0.0821 -0.1736 -0.0753
 1348TIP3   OH225458   0.144   1.265   1.282  0.1801 -0.0709  0.4749
 1348TIP3    H125459   0.195   1.243   1.204 -0.3874 -0.7205  0.2740
 1348TIP3    H225460   0.209   1.274   1.352  0.6045 -0.5709  0.1543
 1349TIP3   OH225461   0.555   3.160   0.947 -0.3759  0.7488  0.0802
 1349TIP3    H125462   0.633   3.118   0.911 -0.0519  1.5610 -0.1891
 1349TIP3    H225463   0.490   3.156   0.877 -1.3691 -1.9135  1.0317
 1350TIP3   OH225464   6.287   2.244  14.098 -0.2698  0.4259  0.1527
 1350TIP3    H125465   6.193   2.250  14.082  0.0451  1.7076 -1.4123
 1350TIP3    H225466   6.323   2.205  14.018  0.3022 -2.6660  1.7347
 1351TIP3   OH225467   1.215   4.008   3.075 -0.3570 -0.3173  0.2214
 1351TIP3    H125468   1.265   3.927   3.083 -0.6589 -0.5853 -0.5122
 1351TIP3    H225469   1.275   4.069   3.033  0.8705  0.7717  3.2294
 1352TIP3   OH225470   5.420   6.766  15.340  0.2616 -0.1634 -0.3005
 1352TIP3    H125471   5.338   6.760  15.291 -0.0835 -0.2518  0.2819
 1352TIP3    H225472   5.416   6.693  15.402  0.4382  0.2782  0.2342
 1353TIP3   OH225473   0.515   0.510   2.792  0.3230  0.0729  0.0177
 1353TIP3    H125474   0.553   0.427   2.823  0.0604 -0.6298 -1.4692
 1353TIP3    H225475   0.526   0.508   2.697 -1.0459  1.0679 -0.1923
 1354TIP3   OH225476   3.449   3.690  15.808 -0.6469  0.6833 -0.6516
 1354TIP3    H125477   3.485   3.621  15.863 -0.6176  1.2359  0.0260
 1354TIP3    H225478   3.476   3.772  15.850 -1.5966  1.1094 -0.8381
 1355TIP3   OH225479   2.126   2.539  11.095 -0.1046  0.3521  0.0913
 1355TIP3    H125480   2.195   2.472  11.094  2.9377  3.1455  1.5890
 1355TIP3    H225481   2.111   2.559  11.002 -0.5215 -1.7663 -0.3481
 1356TIP3   OH225482   4.821   1.089  14.872  0.6726  0.1441  0.1192
 1356TIP3    H125483   4.726   1.085  14.873  0.6909 -0.7435 -0.5361
 1356TIP3    H225484   4.849   0.997  14.864  1.5219  0.5396 -2.4712
 1357TIP3   OH225485   1.942   3.862  11.245  0.4358 -0.1909  0.1743
 1357TIP3    H125486   1.901   3.801  11.183 -2.0585  0.9998  0.5551
 1357TIP3    H225487   2.014   3.811  11.284  0.7232 -1.6614 -2.0886
 1358TIP3   OH225488   4.303   4.475  13.131  0.3975 -0.2548 -0.4620
 1358TIP3    H125489   4.383   4.527  13.124  0.5688 -0.4671 -0.1321
 1358TIP3    H225490   4.279   4.454  13.041  0.6977 -0.1648 -0.5620
 1359TIP3   OH225491   2.119   4.538   0.512  0.1528 -0.4551 -0.4681
 1359TIP3    H125492   2.074   4.621   0.499  0.4345  0.1989  2.1237
 1359TIP3    H225493   2.059   4.472   0.476 -1.4701  0.6486  0.0961
 1360TIP3   OH225494   1.172   5.299  10.922  0.4046 -0.3984 -0.0095
 1360TIP3    H125495   1.134   5.230  10.976  1.4430 -2.1780 -1.4323
 1360TIP3    H225496   1.236   5.342  10.979  1.7478 -2.4653  0.1449
 1361TIP3   OH225497   2.593   4.154  15.222 -0.0708 -0.2071 -0.2507
 1361TIP3    H125498   2.665   4.118  15.274 -0.6095 -1.8659 -0.5766
 1361TIP3    H225499   2.633   4.185  15.142  0.3306 -0.8056 -0.2842
 1362TIP3   OH225500   2.983   4.581  12.878 -0.6013  0.0747  0.2461
 1362TIP3    H125501   2.940   4.654  12.922  0.8644  0.9267  0.3504
 1362TIP3    H225502   3.049   4.623  12.822  0.2929 -1.1679  0.3379
 1363TIP3   OH225503   4.164   6.677   1.436  0.2865  0.4860  0.2214
 1363TIP3    H125504   4.219   6.615   1.484 -0.0884  1.5674  2.1864
 1363TIP3    H225505   4.200   6.763   1.459  1.5885  1.0607 -3.4181
 1364TIP3   OH225506   6.067   2.558   2.559  0.4475 -0.0105  0.0555
 1364TIP3    H125507   5.987   2.593   2.522  0.9711  0.0580 -1.0499
 1364TIP3    H225508   6.078   2.605   2.642 -0.6648 -0.0571  0.2444
 1365TIP3   OH225509   3.004   4.370   0.893 -0.9395 -0.5507  0.5544
 1365TIP3    H125510   3.013   4.306   0.964 -2.1850 -1.7529 -0.3134
 1365TIP3    H225511   2.916   4.406   0.904 -0.1068  1.3887  1.2774
 1366TIP3   OH225512   4.072   5.763  14.882 -0.2507  0.7797  0.1820
 1366TIP3    H125513   4.168   5.769  14.885 -0.0160 -0.6802 -1.8843
 1366TIP3    H225514   4.046   5.822  14.811 -0.6965 -0.0549 -0.3641
 1367TIP3   OH225515   2.766   4.750  15.990 -0.7218 -0.3016 -0.1155
 1367TIP3    H125516   2.784   4.770  16.082 -0.1697 -1.9695  0.1597
 1367TIP3    H225517   2.824   4.808  15.942 -0.1777 -0.2298  0.6086
 1368TIP3   OH225518   1.897   6.105  16.411 -0.1250  0.2142 -0.3154
 1368TIP3    H125519   1.900   6.134  16.502 -1.5075 -1.4649  0.3517
 1368TIP3    H225520   1.818   6.145  16.376  0.0180  0.2938 -0.5436
 1369TIP3   OH225521   1.851   6.476   6.203  0.2951 -0.0149 -0.5811
 1369TIP3    H125522   1.775   6.454   6.258  1.7898 -0.2332  1.5159
 1369TIP3    H225523   1.909   6.525   6.261  1.3638  1.0019 -2.4137
 1370TIP3   OH225524   0.696   0.882  15.153  0.2639  0.3912 -0.2626
 1370TIP3    H125525   0.667   0.954  15.209  1.2848 -0.9211  2.1437
 1370TIP3    H225526   0.751   0.828  15.211 -0.1724 -2.1190 -2.0295
 1371TIP3   OH225527   4.649   3.327  14.156 -0.1607  0.8056 -0.1335
 1371TIP3    H125528   4.690   3.251  14.196 -0.7891  1.0277  0.9942
 1371TIP3    H225529   4.719   3.392  14.149  0.1064  0.5337  0.0254
 1372TIP3   OH225530   4.610   4.645  14.546  0.1236 -0.4085  0.1646
 1372TIP3    H125531   4.525   4.651  14.502 -0.7301 -1.0730  1.6523
 1372TIP3    H225532   4.656   4.725  14.520 -1.3994  0.5259  0.1902
 1373TIP3   OH225533   0.420   0.255  11.483 -0.2614 -0.2081 -0.9155
 1373TIP3    H125534   0.369   0.335  11.472 -2.2536 -1.4349 -1.1302
 1373TIP3    H225535   0.487   0.278  11.546 -1.3304  1.4005 -0.2928
 1374TIP3   OH225536   5.237   0.245   4.829  0.2140 -0.5493 -0.1707
 1374TIP3    H125537   5.208   0.314   4.770  1.7359 -0.0236 -0.3647
 1374TIP3    H225538   5.287   0.185   4.773 -0.6579 -1.5583  0.0872
 1375TIP3   OH225539   5.816   5.266   1.820 -0.3593 -0.1558  0.7474
 1375TIP3    H125540   5.854   5.333   1.762 -0.0507 -0.8434  0.1419
 1375TIP3    H225541   5.841   5.294   1.908 -0.2694  0.5543  0.5045
 1376TIP3   OH225542   3.212   3.542  15.871  0.8519 -0.0657  0.2468
 1376TIP3    H125543   3.155   3.527  15.796  0.2541 -0.1438  0.7094
 1376TIP3    H225544   3.255   3.626  15.852 -1.3065  1.3012  1.0378
 1377TIP3   OH225545   4.839   3.583   2.491 -0.3416  0.2213  0.7424
 1377TIP3    H125546   4.782   3.590   2.567  0.5063 -1.0844  1.5179
 1377TIP3    H225547   4.796   3.637   2.424  0.1466  3.4869  2.8353
 1378TIP3   OH225548   0.794   4.807   2.434  0.0736 -0.0226 -0.2762
 1378TIP3    H125549   0.869   4.859   2.464  1.3006 -0.7959 -1.8617
 1378TIP3    H225550   0.723   4.871   2.427  1.4476  1.4480 -1.8510
 1379TIP3   OH225551   0.847   2.669   1.489 -0.0565  0.2429  0.0138
 1379TIP3    H125552   0.924   2.693   1.542  1.1680 -0.7025 -1.2430
 1379TIP3    H225553   0.882   2.659   1.401 -1.6967  0.0098 -0.6343
 1380TIP3   OH225554   4.008   5.412  14.194  0.1096 -0.2450  0.2408
 1380TIP3    H125555   3.961   5.452  14.267  0.9415  1.0917  0.0822
 1380TIP3    H225556   3.956   5.434  14.117 -0.0727 -0.5207  0.2838
 1381TIP3   OH225557   0.662   4.972  11.481  0.1937 -0.1378 -0.6650
 1381TIP3    H125558   0.667   5.013  11.567  1.3022  1.2352 -1.3548
 1381TIP3    H225559   0.745   4.993  11.438 -0.5445 -0.3244 -2.2728
 1382TIP3   OH225560   4.047   3.649  13.421 -0.4491  0.3854 -0.4908
 1382TIP3    H125561   3.997   3.568  13.426  1.9819 -1.1419  1.2342
 1382TIP3    H225562   4.134   3.622  13.393  0.7691  2.1657  1.3172
 1383TIP3   OH225563   4.257   4.881   4.570 -0.0138 -0.0735 -0.3388
 1383TIP3    H125564   4.266   4.925   4.486  0.0634 -1.4075 -1.0643
 1383TIP3    H225565   4.269   4.950   4.635  0.0016  0.9704 -1.4164
 1384TIP3   OH225566   4.444   0.635  12.172  0.5371  0.0853 -0.4238
 1384TIP3    H125567   4.359   0.592  12.163  0.7835 -0.8166  1.1410
 1384TIP3    H225568   4.507   0.563  12.169  0.9990  0.3433  1.6001
 1385TIP3   OH225569   1.445   0.057   5.734  0.3707 -0.1888 -0.0306
 1385TIP3    H125570   1.376   0.094   5.790  0.6622  1.3508 -0.6412
 1385TIP3    H225571   1.496   0.002   5.793  0.0894  0.6189  1.0017
 1386TIP3   OH225572   0.677   4.537   0.016 -0.2213  0.0092 -0.0964
 1386TIP3    H125573   0.746   4.486  -0.025 -0.7408 -0.7149 -0.0902
 1386TIP3    H225574   0.720   4.617   0.046  0.8817 -0.9818  1.0719
 1387TIP3   OH225575   0.036   6.184  13.610  0.0364  0.0942  0.4097
 1387TIP3    H125576   0.082   6.135  13.679  0.5760  1.4071  1.0098
 1387TIP3    H225577   0.003   6.262  13.654 -3.5201 -1.1318  0.1826
 1388TIP3   OH225578   4.468   1.811  14.656  0.7171  0.0626 -0.3451
 1388TIP3    H125579   4.454   1.901  14.685 -0.4331 -0.4985  0.9698
 1388TIP3    H225580   4.516   1.770  14.729  0.4775 -0.6077 -0.5602
 1389TIP3   OH225581   0.598   2.953   3.517 -0.5688 -0.5563  0.1767
 1389TIP3    H125582   0.507   2.941   3.546 -0.9498  0.0005 -0.7745
 1389TIP3    H225583   0.616   3.045   3.533  0.3231 -0.9526  1.6901
 1390TIP3   OH225584   1.765   0.816  16.839 -0.2264  0.2676  0.2817
 1390TIP3    H125585   1.799   0.904  16.818 -1.8548  0.9284  0.2923
 1390TIP3    H225586   1.671   0.821  16.821 -0.4432 -1.3305  0.7881
 1391TIP3   OH225587   0.931   3.629  14.538  0.5718 -0.5023  0.6958
 1391TIP3    H125588   0.845   3.653  14.501  0.4523 -2.2732 -0.2660
 1391TIP3    H225589   0.989   3.624  14.461  1.1443 -0.9654  1.1519
 1392TIP3   OH225590   6.634   5.160   3.385 -0.2017  0.4796  0.5721
 1392TIP3    H125591   6.608   5.074   3.418  1.2913  0.0222  0.6166
 1392TIP3    H225592   6.669   5.206   3.462  1.4486  0.1366  0.0637
 1393TIP3   OH225593   6.312   5.964  14.951  0.1206 -0.5414 -0.2065
 1393TIP3    H125594   6.311   5.891  15.012  0.5934  0.2541  0.7849
 1393TIP3    H225595   6.395   6.009  14.969  0.8186 -0.8998 -2.1982
 1394TIP3   OH225596   1.473   5.163   1.147 -0.1592  0.0730 -0.0335
 1394TIP3    H125597   1.493   5.129   1.060 -0.2418 -2.9473  1.0070
 1394TIP3    H225598   1.480   5.087   1.205 -1.1692  1.7342  2.4588
 1395TIP3   OH225599   4.165   0.077  11.084  0.2765  0.2243 -0.5078
 1395TIP3    H125600   4.250   0.055  11.047  1.2137  2.0898  0.4176
 1395TIP3    H225601   4.102   0.047  11.019  1.7638  1.7502 -2.7944
 1396TIP3   OH225602   1.877   2.817  15.842  0.0941  0.5166  0.0097
 1396TIP3    H125603   1.819   2.873  15.894 -2.0169 -1.4530 -0.0383
 1396TIP3    H225604   1.940   2.783  15.904 -0.4264  0.6570  0.6292
 1397TIP3   OH225605   4.999   4.779   2.194 -0.1792 -0.4085 -0.0146
 1397TIP3    H125606   4.954   4.702   2.161  0.6785 -0.7328 -0.4780
 1397TIP3    H225607   5.092   4.758   2.184  0.1324 -0.3151  2.1155
 1398TIP3   OH225608   4.530   6.473  16.128 -0.2420 -0.5625  0.4450
 1398TIP3    H125609   4.499   6.495  16.040  1.3316  0.8667  0.1819
 1398TIP3    H225610   4.530   6.557  16.175  0.6589 -0.9788  1.2192
 1399TIP3   OH225611   5.255   2.662   4.592 -0.2264  0.1141  0.3245
 1399TIP3    H125612   5.177   2.652   4.537 -0.6698 -0.9015  1.0970
 1399TIP3    H225613   5.319   2.704   4.535 -0.8766 -0.3299 -0.7684
 1400TIP3   OH225614   6.771   2.521   2.250  0.7746  0.0204 -0.4074
 1400TIP3    H125615   6.762   2.551   2.340  1.3143 -1.2275  0.0848
 1400TIP3    H225616   6.682   2.524   2.215  0.6646  1.1711 -0.0642
 1401TIP3   OH225617   5.310   3.669  12.963  0.0737 -0.2174  0.2332
 1401TIP3    H125618   5.244   3.728  13.001  0.2330  1.1007 -1.4229
 1401TIP3    H225619   5.292   3.584  13.004 -1.0982  0.6415  1.6165
 1402TIP3   OH225620   2.518   2.205   1.451  0.0434  0.4578  0.2378
 1402TIP3    H125621   2.575   2.231   1.378  0.1963  1.6623  0.7651
 1402TIP3    H225622   2.442   2.264   1.444 -1.4610 -1.4616 -0.7781
 1403TIP3   OH225623   5.400   4.545   0.464  0.0790  0.2928  0.1841
 1403TIP3    H125624   5.352   4.477   0.509 -1.0342  1.3913  0.7245
 1403TIP3    H225625   5.333   4.609   0.438  0.9251  0.6324 -1.3238
 1404TIP3   OH225626   3.010   1.381   2.209  0.4309 -0.5066  0.1870
 1404TIP3    H125627   3.064   1.424   2.276  0.7502 -1.6145  0.6618
 1404TIP3    H225628   3.072   1.348   2.145  0.1428  0.2898 -0.5276
 1405TIP3   OH225629   2.835   5.400   6.135  0.0661  0.2973 -0.1159
 1405TIP3    H125630   2.801   5.413   6.046  0.7432  0.4149 -0.3638
 1405TIP3    H225631   2.779   5.455   6.190  0.6571  1.5138 -0.6859
 1406TIP3   OH225632   6.421   1.476  12.720  0.2759  0.2441  0.2332
 1406TIP3    H125633   6.472   1.488  12.800  0.0704 -0.6156  0.4999
 1406TIP3    H225634   6.475   1.419  12.665  0.4517  0.8883 -0.2913
 1407TIP3   OH225635   4.417   3.544  15.369 -0.0307 -0.1027  0.1762
 1407TIP3    H125636   4.354   3.600  15.325  0.5187  0.1473 -0.3030
 1407TIP3    H225637   4.388   3.455  15.348 -0.9823 -0.0153  1.0521
 1408TIP3   OH225638   0.882   0.289   5.590 -0.4648 -0.3145 -0.3297
 1408TIP3    H125639   0.956   0.273   5.648 -0.8147 -0.7876 -0.0030
 1408TIP3    H225640   0.896   0.231   5.516  0.1291  0.4930 -0.8670
 1409TIP3   OH225641   5.436   5.723  17.044  0.0630 -0.0312 -0.2504
 1409TIP3    H125642   5.476   5.781  16.979 -0.7968  1.4184  0.4747
 1409TIP3    H225643   5.353   5.765  17.066 -0.3439 -1.2777  0.6861
 1410TIP3   OH225644   2.201   4.382  12.775  0.2004  0.8860  0.2948
 1410TIP3    H125645   2.273   4.384  12.839 -0.5808 -2.1121  1.4247
 1410TIP3    H225646   2.174   4.291  12.772 -0.9047  1.1967 -3.1997
 1411TIP3   OH225647   2.868   0.019  11.172  0.2580  0.3569  1.0089
 1411TIP3    H125648   2.828   0.017  11.258  0.3544 -0.8491  1.0402
 1411TIP3    H225649   2.879  -0.073  11.148  1.5045  0.6607  0.3106
 1412TIP3   OH225650   4.636   0.592  15.511 -0.3438 -0.1953 -0.2232
 1412TIP3    H125651   4.598   0.507  15.531 -0.6334 -0.0230 -0.0339
 1412TIP3    H225652   4.730   0.580  15.526 -0.4239 -0.3831  0.1517
 1413TIP3   OH225653   5.661   6.569   2.620  0.1990 -0.1025  0.1929
 1413TIP3    H125654   5.654   6.664   2.633  1.5790 -0.2736  3.1361
 1413TIP3    H225655   5.641   6.532   2.706  1.2024 -2.3695 -0.4758
 1414TIP3   OH225656   0.661   1.167   4.318 -0.0459  0.5019  0.0070
 1414TIP3    H125657   0.679   1.241   4.376 -1.2438 -0.6033  1.9111
 1414TIP3    H225658   0.639   1.095   4.378 -1.4518 -0.6947 -1.8430
 1415TIP3   OH225659   0.614   0.300  12.641 -0.1068 -0.5279 -0.2951
 1415TIP3    H125660   0.593   0.394  12.648  1.0524 -0.3163  0.5672
 1415TIP3    H225661   0.709   0.296  12.645 -0.1720 -1.8190  0.6914
 1416TIP3   OH225662   3.759   1.826   4.733 -0.5754  0.0005 -0.3366
 1416TIP3    H125663   3.722   1.903   4.689 -1.3547  0.4645  1.0660
 1416TIP3    H225664   3.730   1.834   4.824  2.3691 -0.0200  0.7121
 1417TIP3   OH225665   5.904   6.472   1.898 -0.3037 -0.2126  0.1852
 1417TIP3    H125666   5.979   6.483   1.956 -0.3505 -0.3135  0.2639
 1417TIP3    H225667   5.938   6.426   1.822  0.0244  0.9647 -0.4039
 1418TIP3   OH225668   6.664   5.990  15.937 -0.2299  0.0562  0.0762
 1418TIP3    H125669   6.663   6.068  15.881  0.5825 -1.0344 -1.5233
 1418TIP3    H225670   6.737   5.938  15.904 -0.1562 -0.9532  1.7447
 1419TIP3   OH225671   1.869   1.222   0.816 -0.1402 -0.3236 -0.0931
 1419TIP3    H125672   1.877   1.299   0.871 -1.3577  0.9315 -1.5650
 1419TIP3    H225673   1.938   1.231   0.751  0.2963 -0.9717  0.2721
 1420TIP3   OH225674   3.677   1.694  12.498 -0.5781 -0.2511  0.9304
 1420TIP3    H125675   3.686   1.786  12.525  1.2865  0.0651 -0.5601
 1420TIP3    H225676   3.596   1.692  12.447 -0.3999  0.6806  0.5857
 1421TIP3   OH225677   5.905   0.194   1.655  0.0086 -0.1171  0.4491
 1421TIP3    H125678   5.917   0.210   1.562 -0.0601 -0.0319  0.4540
 1421TIP3    H225679   5.851   0.267   1.685  0.7058  0.3009  0.7189
 1422TIP3   OH225680   6.391   2.983   5.372 -0.0221 -0.1663  0.2685
 1422TIP3    H125681   6.383   2.929   5.450  0.9566 -0.0028  0.5005
 1422TIP3    H225682   6.486   2.999   5.363 -0.1561  0.1778 -0.6985
 1423TIP3   OH225683   4.112   4.565  13.860  0.3865  0.1269 -0.0633
 1423TIP3    H125684   4.097   4.565  13.955 -0.2630  0.4381 -0.1619
 1423TIP3    H225685   4.150   4.651  13.842 -0.0483  0.2986 -0.1674
 1424TIP3   OH225686   3.204   4.858  11.350 -0.1357  1.1013  0.0519
 1424TIP3    H125687   3.227   4.795  11.282  2.3317  0.6555  1.1621
 1424TIP3    H225688   3.112   4.841  11.369  0.0808 -1.2460 -0.6358
 1425TIP3   OH225689   4.328   0.931  12.923  0.0970 -0.1563 -0.3963
 1425TIP3    H125690   4.273   0.873  12.870 -0.0660 -0.2038 -0.1763
 1425TIP3    H225691   4.377   0.982  12.859  0.1008 -0.4029 -0.5932
 1426TIP3   OH225692   5.937   2.219  13.557  0.0158  0.4499  0.2218
 1426TIP3    H125693   5.920   2.245  13.466 -1.1924 -1.1048 -0.0413
 1426TIP3    H225694   5.947   2.302  13.604 -1.1924  1.3419 -1.0012
 1427TIP3   OH225695   6.018   5.705  16.937  0.5375 -0.0383  0.4456
 1427TIP3    H125696   5.999   5.670  16.850 -2.7964  3.2000 -0.4047
 1427TIP3    H225697   5.976   5.644  16.997 -0.6960 -0.2317 -0.5675
 1428TIP3   OH225698   1.744   2.691   5.022  0.2978  0.6610 -0.2017
 1428TIP3    H125699   1.819   2.647   5.062 -1.2133 -1.4944  0.4098
 1428TIP3    H225700   1.701   2.735   5.095 -0.0595  0.3416 -0.2196
 1429TIP3   OH225701   0.583   0.694   1.140  0.4524  0.0457  0.2434
 1429TIP3    H125702   0.650   0.655   1.085  1.0112  0.4783  0.5989
 1429TIP3    H225703   0.510   0.712   1.081  1.1190  0.6868 -0.4004
 1430TIP3   OH225704   5.822   3.362  15.973  0.0216 -0.1143  0.2220
 1430TIP3    H125705   5.786   3.450  15.965 -2.2715 -1.0787 -1.2032
 1430TIP3    H225706   5.762   3.316  16.032  1.0685 -0.7995  0.7901
 1431TIP3   OH225707   3.823   4.318   3.658  0.0188  0.5418 -0.7653
 1431TIP3    H125708   3.879   4.392   3.680  2.5726 -1.7965  1.5476
 1431TIP3    H225709   3.743   4.333   3.709 -0.5353  2.7311 -2.1546
 1432TIP3   OH225710   6.544   5.957   3.937  0.0410 -0.0939  0.3526
 1432TIP3    H125711   6.482   5.966   4.010  1.5342 -1.4297  1.8493
 1432TIP3    H225712   6.568   6.047   3.917 -2.8311  0.5489 -0.7578
 1433TIP3   OH225713   2.560   5.798  14.979  0.0845 -0.4683  0.2051
 1433TIP3    H125714   2.516   5.818  15.062 -0.9914  0.2438 -0.5192
 1433TIP3    H225715   2.634   5.744  15.005 -1.2959 -1.8677  1.4638
 1434TIP3   OH225716   1.172   5.664  15.765  0.4264 -1.0997 -0.0258
 1434TIP3    H125717   1.242   5.635  15.824 -0.6143 -1.7339  0.9354
 1434TIP3    H225718   1.099   5.686  15.823 -0.0213  0.0192 -0.9757
 1435TIP3   OH225719   0.070   2.935   0.744  0.1008 -0.0536 -0.6905
 1435TIP3    H125720   0.065   2.843   0.720  0.7089 -0.5749  1.0443
 1435TIP3    H225721  -0.018   2.958   0.773  0.6843 -1.2070  2.4406
 1436TIP3   OH225722   3.267   1.849  15.942 -0.0811 -0.3622  0.2332
 1436TIP3    H125723   3.173   1.863  15.954 -0.0933  0.0849 -0.3634
 1436TIP3    H225724   3.295   1.809  16.024 -0.8004 -0.5438  0.4006
 1437TIP3   OH225725   3.110   2.237   5.543 -0.0783 -0.1764  0.3170
 1437TIP3    H125726   3.204   2.252   5.529 -0.2399  0.0150 -0.6267
 1437TIP3    H225727   3.074   2.324   5.557  0.1607 -0.3969  2.6587
 1438TIP3   OH225728   0.342   4.163  15.850 -0.0703 -0.3416  0.4231
 1438TIP3    H125729   0.295   4.217  15.785  0.6925 -0.3566 -0.1531
 1438TIP3    H225730   0.292   4.175  15.931 -1.1762 -0.5018 -0.2088
 1439TIP3   OH225731   2.406   1.324   5.050 -0.5421  0.1361  0.2448
 1439TIP3    H125732   2.406   1.263   5.123  0.9980 -2.6175 -1.8642
 1439TIP3    H225733   2.475   1.387   5.071 -0.5900 -0.1900  1.4312
 1440TIP3   OH225734   0.041   0.972   0.540 -0.3764  0.0605  0.3539
 1440TIP3    H125735   0.103   1.022   0.592 -0.0304  1.5855 -1.4241
 1440TIP3    H225736   0.093   0.902   0.501  0.0616  0.7908 -0.4020
 1441TIP3   OH225737   4.814   4.652  13.672 -0.8414 -0.2965  0.2883
 1441TIP3    H125738   4.910   4.649  13.674 -0.6374  2.5053 -0.9339
 1441TIP3    H225739   4.787   4.563  13.694  2.0046 -0.9310  1.6646
 1442TIP3   OH225740   4.624   6.744  16.311 -0.3256  0.0443 -0.5927
 1442TIP3    H125741   4.609   6.830  16.350  2.4667  1.1570 -1.7437
 1442TIP3    H225742   4.638   6.686  16.386 -0.6087  0.9347  0.1653
 1443TIP3   OH225743   5.791   5.323   4.686  0.0831  0.2030  0.3340
 1443TIP3    H125744   5.883   5.315   4.660  0.1353  1.4864  0.0343
 1443TIP3    H225745   5.748   5.357   4.607 -0.4828  0.4271  0.7409
 1444TIP3   OH225746   5.283   6.658   2.035  0.2171 -0.1513  0.2534
 1444TIP3    H125747   5.303   6.565   2.048 -1.0809 -0.8790 -2.2678
 1444TIP3    H225748   5.366   6.696   2.005  0.5467 -0.6923  0.4590
 1445TIP3   OH225749   2.957   6.088  13.126  0.0455 -0.0670  0.2661
 1445TIP3    H125750   2.892   6.065  13.060  0.6340  0.6882 -0.5965
 1445TIP3    H225751   2.986   6.004  13.161  1.7343 -0.7039 -2.3991
 1446TIP3   OH225752   1.596   4.960  16.849 -0.0809 -0.3879  0.5941
 1446TIP3    H125753   1.635   5.035  16.805  1.7189 -0.4507  1.9691
 1446TIP3    H225754   1.502   4.966  16.829 -0.0511  2.4517  1.0138
 1447TIP3   OH225755   2.618   5.903  13.937  0.3885  0.0717 -0.1356
 1447TIP3    H125756   2.656   5.898  13.850  0.4348  0.9113 -0.1756
 1447TIP3    H225757   2.551   5.971  13.930  0.7936  0.5679  0.6221
 1448TIP3   OH225758   5.155   2.864  13.444 -0.6689 -0.1843 -0.1797
 1448TIP3    H125759   5.200   2.944  13.470 -2.8086  1.5394 -1.4271
 1448TIP3    H225760   5.197   2.839  13.362 -0.2403 -0.1253  0.0195
 1449TIP3   OH225761   3.921   6.017  13.318  0.2869  0.3250  0.0013
 1449TIP3    H125762   3.902   6.068  13.397 -0.8486  0.6178 -0.4387
 1449TIP3    H225763   3.952   6.082  13.255  2.2063 -0.0522  0.4912
 1450TIP3   OH225764   1.998   4.945  16.896  0.4419 -0.3760  0.2297
 1450TIP3    H125765   2.030   4.856  16.879  0.0560 -0.3814 -0.5240
 1450TIP3    H225766   1.938   4.935  16.970  0.9510 -0.6219  0.6113
 1451TIP3   OH225767   0.048   5.336  11.977  0.4426 -0.1094 -0.2642
 1451TIP3    H125768   0.109   5.353  12.049  0.9837 -0.0387 -0.7374
 1451TIP3    H225769   0.026   5.422  11.942  0.1021 -0.1370 -0.1250
 1452TIP3   OH225770   6.200   2.888  15.017  0.1036  0.0784  0.4371
 1452TIP3    H125771   6.203   2.803  14.974  0.8288  0.4619 -0.3006
 1452TIP3    H225772   6.292   2.911  15.031 -0.0387  1.2270 -0.3766
 1453TIP3   OH225773   5.504   4.017   5.225 -0.4618  0.5549  0.0103
 1453TIP3    H125774   5.502   4.094   5.168 -0.3872  0.5352 -0.0189
 1453TIP3    H225775   5.578   4.032   5.284 -0.1909  0.3132 -0.2657
 1454TIP3   OH225776   2.026   0.143  15.379 -0.1419  0.0098  0.2058
 1454TIP3    H125777   1.944   0.192  15.381  1.3717  2.7462  1.7292
 1454TIP3    H225778   2.016   0.076  15.446 -2.1145 -1.7096 -1.6389
 1455TIP3   OH225779   2.199   0.944   3.542 -0.1962  0.2517 -0.7867
 1455TIP3    H125780   2.165   1.023   3.500  0.9350  2.2108  1.7944
 1455TIP3    H225781   2.147   0.935   3.622  0.3536 -1.0648 -0.5549
 1456TIP3   OH225782   6.161   4.865  16.433 -0.5067  0.0390  0.1635
 1456TIP3    H125783   6.125   4.838  16.518  0.7862  0.5576  0.8897
 1456TIP3    H225784   6.139   4.792  16.375 -1.9835 -0.0367  0.7634
 1457TIP3   OH225785   3.819   0.862  11.300  0.2198  0.0930 -0.3298
 1457TIP3    H125786   3.892   0.815  11.259 -1.4238 -1.4423 -1.6308
 1457TIP3    H225787   3.802   0.936  11.241  1.7512  1.5030  0.8760
 1458TIP3   OH225788   2.444   6.712  14.719  0.3619  0.1841  0.3307
 1458TIP3    H125789   2.425   6.778  14.787  0.1890  0.5462 -0.0661
 1458TIP3    H225790   2.476   6.636  14.768 -0.9969 -0.0295  0.9317
 1459TIP3   OH225791   6.631   3.685   6.698  0.5758 -0.5322  0.3475
 1459TIP3    H125792   6.658   3.600   6.663  0.9781 -0.3805  0.2810
 1459TIP3    H225793   6.539   3.672   6.723  0.2504 -0.6246 -0.8213
 1460TIP3   OH225794   0.798   1.212   0.713 -0.0765  0.2765 -0.3486
 1460TIP3    H125795   0.861   1.256   0.771  0.7690 -0.8912 -0.3360
 1460TIP3    H225796   0.714   1.223   0.756  0.4106  0.1702  0.6751
 1461TIP3   OH225797   6.108   3.686   4.054  0.1406  0.3323  0.4964
 1461TIP3    H125798   6.026   3.732   4.036 -0.9331 -1.1864  1.2371
 1461TIP3    H225799   6.152   3.739   4.120 -0.2280  1.1764  0.0831
 1462TIP3   OH225800   5.975   3.376   1.109  0.0077  0.5512  0.2235
 1462TIP3    H125801   6.017   3.290   1.111 -0.4984  0.2466 -1.1747
 1462TIP3    H225802   5.920   3.374   1.031 -2.0682  1.1843  1.5910
 1463TIP3   OH225803   2.385   0.715  11.649  0.3828 -0.1314 -0.3358
 1463TIP3    H125804   2.431   0.632  11.643  0.4043 -0.7308  4.2591
 1463TIP3    H225805   2.453   0.779  11.671 -0.1226  0.2360  0.1993
 1464TIP3   OH225806   0.465   6.569  12.142  0.1082 -0.0492  0.2890
 1464TIP3    H125807   0.472   6.656  12.180 -1.6711 -0.0769  0.7434
 1464TIP3    H225808   0.376   6.565  12.106  0.8320 -0.9550 -1.5640
 1465TIP3   OH225809   5.476   0.636   6.488  0.3254 -0.0448  0.2376
 1465TIP3    H125810   5.479   0.544   6.462  1.5614  0.2897 -0.9437
 1465TIP3    H225811   5.543   0.678   6.434  0.1012  1.4711  1.0836
 1466TIP3   OH225812   6.558   3.496   4.643 -0.6389 -0.2167 -0.4086
 1466TIP3    H125813   6.549   3.521   4.735  0.3000  0.4706 -0.4937
 1466TIP3    H225814   6.594   3.574   4.600  1.5258 -1.3686 -0.8438
 1467TIP3   OH225815   1.366   0.613   2.133 -0.4038 -0.3065  0.6234
 1467TIP3    H125816   1.337   0.621   2.223 -1.4769 -0.5737  0.3214
 1467TIP3    H225817   1.309   0.545   2.096 -2.0818  1.8629 -1.0791
 1468TIP3   OH225818   1.303   4.602   1.095 -0.2808  0.3512 -0.5634
 1468TIP3    H125819   1.297   4.528   1.155 -1.3544  0.2630 -0.7608
 1468TIP3    H225820   1.213   4.633   1.085 -0.3644 -0.4165 -3.0829
 1469TIP3   OH225821   5.260   0.518   1.238 -0.7844 -0.0375  0.1728
 1469TIP3    H125822   5.287   0.559   1.321  0.7268 -0.8901  0.1407
 1469TIP3    H225823   5.265   0.424   1.256 -0.8657 -0.2243 -0.7646
 1470TIP3   OH225824   0.926   5.261   4.099  0.5331 -0.2584 -0.0110
 1470TIP3    H125825   0.856   5.318   4.069 -0.1169 -0.1161  1.6900
 1470TIP3    H225826   0.993   5.267   4.030 -0.6918  0.3478 -1.1947
 1471TIP3   OH225827   1.342   2.567   4.211 -0.0492 -0.5481  0.0407
 1471TIP3    H125828   1.327   2.487   4.162 -0.0658 -0.7103  0.3114
 1471TIP3    H225829   1.434   2.589   4.193 -0.6454  0.6793 -1.9598
 1472TIP3   OH225830   4.699   3.774  14.657  0.2177  0.2525  0.1199
 1472TIP3    H125831   4.690   3.695  14.604 -1.0012  1.0003 -0.8266
 1472TIP3    H225832   4.610   3.806  14.670  0.6773  1.4282  0.5671
 1473TIP3   OH225833   2.449   0.382   0.359 -0.8802  0.4070 -0.7770
 1473TIP3    H125834   2.532   0.427   0.374 -0.4165 -0.5957 -0.1933
 1473TIP3    H225835   2.473   0.302   0.313 -1.5647  0.2783 -0.9218
 1474TIP3   OH225836   2.753   0.939   5.813  0.5236 -0.7054 -0.1131
 1474TIP3    H125837   2.758   0.997   5.737  1.7279  0.8964  1.1060
 1474TIP3    H225838   2.720   0.995   5.884 -0.0089 -1.9977  0.6885
 1475TIP3   OH225839   3.023   3.674   4.555 -0.2623 -0.9275  0.2421
 1475TIP3    H125840   2.971   3.712   4.484  0.5314 -1.8360 -0.8645
 1475TIP3    H225841   3.042   3.748   4.613 -0.1317  0.0489 -0.9991
 1476TIP3   OH225842   1.755   3.472   3.863 -0.2369 -0.2389 -0.5318
 1476TIP3    H125843   1.810   3.402   3.830 -0.0963 -0.8746  0.9510
 1476TIP3    H225844   1.759   3.463   3.958 -0.0149  1.9458 -0.2744
 1477TIP3   OH225845   5.199   3.829  16.549  0.3366 -0.2028  0.2809
 1477TIP3    H125846   5.252   3.878  16.485 -0.5512  2.6078  1.5260
 1477TIP3    H225847   5.128   3.791  16.497  1.8415 -1.4609 -0.9454
 1478TIP3   OH225848   6.365   0.154  15.993  0.2091  0.1812  0.2299
 1478TIP3    H125849   6.308   0.175  16.067  1.0198  1.1616  0.6007
 1478TIP3    H225850   6.390   0.063  16.008 -0.8606 -0.1108  0.3173
 1479TIP3   OH225851   5.133   5.178  12.449 -0.6916 -0.0712 -0.2615
 1479TIP3    H125852   5.200   5.163  12.383  0.3374 -1.5315  1.0351
 1479TIP3    H225853   5.182   5.209  12.526 -1.5958 -0.3452  0.4383
 1480TIP3   OH225854   1.698   3.405   1.116 -0.1623 -0.1780 -0.1786
 1480TIP3    H125855   1.699   3.476   1.180  1.7415  1.0482 -1.4543
 1480TIP3    H225856   1.607   3.400   1.088 -0.7223  0.3344  1.4395
 1481TIP3   OH225857   0.781   3.803  15.512  0.0591  0.2147 -0.4268
 1481TIP3    H125858   0.818   3.891  15.515 -0.0178  0.2244  1.3161
 1481TIP3    H225859   0.689   3.815  15.534 -0.6213 -0.0231 -2.8823
 1482TIP3   OH225860   0.118   3.615  13.476 -0.4735  0.0229 -0.2449
 1482TIP3    H125861   0.148   3.557  13.407 -0.0894 -0.7940  0.5991
 1482TIP3    H225862   0.158   3.700  13.455  0.6185 -0.5094 -0.3551
 1483TIP3   OH225863   3.989   2.307  11.373  0.2862 -0.1248  0.1698
 1483TIP3    H125864   3.901   2.302  11.409 -0.6615 -2.5939 -2.1302
 1483TIP3    H225865   3.980   2.275  11.283  3.4087  0.2709 -0.3958
 1484TIP3   OH225866   5.730   0.708  14.724 -0.3522 -0.3245 -0.0587
 1484TIP3    H125867   5.773   0.631  14.762 -0.9853 -0.4450  0.4258
 1484TIP3    H225868   5.740   0.697  14.629  0.4840 -0.4603  0.0319
 1485TIP3   OH225869   5.573   1.683  14.932 -0.2255  0.3013 -0.1015
 1485TIP3    H125870   5.653   1.688  14.985 -0.2475  1.6970 -0.1768
 1485TIP3    H225871   5.527   1.765  14.949 -1.4699 -0.3155 -0.3597
 1486TIP3   OH225872   3.959   0.663  13.232 -0.1931 -0.5593  0.0770
 1486TIP3    H125873   3.888   0.610  13.196 -1.8093  0.8437  1.0766
 1486TIP3    H225874   3.956   0.648  13.326 -0.6243  1.1579  0.3769
 1487TIP3   OH225875   1.655   5.720   5.757 -0.1119 -0.0586 -0.7263
 1487TIP3    H125876   1.664   5.771   5.838  0.0017  0.5900 -1.1370
 1487TIP3    H225877   1.730   5.747   5.704 -0.6582  0.1657 -1.3934
 1488TIP3   OH225878   2.206   5.869   2.831 -0.0022  0.3596 -0.0858
 1488TIP3    H125879   2.131   5.928   2.821 -1.6551 -2.0188 -3.6297
 1488TIP3    H225880   2.176   5.801   2.891  0.4637  0.9443  0.8362
 1489TIP3   OH225881   1.769   5.759   3.535 -0.4533  0.9908  0.5100
 1489TIP3    H125882   1.803   5.811   3.462 -0.0331 -1.6953 -1.3675
 1489TIP3    H225883   1.677   5.744   3.513  0.0142 -1.0041 -0.3093
 1490TIP3   OH225884   0.213   5.601   5.457 -0.1728  0.4836  0.2040
 1490TIP3    H125885   0.295   5.591   5.409 -0.5632  0.8669 -0.5594
 1490TIP3    H225886   0.214   5.529   5.521  0.3903  0.0101 -0.3246
 1491TIP3   OH225887   5.468   5.834   3.952 -0.8119  0.0422 -0.0100
 1491TIP3    H125888   5.475   5.929   3.958  1.1920 -0.0801  0.5756
 1491TIP3    H225889   5.558   5.805   3.933 -1.1956 -1.7737  0.7582
 1492TIP3   OH225890   6.594   3.509   0.414  0.4768 -0.3982  0.0742
 1492TIP3    H125891   6.559   3.598   0.417  0.3541 -0.4470  0.0877
 1492TIP3    H225892   6.684   3.518   0.447  1.1042  0.0158 -1.6588
 1493TIP3   OH225893   2.728   4.037   3.891  0.1111 -0.0707 -0.0816
 1493TIP3    H125894   2.782   4.004   3.963  0.4177  0.5473 -0.0257
 1493TIP3    H225895   2.751   3.981   3.817  0.0956 -0.4456  0.1910
 1494TIP3   OH225896   1.490   0.984  13.116  0.0458  0.0188  0.3267
 1494TIP3    H125897   1.547   1.060  13.127  1.2385 -1.1106  2.5164
 1494TIP3    H225898   1.417   1.016  13.062  1.0283  2.4091  0.3187
 1495TIP3   OH225899   0.284   6.305  15.612  0.4126 -0.2183  0.3582
 1495TIP3    H125900   0.311   6.236  15.552  1.7334  0.9632 -0.4658
 1495TIP3    H225901   0.331   6.383  15.583 -1.8003  1.3234  0.6020
 1496TIP3   OH225902   6.033   2.904  14.505  0.0048 -0.1758 -0.0634
 1496TIP3    H125903   6.006   2.845  14.575  0.0290  1.3846  1.3107
 1496TIP3    H225904   6.068   2.980  14.550 -0.4512  1.1059 -1.7744
 1497TIP3   OH225905   0.711   2.136   4.826 -0.3980 -0.5267 -0.2012
 1497TIP3    H125906   0.730   2.045   4.803  0.2794 -0.2183 -0.9120
 1497TIP3    H225907   0.778   2.187   4.781 -2.7809  0.6402 -2.7874
 1498TIP3   OH225908   2.940   4.994   1.799  0.1808 -0.7060 -0.3308
 1498TIP3    H125909   2.965   5.027   1.885 -1.4439  0.7041 -0.3406
 1498TIP3    H225910   3.022   4.966   1.759  1.1053 -0.3964  1.2583
 1499TIP3   OH225911   0.342   2.664   4.335  0.3389  0.7316  0.3467
 1499TIP3    H125912   0.311   2.753   4.318  0.8897  0.7657 -0.5420
 1499TIP3    H225913   0.274   2.625   4.390 -0.7035  1.1785 -0.6020
 1500TIP3   OH225914   4.019   0.141   1.180  0.0874  0.2408 -0.0133
 1500TIP3    H125915   4.003   0.059   1.133  0.1898  0.1576  0.0979
 1500TIP3    H225916   4.108   0.133   1.213 -0.0564  0.2184  0.3644
 1501TIP3   OH225917   1.535   6.732  12.046 -0.1694 -0.5215 -0.2001
 1501TIP3    H125918   1.570   6.687  11.969  1.8517  0.7704 -0.1235
 1501TIP3    H225919   1.446   6.755  12.022 -0.7198 -3.0755 -0.8394
 1502TIP3   OH225920   3.282   4.341  13.214  0.1883 -0.0626 -0.5638
 1502TIP3    H125921   3.315   4.428  13.237 -0.6474  0.1752 -0.2233
 1502TIP3    H225922   3.254   4.349  13.122 -1.8528  0.6691  0.0600
 1503TIP3   OH225923   6.499   5.393   2.867  0.6266  0.5045 -0.3376
 1503TIP3    H125924   6.590   5.379   2.839  0.4612 -0.7220 -0.3216
 1503TIP3    H225925   6.505   5.410   2.961  0.9612  2.0303 -0.6118
 1504TIP3   OH225926   2.217   3.609  17.121  0.4124  0.0318  0.1066
 1504TIP3    H125927   2.257   3.670  17.183  0.3584 -1.7619  2.0135
 1504TIP3    H225928   2.290   3.566  17.079  0.4659  1.8079 -1.7816
 1505TIP3   OH225929   4.997   0.702   5.564 -0.3495  0.0033  0.0831
 1505TIP3    H125930   4.929   0.760   5.598 -0.2246  0.4972 -0.4975
 1505TIP3    H225931   5.045   0.756   5.501  2.1924  0.5176  2.2764
 1506TIP3   OH225932   4.289   3.015   1.264  0.4092 -0.8448 -0.0317
 1506TIP3    H125933   4.338   2.968   1.197  0.8951  1.0901 -1.1356
 1506TIP3    H225934   4.339   3.096   1.277 -1.0346 -0.0430  0.8340
 1507TIP3   OH225935   0.693   5.769  14.292 -0.4331  0.1515  0.2292
 1507TIP3    H125936   0.649   5.850  14.318  1.1928  0.9511  0.6455
 1507TIP3    H225937   0.624   5.713  14.257 -1.8682  1.0377  1.5639
 1508TIP3   OH225938   6.215   6.477  12.337 -0.1537 -0.5190 -0.5960
 1508TIP3    H125939   6.276   6.421  12.290 -0.5562 -1.0369 -0.5098
 1508TIP3    H225940   6.210   6.440  12.425  1.8047  1.3643  0.3900
 1509TIP3   OH225941   1.030   5.860   3.704 -0.1365 -0.4575  0.2692
 1509TIP3    H125942   1.066   5.776   3.676 -0.7840 -0.5707 -0.2753
 1509TIP3    H225943   0.999   5.845   3.793  0.9646 -0.4098  0.6724
 1510TIP3   OH225944   4.078   3.692  11.038 -1.1855  0.8128  0.1326
 1510TIP3    H125945   4.132   3.764  11.070 -2.7527  1.8413  0.5505
 1510TIP3    H225946   4.006   3.734  10.992 -1.4076 -0.5394 -0.8385
 1511TIP3   OH225947   3.756   4.280   5.975  0.2453  0.8060  0.4604
 1511TIP3    H125948   3.745   4.268   6.070 -0.2401 -2.3545  0.0946
 1511TIP3    H225949   3.851   4.287   5.963  0.2855  1.8801  1.1842
 1512TIP3   OH225950   3.387   4.119  10.451 -0.2579  0.0214  0.2679
 1512TIP3    H125951   3.347   4.041  10.489 -0.4852  0.8996  1.9397
 1512TIP3    H225952   3.354   4.121  10.361  0.4583 -2.2487 -0.1078
 1513TIP3   OH225953   2.191   3.066  11.903  0.0304 -0.0384 -0.0968
 1513TIP3    H125954   2.165   3.032  11.817 -2.1462  0.7665  0.1631
 1513TIP3    H225955   2.118   3.043  11.960  1.3134 -0.3110  1.4957
 1514TIP3   OH225956   3.480   0.715  15.058 -0.3922  0.2530  0.5085
 1514TIP3    H125957   3.533   0.715  15.138 -0.3456  1.9035  0.5187
 1514TIP3    H225958   3.427   0.794  15.064 -1.8586 -0.6307 -0.1777
 1515TIP3   OH225959   6.479   4.020   3.997  0.1904  0.0905  0.3092
 1515TIP3    H125960   6.469   3.935   4.041  1.0977 -0.1871  0.0062
 1515TIP3    H225961   6.514   4.078   4.065  4.6795 -1.1101 -0.6333
 1516TIP3   OH225962   6.006   1.927  13.086  0.0448 -0.0295 -0.0382
 1516TIP3    H125963   6.053   2.003  13.053 -0.1418  0.1801  0.1757
 1516TIP3    H225964   6.004   1.939  13.181  0.0291 -0.3072 -0.0032
 1517TIP3   OH225965   0.633   6.245   0.906  0.5011  0.4517  0.3318
 1517TIP3    H125966   0.542   6.258   0.934  0.2660  0.0844 -0.2449
 1517TIP3    H225967   0.629   6.246   0.810  0.8713 -1.1421  0.2773
 1518TIP3   OH225968   3.908   5.920  15.088 -0.0309 -0.0269  0.8872
 1518TIP3    H125969   3.957   5.883  15.015 -0.0367  1.6080  0.0206
 1518TIP3    H225970   3.826   5.870  15.090 -0.7099  0.9161 -1.2478
 1519TIP3   OH225971   1.024   1.534   1.816 -0.0664  0.3797 -0.3194
 1519TIP3    H125972   1.104   1.554   1.866 -0.7141  2.2657  0.0353
 1519TIP3    H225973   0.992   1.453   1.854  0.6501  0.6306  0.8685
 1520TIP3   OH225974   4.448   2.963   2.786  0.1825 -0.1407  0.1822
 1520TIP3    H125975   4.500   2.884   2.802  0.1546 -0.2704 -0.3574
 1520TIP3    H225976   4.367   2.931   2.747  0.2269  0.1589 -0.1660
 1521TIP3   OH225977   1.078   3.966  15.401 -0.3040  0.3947 -0.4018
 1521TIP3    H125978   1.065   3.915  15.322 -0.3861 -0.6564  0.2726
 1521TIP3    H225979   0.992   4.005  15.419 -0.4920 -0.0386 -0.3648
 1522TIP3   OH225980   4.000   5.142   2.417  0.0416 -0.2057  0.1474
 1522TIP3    H125981   4.081   5.122   2.464  1.1029  0.1578 -1.4530
 1522TIP3    H225982   4.022   5.216   2.362 -1.3730 -0.1525 -0.3786
 1523TIP3   OH225983   1.424   4.798   3.622  0.2893  0.5658 -0.0720
 1523TIP3    H125984   1.458   4.863   3.684 -1.1818  1.6247 -0.3259
 1523TIP3    H225985   1.502   4.749   3.594  1.2078  1.1123  1.3810
 1524TIP3   OH225986   0.646   2.976   1.395 -0.0070 -0.3250  0.5472
 1524TIP3    H125987   0.614   2.889   1.416  0.0141 -0.8128 -1.2881
 1524TIP3    H225988   0.610   2.995   1.308  3.1403 -0.1574 -0.8520
 1525TIP3   OH225989   6.089   6.694   5.352 -0.4006 -0.2119 -0.4221
 1525TIP3    H125990   6.169   6.736   5.386 -0.8716  0.9518 -0.7178
 1525TIP3    H225991   6.027   6.699   5.425 -0.0441 -1.6074 -0.0067
 1526TIP3   OH225992   4.727   6.618  11.469 -0.2181 -0.7551 -0.5095
 1526TIP3    H125993   4.749   6.545  11.410 -1.2787 -0.5058 -1.2578
 1526TIP3    H225994   4.651   6.659  11.428  0.9876  1.4500 -0.7006
 1527TIP3   OH225995   0.535   6.567   1.445 -0.1515 -0.7044 -0.6548
 1527TIP3    H125996   0.580   6.639   1.402 -2.1210  0.0846 -1.4738
 1527TIP3    H225997   0.593   6.492   1.432  2.7083  0.9170  1.5264
 1528TIP3   OH225998   2.365   0.223  17.066  0.5302 -0.3916  0.5123
 1528TIP3    H125999   2.281   0.224  17.018 -0.2554  0.9662  1.8408
 1528TIP3    H226000   2.431   0.238  16.998 -0.2509 -1.7377 -0.6004
 1529TIP3   OH226001   4.763   2.882   5.598  0.0885  0.5958  0.3294
 1529TIP3    H126002   4.814   2.959   5.574  1.5547 -0.2775  0.5689
 1529TIP3    H226003   4.776   2.821   5.526 -0.8322  0.4372  0.2798
 1530TIP3   OH226004   5.529   6.784   1.964 -0.6947  0.4210 -0.2636
 1530TIP3    H126005   5.616   6.782   2.003 -0.8223  0.4661  0.0255
 1530TIP3    H226006   5.533   6.721   1.892 -0.9593 -0.9857  0.8969
 1531TIP3   OH226007   6.497   4.772   2.750  0.0673 -0.1223 -0.2553
 1531TIP3    H126008   6.554   4.733   2.683  0.6706 -0.7546  0.6018
 1531TIP3    H226009   6.554   4.834   2.796  0.8150 -2.3503  2.0741
 1532TIP3   OH226010   3.344   1.745  14.115 -0.4409 -0.1977  0.0687
 1532TIP3    H126011   3.371   1.803  14.044  0.3311  0.8672  1.1881
 1532TIP3    H226012   3.251   1.729  14.100 -0.1221 -0.6588 -1.6154
 1533TIP3   OH226013   4.152   6.059  15.184  0.2030 -0.0462 -0.5088
 1533TIP3    H126014   4.173   6.146  15.149 -0.9350  1.0192  1.2866
 1533TIP3    H226015   4.071   6.035  15.141  0.2710 -0.0109 -0.6580
 1534TIP3   OH226016   0.079   0.005   5.834 -0.3939 -0.4799 -0.4483
 1534TIP3    H126017   0.034  -0.054   5.773  1.6803 -0.1465 -2.4141
 1534TIP3    H226018   0.042   0.092   5.814 -1.0990 -0.6311  0.1578
 1535TIP3   OH226019   5.468   4.887  14.936 -0.2752  0.1638  0.4530
 1535TIP3    H126020   5.503   4.830  14.868  0.5152 -0.0495  1.0255
 1535TIP3    H226021   5.546   4.927  14.976 -0.7205  0.1791  1.3225
 1536TIP3   OH226022   1.146   2.339   3.881 -0.2885  0.0899 -0.1850
 1536TIP3    H126023   1.074   2.399   3.903 -0.4307 -0.8545  2.2270
 1536TIP3    H226024   1.119   2.255   3.919  1.8524 -0.4005  0.3728
 1537TIP3   OH226025   1.266   0.964  14.308 -0.1748  0.8909 -0.0923
 1537TIP3    H126026   1.306   0.981  14.393 -1.4199 -0.1995  0.7664
 1537TIP3    H226027   1.274   0.870  14.296 -0.0643  1.0229 -1.1798
 1538TIP3   OH226028   5.791   6.224  14.613  0.1691 -0.5946  0.5162
 1538TIP3    H126029   5.815   6.169  14.538 -0.4764 -1.6222  1.0368
 1538TIP3    H226030   5.848   6.300  14.606  1.1799 -1.3846 -0.1636
 1539TIP3   OH226031   6.543   4.405  11.651  0.7661 -0.1177  0.2290
 1539TIP3    H126032   6.634   4.434  11.659  1.0075 -0.3470 -1.4109
 1539TIP3    H226033   6.491   4.481  11.680  1.4544  0.7090 -0.6501
 1540TIP3   OH226034   4.247   0.821   6.199  0.8572 -0.2893 -0.6380
 1540TIP3    H126035   4.279   0.871   6.124 -1.3744  2.3976  0.0350
 1540TIP3    H226036   4.320   0.819   6.260  1.4816  0.9039 -1.3093
 1541TIP3   OH226037   0.973   5.081   0.069  0.3197 -0.3881  0.1507
 1541TIP3    H126038   0.957   5.113  -0.020  0.9418  1.0384  0.5136
 1541TIP3    H226039   1.018   4.997   0.058 -1.3035 -1.1665 -0.8594
 1542TIP3   OH226040   5.832   1.180   5.375  0.7511 -0.0139  0.2091
 1542TIP3    H126041   5.756   1.129   5.404 -0.5240  0.6511 -1.7661
 1542TIP3    H226042   5.907   1.125   5.398 -0.3586 -1.1237  1.3731
 1543TIP3   OH226043   1.443   5.435   0.802  0.7997  0.5932  0.3965
 1543TIP3    H126044   1.411   5.487   0.729 -2.4623 -1.4921  0.1491
 1543TIP3    H226045   1.405   5.477   0.880 -2.0283 -1.3145  0.1794
 1544TIP3   OH226046   0.020   2.850  16.367 -0.3473 -0.3290  0.4150
 1544TIP3    H126047   0.064   2.851  16.452  0.2744  1.3691  0.1036
 1544TIP3    H226048   0.002   2.942  16.348 -0.7367 -0.7099 -1.1725
 1545TIP3   OH226049   1.285   5.240   4.434 -0.0914 -0.1770  0.2189
 1545TIP3    H126050   1.301   5.334   4.431  1.1943 -0.3802 -0.3817
 1545TIP3    H226051   1.315   5.208   4.348 -1.2839 -1.0263  0.0944
 1546TIP3   OH226052   0.490   1.234  11.856  0.3986  0.0928  0.1230
 1546TIP3    H126053   0.444   1.183  11.922 -0.3662  0.6392  0.0262
 1546TIP3    H226054   0.560   1.176  11.825 -0.1520 -0.7093  0.3524
 1547TIP3   OH226055   5.913   0.758   0.214 -0.0394 -0.3999 -0.4245
 1547TIP3    H126056   5.830   0.800   0.191  0.1147 -1.2347 -2.7059
 1547TIP3    H226057   5.964   0.828   0.255 -2.0206 -0.0081  1.6061
 1548TIP3   OH226058   3.471   2.838  14.735  0.0233 -0.1771 -0.3491
 1548TIP3    H126059   3.465   2.870  14.824 -1.8870 -2.8787  0.6311
 1548TIP3    H226060   3.565   2.826  14.720  0.3795  0.4796  1.2077
 1549TIP3   OH226061   6.556   4.027   2.521  0.3238 -0.6397  0.4044
 1549TIP3    H126062   6.584   4.118   2.532 -1.3199  0.0838 -0.9802
 1549TIP3    H226063   6.461   4.031   2.516  0.1438 -2.5786  1.2932
 1550TIP3   OH226064   4.139   4.799  16.426  0.7555 -0.1858  0.0295
 1550TIP3    H126065   4.210   4.765  16.372 -0.2904 -0.8154 -1.0022
 1550TIP3    H226066   4.159   4.892  16.435  0.4478  0.1964 -2.3655
 1551TIP3   OH226067   5.973   6.422  14.535 -0.2716 -0.3030  0.0459
 1551TIP3    H126068   5.977   6.483  14.608 -0.9387  0.1787 -0.3045
 1551TIP3    H226069   5.918   6.466  14.470 -0.8844 -1.3316 -0.1578
 1552TIP3   OH226070   5.338   6.775   3.053  0.0050  0.3407  0.0440
 1552TIP3    H126071   5.286   6.769   2.973 -1.3219  0.3085  0.8706
 1552TIP3    H226072   5.298   6.711   3.112 -0.2643  1.6913  1.3854
 1553TIP3   OH226073   0.867   6.633   3.998 -0.2089 -0.1784 -0.1365
 1553TIP3    H126074   0.852   6.539   3.995 -0.0171 -0.2356  0.5113
 1553TIP3    H226075   0.827   6.667   3.918  0.5372 -0.9267 -0.8507
 1554TIP3   OH226076   6.192   0.299   1.144  0.6355 -0.6032 -0.1395
 1554TIP3    H126077   6.200   0.389   1.115 -1.5484 -0.5085 -0.5675
 1554TIP3    H226078   6.239   0.248   1.077  0.4509  0.0696 -0.7855
 1555TIP3   OH226079   1.803   1.023  11.406  0.1592  0.7022 -0.4252
 1555TIP3    H126080   1.747   0.971  11.348  0.5493  1.0547 -1.1288
 1555TIP3    H226081   1.891   1.010  11.372  0.6743 -0.6829  1.3107
 1556TIP3   OH226082   1.267   3.372   2.721 -0.1600 -0.2248  0.1542
 1556TIP3    H126083   1.199   3.425   2.763  1.2002  1.4940  0.2952
 1556TIP3    H226084   1.340   3.432   2.709  0.8501 -1.6588 -1.2769
 1557TIP3   OH226085   6.108   0.339  15.639 -0.0987 -0.4306  0.1139
 1557TIP3    H126086   6.063   0.387  15.569  1.1490 -0.5034 -0.7641
 1557TIP3    H226087   6.180   0.294  15.595 -1.3830 -3.4254  0.8186
 1558TIP3   OH226088   2.573   3.090  16.391  0.0732  0.2498  0.3309
 1558TIP3    H126089   2.508   3.160  16.395 -0.5934 -0.3122 -0.3259
 1558TIP3    H226090   2.535   3.025  16.331  1.2197 -0.1129 -0.0410
 1559TIP3   OH226091   5.012   6.333   1.098  0.7692 -0.6097 -0.2030
 1559TIP3    H126092   4.944   6.298   1.040  1.1381 -1.7255  0.0066
 1559TIP3    H226093   4.966   6.352   1.180  0.1105  1.6055 -1.0286
 1560TIP3   OH226094   4.273   5.448  14.989 -0.7599 -0.2190 -0.1075
 1560TIP3    H126095   4.177   5.445  14.993 -0.7635  0.6361  1.0553
 1560TIP3    H226096   4.301   5.437  15.080  0.3207 -2.0261 -0.6239
 1561TIP3   OH226097   1.762   4.457  16.668 -0.0763  0.1132 -0.1869
 1561TIP3    H126098   1.720   4.409  16.739  0.8103 -1.8164 -0.9090
 1561TIP3    H226099   1.717   4.542  16.667 -0.8548 -0.2095  1.9326
 1562TIP3   OH226100   3.209   0.229   5.133  0.2332 -0.5733  0.1538
 1562TIP3    H126101   3.216   0.306   5.077  1.1101 -0.2845  0.6408
 1562TIP3    H226102   3.123   0.239   5.175  0.4752  0.3435  0.4771
 1563TIP3   OH226103   6.481   3.702  11.074  0.5867  0.2176 -0.4374
 1563TIP3    H126104   6.493   3.724  11.166  1.1157  0.3649 -0.5394
 1563TIP3    H226105   6.569   3.678  11.043  0.0334 -2.4812 -0.2290
 1564TIP3   OH226106   6.286   5.323  13.162 -0.5265 -0.3046 -0.3763
 1564TIP3    H126107   6.358   5.368  13.116 -0.9123  2.0629  1.1873
 1564TIP3    H226108   6.254   5.259  13.098  2.1759 -0.6534 -1.5470
 1565TIP3   OH226109   2.288   0.950   3.064  0.7328 -0.4696  0.7221
 1565TIP3    H126110   2.282   1.012   2.991 -1.5033  0.0286  1.2729
 1565TIP3    H226111   2.354   0.988   3.122 -1.0998  1.8462  1.4018
 1566TIP3   OH226112   0.925   6.282  16.268  0.5649 -0.2464  0.1429
 1566TIP3    H126113   0.868   6.280  16.346  1.6363 -1.0038  0.9394
 1566TIP3    H226114   1.014   6.274  16.303  1.0185 -1.9275 -1.2090
 1567TIP3   OH226115   6.139   0.115   0.427 -0.4849 -0.3623  0.5580
 1567TIP3    H126116   6.088   0.068   0.493 -0.5454 -1.1757 -0.0668
 1567TIP3    H226117   6.187   0.047   0.380 -1.1311  0.1233 -0.8310
 1568TIP3   OH226118   2.125   0.914  13.794 -0.1191  0.6397 -0.4544
 1568TIP3    H126119   2.121   0.882  13.884  1.8655  0.7978 -0.2710
 1568TIP3    H226120   2.034   0.933  13.772 -0.6066  1.2014  1.7410
 1569TIP3   OH226121   6.211   2.619   3.884 -0.4073  0.1962 -0.3272
 1569TIP3    H126122   6.180   2.529   3.894 -0.8282  0.3411 -0.3122
 1569TIP3    H226123   6.178   2.665   3.960  1.2241 -0.0036  0.5417
 1570TIP3   OH226124   6.449   5.032   2.165  0.2853 -0.3349 -0.4786
 1570TIP3    H126125   6.430   5.043   2.072 -0.2780  1.9712 -0.1421
 1570TIP3    H226126   6.488   5.115   2.192  0.3709 -0.9299  1.3630
 1571TIP3   OH226127   0.359   4.922   1.349  0.1283  0.1479 -0.8919
 1571TIP3    H126128   0.373   4.976   1.427  0.0579 -0.2293 -0.6201
 1571TIP3    H226129   0.311   4.846   1.380 -0.3787  0.2505 -1.3964
 1572TIP3   OH226130   2.760   2.389   3.838  0.1801 -0.3560 -0.0104
 1572TIP3    H126131   2.674   2.370   3.876  0.2636 -1.8917 -0.5570
 1572TIP3    H226132   2.776   2.481   3.861 -1.6710  0.0104 -0.0393
 1573TIP3   OH226133   3.926   1.991  11.335  0.7550  0.0538  0.2977
 1573TIP3    H126134   3.904   1.973  11.244 -2.9029  0.3780  0.9708
 1573TIP3    H226135   3.956   2.082  11.335  2.8785 -0.5910 -0.7983
 1574TIP3   OH226136   1.344   4.275  13.085  0.4179  0.4095  0.1906
 1574TIP3    H126137   1.403   4.222  13.138  0.5222  0.4728  0.1400
 1574TIP3    H226138   1.402   4.323  13.025  0.4254  1.3700  0.9327
 1575TIP3   OH226139   3.871   4.796  16.527 -0.2061  0.3825  0.2824
 1575TIP3    H126140   3.955   4.806  16.483 -1.2165 -0.5078 -2.0046
 1575TIP3    H226141   3.860   4.878  16.576  1.4762  0.9843 -0.2610
 1576TIP3   OH226142   2.278   2.283  17.025  0.0281  0.4116  0.3620
 1576TIP3    H126143   2.260   2.190  17.040  1.9569 -0.8588 -3.8617
 1576TIP3    H226144   2.365   2.297  17.063 -0.6961  0.8654  1.9353
 1577TIP3   OH226145   4.537   2.526  12.806 -0.2399  0.4323 -0.3303
 1577TIP3    H126146   4.526   2.552  12.715  1.4748  0.4161 -0.5719
 1577TIP3    H226147   4.585   2.443  12.802 -2.5520 -1.0280  0.5328
 1578TIP3   OH226148   5.806   0.378   0.342 -0.4390  0.0491 -0.0210
 1578TIP3    H126149   5.726   0.424   0.318 -0.8645 -0.6502  0.0544
 1578TIP3    H226150   5.824   0.319   0.269 -0.8899 -0.9628  0.6618
 1579TIP3   OH226151   4.279   4.207  11.155 -0.1822 -0.0602 -0.3816
 1579TIP3    H126152   4.229   4.141  11.203  2.3015  0.3820  3.2570
 1579TIP3    H226153   4.247   4.290  11.188  0.7982  0.3153 -0.3435
 1580TIP3   OH226154   1.427   0.840   0.597  0.7598 -0.3210  0.4153
 1580TIP3    H126155   1.480   0.897   0.542 -0.2086 -0.2221 -0.4548
 1580TIP3    H226156   1.469   0.754   0.592 -0.8013 -1.0207 -2.7658
 1581TIP3   OH226157   0.782   2.079   2.007 -0.1484  0.3239  0.0092
 1581TIP3    H126158   0.831   2.004   2.040  0.0304 -0.2206 -1.4159
 1581TIP3    H226159   0.826   2.102   1.925 -0.0828  2.1113  0.4922
 1582TIP3   OH226160   2.157   4.628  12.211  0.2312  0.5757  0.6021
 1582TIP3    H126161   2.162   4.679  12.292  0.7403  2.0022 -0.2970
 1582TIP3    H226162   2.215   4.673  12.150 -0.7402 -0.0139 -0.8181
 1583TIP3   OH226163   2.303   3.114   3.422  0.6976 -0.2873  0.1907
 1583TIP3    H126164   2.385   3.104   3.471  0.9793  0.3223 -0.1433
 1583TIP3    H226165   2.271   3.201   3.446  0.5139 -0.2369 -0.2321
 1584TIP3   OH226166   0.525   2.037   0.060  0.2896 -0.3072 -0.2960
 1584TIP3    H126167   0.459   2.106   0.071  0.6906 -0.0354  0.5215
 1584TIP3    H226168   0.604   2.084   0.033  1.0987 -0.1666  2.0983
 1585TIP3   OH226169   0.496   6.253   4.717  0.6412  0.1447 -0.2319
 1585TIP3    H126170   0.559   6.318   4.748  1.2906  0.0638 -1.3193
 1585TIP3    H226171   0.414   6.301   4.706  0.5244  0.2795  1.0886
 1586TIP3   OH226172   2.472   2.896  12.667  0.3609  1.1513  0.0558
 1586TIP3    H126173   2.446   2.872  12.756 -3.2732 -0.1328 -1.1567
 1586TIP3    H226174   2.488   2.812  12.623 -0.4719  1.5838 -1.1367
 1587TIP3   OH226175   6.000   1.631  14.864  0.2195 -0.2712  0.1317
 1587TIP3    H126176   6.087   1.607  14.894 -0.2325 -0.5247  1.2956
 1587TIP3    H226177   5.944   1.620  14.941 -0.6056  1.2050 -0.2195
 1588TIP3   OH226178   1.489   2.784  12.872  0.1324 -0.0943 -0.4022
 1588TIP3    H126179   1.580   2.798  12.898  0.2852 -0.9653 -0.4429
 1588TIP3    H226180   1.484   2.821  12.784  0.1173  1.0734  0.0709
 1589TIP3   OH226181   6.085   6.781  13.159  0.3148  0.4843  0.4835
 1589TIP3    H126182   6.035   6.700  13.149 -0.2059  1.0486 -2.5327
 1589TIP3    H226183   6.019   6.850  13.166  0.6572  0.9953 -0.9845
 1590TIP3   OH226184   3.123   0.156  16.473  0.4586  0.5765  0.2192
 1590TIP3    H126185   3.114   0.240  16.429 -1.6298  0.1180 -0.2945
 1590TIP3    H226186   3.158   0.097  16.406 -1.1743  0.2714 -0.3921
 1591TIP3   OH226187   1.767   4.825   1.839 -0.2951 -0.3866  0.3009
 1591TIP3    H126188   1.830   4.755   1.855  1.0878  0.6838 -0.2394
 1591TIP3    H226189   1.720   4.798   1.760 -0.0453 -0.8695  0.3126
 1592TIP3   OH226190   3.745   5.021   2.336 -0.8633  0.3974 -0.3169
 1592TIP3    H126191   3.787   4.992   2.255 -1.1962 -2.2002  0.3466
 1592TIP3    H226192   3.818   5.043   2.394 -0.3813 -1.7646  0.0116
 1593TIP3   OH226193   5.627   2.026   3.233 -0.3551  0.1564 -0.0942
 1593TIP3    H126194   5.597   1.946   3.276  0.5127  0.0584  0.3467
 1593TIP3    H226195   5.563   2.040   3.163  0.5520 -2.0259 -1.4707
 1594TIP3   OH226196   2.428   6.283   1.912 -0.8409  0.9326 -0.3704
 1594TIP3    H126197   2.414   6.192   1.940  0.5522  0.5223 -0.8852
 1594TIP3    H226198   2.365   6.296   1.841  0.4515 -0.4461 -1.8776
 1595TIP3   OH226199   1.945   1.751   2.470  0.0784 -0.4515  1.3307
 1595TIP3    H126200   1.924   1.826   2.414  2.0117  0.3624  1.6278
 1595TIP3    H226201   1.922   1.675   2.417 -0.6253  0.3169  0.4901
 1596TIP3   OH226202   1.671   1.247  10.510 -0.0490  0.2953  0.3470
 1596TIP3    H126203   1.602   1.241  10.443  0.8908 -2.5548 -0.5633
 1596TIP3    H226204   1.656   1.170  10.565  1.4091  0.5402  1.1171
 1597TIP3   OH226205   4.137   3.139   4.043  0.0721  0.3968  0.8155
 1597TIP3    H126206   4.055   3.154   4.089 -0.0528  0.3806  0.6001
 1597TIP3    H226207   4.198   3.201   4.082 -0.6180  2.0337 -0.5928
 1598TIP3   OH226208   6.132   3.396  13.957  0.8449  0.2668 -0.3491
 1598TIP3    H126209   6.123   3.434  13.869 -0.0077  0.7234 -0.0714
 1598TIP3    H226210   6.208   3.440  13.994  0.7003  0.6937 -0.5469
 1599TIP3   OH226211   6.554   5.602   1.368 -0.3866  0.3343 -0.5015
 1599TIP3    H126212   6.619   5.667   1.342  1.3973 -1.2136 -0.2191
 1599TIP3    H226213   6.560   5.534   1.301 -0.9800 -0.3125  0.0839
 1600TIP3   OH226214   6.105   4.670  11.403  0.3519  0.0110  0.2876
 1600TIP3    H126215   6.199   4.661  11.385  0.2945 -0.3138  0.1216
 1600TIP3    H226216   6.083   4.591  11.453 -0.4491 -1.6034 -2.3600
 1601TIP3   OH226217   0.486   6.712   2.998 -0.1213  0.2400  0.2183
 1601TIP3    H126218   0.491   6.689   3.091  0.9489  0.2385  0.1678
 1601TIP3    H226219   0.565   6.674   2.959 -0.7303 -0.0557 -0.7618
 1602TIP3   OH226220   5.987   4.469  16.172 -0.1503 -0.5334 -0.5851
 1602TIP3    H126221   6.049   4.435  16.108  0.3737 -0.2502 -0.2368
 1602TIP3    H226222   5.902   4.462  16.129  0.3160  0.7397 -1.7846
 1603TIP3   OH226223   2.405   4.845  14.288 -0.1692 -0.0823 -0.2515
 1603TIP3    H126224   2.368   4.923  14.249 -2.7081 -1.2432 -0.3595
 1603TIP3    H226225   2.480   4.823  14.233 -0.8892  0.9203 -1.6696
 1604TIP3   OH226226   6.512   1.016  15.978 -0.1889  0.2746 -0.8255
 1604TIP3    H126227   6.566   0.937  15.980 -0.3942  0.0346 -2.7630
 1604TIP3    H226228   6.522   1.054  16.065  2.2509 -0.3429 -0.7584
 1605TIP3   OH226229   4.062   0.891  13.705  0.3899  0.1531 -0.1244
 1605TIP3    H126230   3.991   0.927  13.653  0.2077 -1.2758 -0.9199
 1605TIP3    H226231   4.141   0.930  13.668  0.1425  0.4284 -0.3716
 1606TIP3   OH226232   4.049   0.306  13.984  0.2229  0.5773  0.5665
 1606TIP3    H126233   3.972   0.254  13.964  0.3105  0.8061 -0.4085
 1606TIP3    H226234   4.117   0.273  13.924  0.7565  0.6722  1.1068
 1607TIP3   OH226235   4.228   3.574  13.953  0.3539 -0.4977 -0.2531
 1607TIP3    H126236   4.259   3.493  13.992 -0.5603 -0.8051 -0.1489
 1607TIP3    H226237   4.259   3.642  14.013 -3.0031 -1.0975  2.4482
 1608TIP3   OH226238   0.203   6.019   4.975  0.3195 -0.5277 -0.2649
 1608TIP3    H126239   0.114   6.008   4.940 -0.1396  0.1588  0.6580
 1608TIP3    H226240   0.190   6.039   5.067  1.4931 -1.5988  0.1656
 1609TIP3   OH226241   3.333   0.120  15.425 -0.1295  0.6109  0.6806
 1609TIP3    H126242   3.376   0.132  15.340  0.3147  2.5956  1.1410
 1609TIP3    H226243   3.280   0.198  15.436  0.4079  0.7617  2.5502
 1610TIP3   OH226244   5.754   1.961   5.107 -0.1273  0.1336  0.1986
 1610TIP3    H126245   5.704   2.013   5.044  1.6039  2.6906  0.7461
 1610TIP3    H226246   5.746   2.009   5.189  1.2939 -0.6432  0.8350
 1611TIP3   OH226247   5.991   0.188   6.738  0.1690 -0.0131  0.3209
 1611TIP3    H126248   5.929   0.132   6.785  1.7181 -1.1948  1.0452
 1611TIP3    H226249   6.071   0.186   6.791  1.6623 -0.5790 -1.7947
 1612TIP3   OH226250   2.876   6.244   5.507  0.6681  0.1383 -0.0563
 1612TIP3    H126251   2.962   6.285   5.514  0.9194 -0.3837 -0.0385
 1612TIP3    H226252   2.815   6.310   5.538  1.1518  0.1753  0.8293
 1613TIP3   OH226253   6.145   4.173   4.579  0.0519  0.3047  0.0541
 1613TIP3    H126254   6.178   4.084   4.593  1.2062  0.8448  0.9353
 1613TIP3    H226255   6.213   4.216   4.527  0.9390  1.4972  2.0589
 1614TIP3   OH226256   0.314   0.945  16.775  0.3419 -0.2098  0.4425
 1614TIP3    H126257   0.405   0.969  16.762  0.5258 -0.7037  0.7637
 1614TIP3    H226258   0.264   1.016  16.737  0.8633  0.2615  0.6300
 1615TIP3   OH226259   1.244   5.387   1.798 -0.4287  0.3836 -0.1430
 1615TIP3    H126260   1.257   5.399   1.704 -0.4987  0.4257 -0.1469
 1615TIP3    H226261   1.191   5.461   1.825 -0.1813  0.5173 -0.0201
 1616TIP3   OH226262   6.308   2.770   2.997  0.0635  0.2236 -0.2775
 1616TIP3    H126263   6.401   2.747   2.993 -0.2001 -1.4999  1.6399
 1616TIP3    H226264   6.264   2.701   2.947 -0.3369 -0.4165  0.9193
 1617TIP3   OH226265   6.742   6.764   1.105  0.3724  0.2751  0.5439
 1617TIP3    H126266   6.800   6.770   1.182  0.6487 -1.7637  0.5567
 1617TIP3    H226267   6.714   6.673   1.104  0.8509  0.0816 -2.1365
 1618TIP3   OH226268   1.007   6.051  10.686  0.4045  0.7403 -0.2558
 1618TIP3    H126269   0.993   5.960  10.710  3.1967 -0.0752 -1.3370
 1618TIP3    H226270   0.948   6.100  10.743  0.2421 -1.6070  1.7673
 1619TIP3   OH226271   2.866   5.559  12.008 -0.3502 -0.0391  0.0083
 1619TIP3    H126272   2.869   5.655  12.004 -0.0140 -0.0679 -0.4002
 1619TIP3    H226273   2.949   5.531  11.970 -0.1891 -0.4826  0.6716
 1620TIP3   OH226274   1.831   0.247  16.053 -0.1883  0.2760 -0.1917
 1620TIP3    H126275   1.836   0.339  16.079 -0.4463  0.3666 -0.4503
 1620TIP3    H226276   1.865   0.246  15.963 -1.1149  0.2821 -0.5505
 1621TIP3   OH226277   3.763   5.336  15.064 -0.1462 -0.3258 -0.1201
 1621TIP3    H126278   3.708   5.400  15.018  1.6332  1.2290 -0.2029
 1621TIP3    H226279   3.824   5.306  14.997  1.7882  1.1639  0.8878
 1622TIP3   OH226280   1.956   3.887  12.930  0.1800 -0.2233  0.4758
 1622TIP3    H126281   1.928   3.797  12.916 -0.3107 -0.3125  1.8350
 1622TIP3    H226282   1.926   3.908  13.019  1.3734  0.8547  0.6619
 1623TIP3   OH226283   6.740   6.287   5.010 -0.3213 -0.5547  0.2711
 1623TIP3    H126284   6.722   6.300   4.917  0.3841  0.9698  0.3159
 1623TIP3    H226285   6.750   6.193   5.019 -0.5573 -0.7473 -1.1652
 1624TIP3   OH226286   3.025   3.498   5.776  0.3037  0.0853 -0.2486
 1624TIP3    H126287   2.983   3.577   5.741  1.8889  1.2904  0.4294
 1624TIP3    H226288   3.081   3.468   5.704  0.2107 -0.0085 -0.2802
 1625TIP3   OH226289   5.983   1.409  12.163 -0.1004 -0.7237  0.6276
 1625TIP3    H126290   5.999   1.360  12.082 -0.1528 -0.2915  0.3522
 1625TIP3    H226291   5.945   1.492  12.134  0.7100 -0.1887  1.0278
 1626TIP3   OH226292   2.952   3.770  13.364 -0.4659  0.0730  0.4405
 1626TIP3    H126293   2.903   3.851  13.346  0.0877  0.7038  1.6388
 1626TIP3    H226294   3.043   3.799  13.373  0.0291 -0.9609 -0.8838
 1627TIP3   OH226295   0.396   4.422  13.244 -0.2209 -0.1054  0.1012
 1627TIP3    H126296   0.444   4.454  13.167 -0.9442 -0.4093 -0.4948
 1627TIP3    H226297   0.405   4.327  13.240 -2.7897 -0.3885 -1.3903
 1628TIP3   OH226298   2.891   2.064  12.541 -0.7706 -1.0421 -0.1398
 1628TIP3    H126299   2.960   1.998  12.534  0.6884  0.4009  0.0112
 1628TIP3    H226300   2.936   2.148  12.527 -2.5109 -0.0423 -0.1042
 1629TIP3   OH226301   6.297   6.099   4.809  0.1206 -0.5046  0.8149
 1629TIP3    H126302   6.384   6.087   4.848  1.5199 -3.0228 -2.5887
 1629TIP3    H226303   6.303   6.183   4.764  1.4516 -1.3022 -0.6199
 1630TIP3   OH226304   4.310   0.660   6.519  0.5584  0.1657 -0.0479
 1630TIP3    H126305   4.369   0.698   6.454  0.5985 -2.7457 -1.8916
 1630TIP3    H226306   4.364   0.597   6.567 -0.3360 -0.4641  0.1763
 1631TIP3   OH226307   3.972   0.178  14.951  0.4956 -0.1693  0.2461
 1631TIP3    H126308   3.897   0.212  14.902  1.4918  0.1997 -1.0992
 1631TIP3    H226309   4.034   0.152  14.883  2.3086  1.2057  1.2851
 1632TIP3   OH226310   1.469   2.133   2.523  0.0683  0.2002  0.0236
 1632TIP3    H126311   1.380   2.138   2.559 -0.5693 -1.4150 -1.1753
 1632TIP3    H226312   1.526   2.127   2.599 -0.7302  2.0774  0.8526
 1633TIP3   OH226313   4.729   5.113   2.232 -0.4816 -0.0971 -0.0137
 1633TIP3    H126314   4.711   5.096   2.324  1.9427  0.4434  0.6186
 1633TIP3    H226315   4.683   5.043   2.186  1.1307 -2.5873  1.8758
 1634TIP3   OH226316   6.046   6.625  16.233 -0.1150  0.0951  0.2115
 1634TIP3    H126317   5.992   6.660  16.304 -1.4236  0.5589 -0.9776
 1634TIP3    H226318   5.999   6.649  16.153  0.3172 -2.0982 -0.7639
 1635TIP3   OH226319   3.108   2.237  11.894  0.7167 -0.4344  0.5673
 1635TIP3    H126320   3.101   2.260  11.801  1.2413  1.2013  0.8892
 1635TIP3    H226321   3.122   2.143  11.895  0.9333 -0.4457 -1.0352
 1636TIP3   OH226322   4.633   1.665   3.522 -0.2089  0.9289 -0.3238
 1636TIP3    H126323   4.565   1.691   3.461 -1.3507  1.7712  1.2499
 1636TIP3    H226324   4.655   1.575   3.497  1.1965  2.0448 -3.5439
 1637TIP3   OH226325   3.190   1.198   4.170 -0.0759 -0.1861 -0.1636
 1637TIP3    H126326   3.260   1.164   4.225 -0.1285 -0.2387 -0.1307
 1637TIP3    H226327   3.125   1.128   4.165 -0.4270  0.0963  0.3289
 1638TIP3   OH226328   2.018   3.814   1.382 -0.3005 -0.3816  0.3446
 1638TIP3    H126329   1.961   3.877   1.338  0.2725  0.7488  1.1820
 1638TIP3    H226330   2.016   3.839   1.474  2.7776  0.7439  0.2190
 1639TIP3   OH226331   4.032   3.230  15.379 -0.3659 -0.3718  0.0421
 1639TIP3    H126332   4.027   3.254  15.471  5.1546  1.6943  0.2115
 1639TIP3    H226333   3.965   3.284  15.336 -0.2889  1.8788  2.4956
 1640TIP3   OH226334   6.319   0.342  11.217 -0.1346 -0.1347  0.4592
 1640TIP3    H126335   6.281   0.290  11.146 -1.0881  1.6998 -0.4463
 1640TIP3    H226336   6.378   0.404  11.173  1.9437 -1.1770  1.6145
 1641TIP3   OH226337   5.249   0.694   2.203  0.4819  0.2455 -0.8979
 1641TIP3    H126338   5.253   0.738   2.118  1.8426  1.0789 -0.4358
 1641TIP3    H226339   5.289   0.755   2.264 -0.9808 -0.1075  0.4837
 1642TIP3   OH226340   2.822   6.637  14.863  0.3833  0.1280 -0.0561
 1642TIP3    H126341   2.852   6.548  14.844  0.6128  0.1572  0.1691
 1642TIP3    H226342   2.730   6.627  14.886  0.4068 -0.0505 -0.0411
 1643TIP3   OH226343   5.870   4.932   5.717 -0.2546 -0.0940 -0.2569
 1643TIP3    H126344   5.850   4.975   5.635 -1.7751  2.6485  1.3967
 1643TIP3    H226345   5.896   5.003   5.776 -1.6214 -1.5623  2.3153
 1644TIP3   OH226346   2.519   1.231  10.931 -0.3188  0.3367  0.0036
 1644TIP3    H126347   2.483   1.296  10.871  0.9516  1.0606 -0.0088
 1644TIP3    H226348   2.444   1.177  10.956 -1.1899  1.1157 -0.8526
 1645TIP3   OH226349   5.118   6.323  11.809  0.1432 -0.1199  0.2514
 1645TIP3    H126350   5.104   6.228  11.816  1.9561 -0.4603 -0.0070
 1645TIP3    H226351   5.127   6.339  11.715 -1.8573  0.6411  0.1402
 1646TIP3   OH226352   5.485   4.450   3.518  0.1873  0.0772 -0.5534
 1646TIP3    H126353   5.409   4.507   3.529 -0.2312  0.0730 -2.8746
 1646TIP3    H226354   5.475   4.383   3.586  0.4261  2.3880  1.9046
 1647TIP3   OH226355   4.789   6.181  12.336 -0.0176  0.7150 -0.5975
 1647TIP3    H126356   4.876   6.163  12.371 -0.3680 -0.8468 -0.4600
 1647TIP3    H226357   4.803   6.190  12.241  0.2804  0.3854 -0.5883
 1648TIP3   OH226358   4.736   0.222  16.153 -0.1788 -0.7714  0.0109
 1648TIP3    H126359   4.653   0.234  16.199 -0.3410  1.6206 -0.7323
 1648TIP3    H226360   4.794   0.288  16.190  0.5776 -0.7086 -1.2135
 1649TIP3   OH226361   2.018   0.134  16.719 -0.2709  0.1420 -0.1158
 1649TIP3    H126362   2.076   0.091  16.656  0.0957  0.5527 -0.0665
 1649TIP3    H226363   1.930   0.105  16.694  0.0364 -1.4123  0.5467
 1650TIP3   OH226364   1.293   1.077   5.665 -0.3037  0.9225  0.0636
 1650TIP3    H126365   1.236   1.011   5.624  0.7553  0.6101 -0.9948
 1650TIP3    H226366   1.312   1.041   5.752 -0.7809  0.4578 -0.0164
 1651TIP3   OH226367   5.371   6.114   3.519  0.0225  0.5331 -0.2111
 1651TIP3    H126368   5.419   6.052   3.575 -0.7340 -0.0250 -0.1654
 1651TIP3    H226369   5.281   6.080   3.518 -1.0667  3.0387  1.9428
 1652TIP3   OH226370   5.393   4.872   2.147  0.5232 -0.1806  0.2393
 1652TIP3    H126371   5.369   4.786   2.182  1.5248 -0.3345  0.5666
 1652TIP3    H226372   5.406   4.927   2.224 -0.2387  0.3165  0.0297
 1653TIP3   OH226373   4.965   1.198   1.534 -0.6523 -0.2368 -0.1667
 1653TIP3    H126374   4.913   1.211   1.455  0.1351 -0.4202 -0.7285
 1653TIP3    H226375   5.044   1.250   1.519 -0.2339 -0.7435  0.2409
 1654TIP3   OH226376   3.178   2.331  13.733 -0.5847  0.0976  0.0866
 1654TIP3    H126377   3.194   2.346  13.826  0.9997 -0.3150 -0.0880
 1654TIP3    H226378   3.106   2.391  13.711 -3.2440 -2.0086  2.2283
 1655TIP3   OH226379   4.911   1.860   4.562 -0.2898  0.8020  0.8516
 1655TIP3    H126380   4.966   1.901   4.629 -2.7845  1.2408  2.7632
 1655TIP3    H226381   4.837   1.823   4.610 -1.2858 -0.5003 -1.4971
 1656TIP3   OH226382   2.921   3.733   5.703  0.0197 -0.1841  0.3941
 1656TIP3    H126383   2.847   3.791   5.684  1.5940  1.6152 -0.7271
 1656TIP3    H226384   2.983   3.749   5.631  1.5740 -1.4730  1.3649
 1657TIP3   OH226385   3.656   4.975   1.009  0.3929  0.2234  0.3347
 1657TIP3    H126386   3.597   5.006   0.940 -1.5661  1.7339  2.5525
 1657TIP3    H226387   3.635   5.029   1.085  3.5653 -0.2977  1.7351
 1658TIP3   OH226388   0.954   6.405   1.736  0.0285  0.7127 -0.1432
 1658TIP3    H126389   0.972   6.481   1.680 -0.7997  0.5696 -0.6174
 1658TIP3    H226390   0.859   6.407   1.750  0.1105  0.2431  0.5417
 1659TIP3   OH226391   5.280   2.076  16.191 -0.4913 -0.0492  0.9685
 1659TIP3    H126392   5.320   2.161  16.175  0.5817  0.0185  3.6485
 1659TIP3    H226393   5.272   2.037  16.104  0.6105  2.0475 -0.1459
 1660TIP3   OH226394   2.696   1.140  11.116 -0.0879 -0.3638  0.3158
 1660TIP3    H126395   2.633   1.103  11.178  0.2732  0.7854  1.4065
 1660TIP3    H226396   2.643   1.163  11.040 -0.7388 -0.7582  0.6350
 1661TIP3   OH226397   4.853   6.146  13.680  1.0359  0.0141  0.0650
 1661TIP3    H126398   4.759   6.128  13.672  0.8671  0.4543  0.9206
 1661TIP3    H226399   4.866   6.227  13.630  0.5773  1.0242  1.4992
 1662TIP3   OH226400   2.681   2.273  16.757  0.1515 -0.0607  0.2679
 1662TIP3    H126401   2.637   2.296  16.839  0.5891  1.5885  0.0835
 1662TIP3    H226402   2.613   2.284  16.690 -0.2357 -1.5133  0.3891
 1663TIP3   OH226403   2.074   5.254   2.724  0.2919  0.2674  0.4011
 1663TIP3    H126404   2.154   5.305   2.713 -0.7006  2.1564  1.3794
 1663TIP3    H226405   2.051   5.266   2.816  0.1760 -2.3053  0.7858
 1664TIP3   OH226406   2.505   0.781   4.716 -0.0017  0.4456 -0.2571
 1664TIP3    H126407   2.537   0.751   4.800  1.6399  0.1368 -0.9586
 1664TIP3    H226408   2.484   0.701   4.668 -1.7333  0.6357  0.1203
 1665TIP3   OH226409   3.668   0.651   5.039  0.0712  0.2269 -0.4531
 1665TIP3    H126410   3.581   0.612   5.035  0.0384  0.1363  0.7374
 1665TIP3    H226411   3.712   0.602   5.108  0.8491  0.7140 -0.5989
 1666TIP3   OH226412   4.431   5.759  16.360  0.3874 -0.2718  0.6109
 1666TIP3    H126413   4.484   5.689  16.399 -0.6739 -0.0627  2.5386
 1666TIP3    H226414   4.378   5.714  16.294  0.5828 -1.0768  0.9870
 1667TIP3   OH226415   2.864   2.238   2.739 -0.0450  0.3923  0.1428
 1667TIP3    H126416   2.785   2.230   2.685  0.3589 -0.4786 -0.3310
 1667TIP3    H226417   2.842   2.306   2.803 -1.8236 -1.0205  1.1322
 1668TIP3   OH226418   4.139   0.821  10.658 -0.4242 -0.3766 -0.0185
 1668TIP3    H126419   4.156   0.905  10.616  2.1299 -1.1326 -0.7027
 1668TIP3    H226420   4.224   0.795  10.694 -1.2718 -2.4001  0.6713
 1669TIP3   OH226421   3.911   2.499   5.536  0.1450  0.0479 -0.1862
 1669TIP3    H126422   3.869   2.568   5.484  1.0723  1.0115  0.2882
 1669TIP3    H226423   3.862   2.420   5.515  0.2260  0.4712 -2.1929
 1670TIP3   OH226424   0.413   2.549  14.271  0.1691 -0.4924  0.1489
 1670TIP3    H126425   0.438   2.612  14.204 -0.4694 -0.7547 -0.3416
 1670TIP3    H226426   0.449   2.585  14.352  2.7361 -1.2016 -0.6002
 1671TIP3   OH226427   2.559   2.174   0.908  0.4709  0.3758 -0.8339
 1671TIP3    H126428   2.469   2.184   0.939  1.2072  0.0857  1.5982
 1671TIP3    H226429   2.563   2.084   0.875 -0.2101  0.5188 -1.3302
 1672TIP3   OH226430   0.700   5.541   0.346 -0.6546 -0.4828  0.0548
 1672TIP3    H126431   0.652   5.617   0.312 -0.0366  0.7288  1.7431
 1672TIP3    H226432   0.648   5.512   0.421 -1.0767 -1.9965 -0.7902
 1673TIP3   OH226433   2.058   5.201  14.083 -0.1798  0.1832 -0.1027
 1673TIP3    H126434   2.048   5.283  14.035  0.2985  0.2318 -0.1264
 1673TIP3    H226435   1.991   5.144  14.047 -0.3285  0.4713 -0.2871
 1674TIP3   OH226436   0.049   4.874  13.838 -0.4265  0.0572 -0.3661
 1674TIP3    H126437   0.052   4.969  13.831 -3.1654  0.3234  1.0130
 1674TIP3    H226438   0.038   4.844  13.748  0.3327  1.0327 -0.8005
 1675TIP3   OH226439   2.430   6.484   4.782  0.6180  0.2551 -0.2435
 1675TIP3    H126440   2.431   6.450   4.692  1.3735 -0.2344 -0.0615
 1675TIP3    H226441   2.338   6.490   4.804  0.4412 -1.1381 -0.5017
 1676TIP3   OH226442   2.494   0.204   1.571  0.2323  0.3580  0.1293
 1676TIP3    H126443   2.504   0.182   1.664  1.0942 -1.5289 -0.3686
 1676TIP3    H226444   2.489   0.120   1.527 -1.1206  1.2230 -1.4780
 1677TIP3   OH226445   3.211   4.157  13.807 -0.2060 -0.6799  0.7072
 1677TIP3    H126446   3.172   4.150  13.894 -0.7928  0.0336  0.5130
 1677TIP3    H226447   3.268   4.234  13.813  1.8163 -2.1383  1.2069
 1678TIP3   OH226448   1.090   2.822  15.872  1.1813  0.3800 -0.0986
 1678TIP3    H126449   1.009   2.860  15.904  1.8133  1.3712  0.3611
 1678TIP3    H226450   1.123   2.884  15.808  1.0974 -0.4904 -1.0098
 1679TIP3   OH226451   0.499   0.835  14.967 -0.0606  0.0856  0.0301
 1679TIP3    H126452   0.585   0.868  14.993  0.5634 -1.3070 -0.1586
 1679TIP3    H226453   0.452   0.821  15.050  0.8342 -1.5166  0.3072
 1680TIP3   OH226454   3.155   1.801  11.396 -0.0432  0.5577 -0.6176
 1680TIP3    H126455   3.100   1.723  11.398 -0.6306  0.9665  1.1757
 1680TIP3    H226456   3.095   1.873  11.417  0.9633  1.1520  0.3666
 1681TIP3   OH226457   0.636   6.187  12.282  0.2602  0.2744 -0.1803
 1681TIP3    H126458   0.597   6.101  12.297 -0.1472  0.7688  1.9147
 1681TIP3    H226459   0.574   6.231  12.223 -0.9135  0.0552  0.8509
 1682TIP3   OH226460   3.136   3.539  16.709  0.7521 -0.1391 -0.2945
 1682TIP3    H126461   3.195   3.562  16.637  1.2821  0.3342  0.2779
 1682TIP3    H226462   3.117   3.622  16.752 -0.3844 -0.2788 -0.4940
 1683TIP3   OH226463   4.392   5.563  16.050 -0.5579 -0.4745 -0.0839
 1683TIP3    H126464   4.321   5.513  16.010 -1.6172  0.0219  1.1248
 1683TIP3    H226465   4.391   5.647  16.005 -0.9410 -0.3535  0.1525
 1684TIP3   OH226466   3.499   3.153  14.638 -0.3540 -0.1110 -0.2482
 1684TIP3    H126467   3.572   3.138  14.698  0.1931 -0.3831 -0.9655
 1684TIP3    H226468   3.533   3.217  14.575 -0.8823  0.0900 -0.3325
 1685TIP3   OH226469   2.325   0.845   0.000 -0.4155  0.1356 -0.4608
 1685TIP3    H126470   2.330   0.770  -0.059  1.5458  0.3265 -0.5922
 1685TIP3    H226471   2.382   0.821   0.074  0.0205  1.3723 -0.3787
 1686TIP3   OH226472   0.609   4.753  15.978  0.3895 -0.5191  0.0280
 1686TIP3    H126473   0.695   4.787  16.003  0.1445  1.5292 -1.6081
 1686TIP3    H226474   0.547   4.813  16.020 -0.1545 -0.5229 -0.7533
 1687TIP3   OH226475   3.302   2.070   4.493 -0.1373  0.4757  0.0924
 1687TIP3    H126476   3.393   2.044   4.479  0.0022  0.7577  0.4616
 1687TIP3    H226477   3.295   2.084   4.587 -0.4983  0.6976  0.0348
 1688TIP3   OH226478   1.007   2.731   0.003 -0.5306  0.5409 -0.2182
 1688TIP3    H126479   1.087   2.749   0.053 -0.9425  1.1734  0.2168
 1688TIP3    H226480   1.035   2.733  -0.089  0.3302 -1.0904 -0.0299
 1689TIP3   OH226481   4.715   5.497  11.395 -0.0620 -0.1604 -0.3715
 1689TIP3    H126482   4.711   5.571  11.335 -1.7800  1.4193  1.5345
 1689TIP3    H226483   4.636   5.446  11.376 -0.5077  0.2370  0.3633
 1690TIP3   OH226484   2.418   5.319  11.160  0.8726 -0.1099  0.1422
 1690TIP3    H126485   2.419   5.411  11.184  0.4210  0.1381 -0.7351
 1690TIP3    H226486   2.325   5.297  11.153  0.9642 -0.2042 -1.1470
 1691TIP3   OH226487   5.598   5.371   4.879  0.5868 -0.1058 -0.1955
 1691TIP3    H126488   5.667   5.332   4.825 -0.0519  0.2742 -1.3302
 1691TIP3    H226489   5.535   5.300   4.892  0.9771 -0.3371  0.4939
 1692TIP3   OH226490   0.804   1.141   2.552  0.1735 -0.0174  0.2036
 1692TIP3    H126491   0.754   1.098   2.622  2.1647 -1.0763  1.0445
 1692TIP3    H226492   0.761   1.112   2.472  0.2245 -2.0039  0.8379
 1693TIP3   OH226493   0.049   1.580   4.051  0.2705 -0.2323  0.4497
 1693TIP3    H126494   0.090   1.663   4.026 -0.5293  0.3369  0.9803
 1693TIP3    H226495   0.075   1.519   3.982  0.6326  0.5265 -0.1071
 1694TIP3   OH226496   6.326   4.639   2.421  0.2595 -0.2011 -0.3400
 1694TIP3    H126497   6.291   4.648   2.332 -1.4059 -0.0575  0.2979
 1694TIP3    H226498   6.387   4.712   2.430 -2.4324  2.1892 -0.0999
 1695TIP3   OH226499   2.832   1.342  17.039  0.3115  0.0171  0.0947
 1695TIP3    H126500   2.907   1.302  16.994  1.9920  1.6827  1.2565
 1695TIP3    H226501   2.859   1.349  17.130 -1.5821 -0.0068  0.6988
 1696TIP3   OH226502   4.498   6.570   0.347  0.1267  0.1493 -0.3490
 1696TIP3    H126503   4.427   6.582   0.283 -1.6474  3.3859  1.9755
 1696TIP3    H226504   4.560   6.640   0.327  0.8614 -0.4149 -0.0802
 1697TIP3   OH226505   1.061   1.263   3.589 -0.1018 -0.3245 -0.2331
 1697TIP3    H126506   1.038   1.331   3.651 -0.5432  1.1329 -1.9183
 1697TIP3    H226507   1.081   1.309   3.508  0.5342 -2.1419 -1.1854
 1698TIP3   OH226508   4.563   3.708  12.935 -0.1013  0.0202  0.0823
 1698TIP3    H126509   4.610   3.695  13.017 -0.7905  1.1209  0.6657
 1698TIP3    H226510   4.511   3.787  12.948 -0.0622  0.3451 -1.4964
 1699TIP3   OH226511   6.352   2.135  13.868  0.3355  0.1308 -0.4778
 1699TIP3    H126512   6.280   2.132  13.804 -0.3714 -1.3572  0.3583
 1699TIP3    H226513   6.429   2.154  13.815 -0.3866 -0.0877 -1.6535
 1700TIP3   OH226514   1.612   2.582   1.919  0.1663 -0.3339 -0.1080
 1700TIP3    H126515   1.678   2.557   1.854  0.0577 -0.5239 -0.1465
 1700TIP3    H226516   1.528   2.569   1.875  0.0946 -0.3814  0.0404
 1701TIP3   OH226517   4.179   1.264   0.597  0.1163 -0.1735 -0.1888
 1701TIP3    H126518   4.160   1.345   0.645 -0.1852  0.0762 -0.7246
 1701TIP3    H226519   4.120   1.266   0.522 -0.9936 -1.6301  0.5891
 1702TIP3   OH226520   4.885   3.576  17.005  0.0385  0.3306 -0.1809
 1702TIP3    H126521   4.882   3.480  17.007  2.0866  0.2280  0.3808
 1702TIP3    H226522   4.825   3.601  16.934 -2.7619 -1.1735  1.5199
 1703TIP3   OH226523   0.425   1.014   0.053  0.6346  0.5644 -0.2096
 1703TIP3    H126524   0.473   0.934   0.033  0.8498  0.7396 -0.3941
 1703TIP3    H226525   0.488   1.070   0.099  0.4955  0.6413 -0.1092
 1704TIP3   OH226526   1.827   3.510   2.505 -0.1136 -1.3139 -0.3087
 1704TIP3    H126527   1.848   3.499   2.413 -0.4570 -0.5101 -0.4951
 1704TIP3    H226528   1.755   3.449   2.522  1.2351 -2.9153 -0.0604
 1705TIP3   OH226529   6.193   1.092   1.873  0.2056  0.1572 -0.3326
 1705TIP3    H126530   6.113   1.073   1.923  0.5439  0.6544  0.4176
 1705TIP3    H226531   6.263   1.052   1.925  0.5454  0.5543 -0.4800
 1706TIP3   OH226532   1.850   5.924  14.170 -0.5873  0.5492 -0.3385
 1706TIP3    H126533   1.772   5.943  14.117 -0.0096 -0.7898 -1.7471
 1706TIP3    H226534   1.909   5.996  14.150 -0.8562  0.7250 -0.5212
 1707TIP3   OH226535   6.351   2.956   1.412 -0.1141  0.3092  0.1956
 1707TIP3    H126536   6.346   3.049   1.389 -0.2066  0.2830  0.1109
 1707TIP3    H226537   6.325   2.953   1.504  0.8320  0.4895  0.4844
 1708TIP3   OH226538   2.475   3.589  11.797 -0.0283 -0.2002 -0.7980
 1708TIP3    H126539   2.384   3.563  11.808 -0.3277  0.9735 -0.2733
 1708TIP3    H226540   2.480   3.677  11.835  1.2339 -0.0762 -1.1725
 1709TIP3   OH226541   1.057   6.450  17.078  0.2111  0.2495 -0.0414
 1709TIP3    H126542   1.036   6.475  16.988  0.0039  1.6796  0.3726
 1709TIP3    H226543   1.147   6.419  17.075  0.2482  0.4165 -0.7166
 1710TIP3   OH226544   0.850   4.142  13.160 -0.4307  0.4000 -0.0923
 1710TIP3    H126545   0.831   4.134  13.254 -0.8795  0.4936 -0.1749
 1710TIP3    H226546   0.906   4.219  13.153  0.1347  0.0243  0.1713
 1711TIP3   OH226547   2.075   1.688  17.034 -0.1342 -0.0606 -0.4716
 1711TIP3    H126548   2.130   1.609  17.039 -0.6342 -0.3195  2.4686
 1711TIP3    H226549   1.990   1.660  17.067 -0.3201  1.6756  0.6415
 1712TIP3   OH226550   0.557   4.074   1.326  0.2454  0.4292 -0.3338
 1712TIP3    H126551   0.511   4.009   1.380 -2.8717  0.3859 -2.7148
 1712TIP3    H226552   0.617   4.117   1.386 -1.6716 -0.8076  2.7166
 1713TIP3   OH226553   2.821   4.534   5.597 -0.2562  0.2807  0.1585
 1713TIP3    H126554   2.758   4.476   5.553  0.3038  0.9449 -1.5791
 1713TIP3    H226555   2.841   4.488   5.679  0.8306 -2.4753 -1.5041
 1714TIP3   OH226556   1.066   6.400  11.786 -0.9217  0.5518 -0.8049
 1714TIP3    H126557   0.997   6.459  11.816  0.1987  1.9343 -0.8507
 1714TIP3    H226558   1.133   6.405  11.853 -0.9880 -1.0917 -0.5612
 1715TIP3   OH226559   1.257   5.348   5.076  0.1073  0.4044 -0.4291
 1715TIP3    H126560   1.239   5.280   5.141 -0.0195  1.0454  0.2122
 1715TIP3    H226561   1.352   5.361   5.081 -0.1816  2.4493  1.7027
 1716TIP3   OH226562   0.350   3.435  11.036 -0.3542 -0.3467  0.3289
 1716TIP3    H126563   0.316   3.505  11.091  0.7691 -0.4624  1.1934
 1716TIP3    H226564   0.332   3.464  10.946  0.2530  1.1458  0.6645
 1717TIP3   OH226565   3.762   4.850  11.490  0.6323  0.6600 -0.2539
 1717TIP3    H126566   3.734   4.939  11.514 -0.1100 -0.0916  1.8546
 1717TIP3    H226567   3.829   4.827  11.555  0.9718 -0.2556 -0.9047
 1718TIP3   OH226568   0.378   1.206  14.296  0.0683 -0.5968 -0.4863
 1718TIP3    H126569   0.461   1.254  14.297  0.5688 -1.4655  0.1192
 1718TIP3    H226570   0.339   1.228  14.211  0.9263 -0.1991 -0.7843
 1719TIP3   OH226571   1.597   0.746   5.198  0.2636 -0.2547  0.1860
 1719TIP3    H126572   1.620   0.799   5.122  0.8129 -0.0579  0.4861
 1719TIP3    H226573   1.670   0.758   5.259 -0.4131  0.0185  0.9649
 1720TIP3   OH226574   0.366   3.063   1.785  0.3240 -0.4294 -0.3669
 1720TIP3    H126575   0.382   2.980   1.740  1.7482 -0.4632  0.1467
 1720TIP3    H226576   0.384   3.044   1.877  0.9862  0.5082 -0.2843
 1721TIP3   OH226577   2.373   6.400   0.653  0.2972  0.3753 -0.3818
 1721TIP3    H126578   2.338   6.485   0.624  0.6561  0.8368  0.4982
 1721TIP3    H226579   2.444   6.423   0.712  1.6276 -0.5495 -1.5706
 1722TIP3   OH226580   4.334   0.183   5.287 -0.1185  0.0338  0.2488
 1722TIP3    H126581   4.301   0.226   5.208 -0.9966  0.2256  0.7066
 1722TIP3    H226582   4.428   0.199   5.285 -0.1591  0.2263 -0.6438
 1723TIP3   OH226583   4.109   4.164  12.091  0.7691  0.2386  0.1005
 1723TIP3    H126584   4.026   4.201  12.060  0.9145  0.7155  0.2631
 1723TIP3    H226585   4.086   4.078  12.125  0.4417  0.1203 -0.4152
 1724TIP3   OH226586   4.211   1.779   0.695 -0.7052 -0.2536 -0.4835
 1724TIP3    H126587   4.254   1.838   0.757 -1.5364 -0.4684  0.3129
 1724TIP3    H226588   4.150   1.836   0.647 -1.5748 -0.4573  0.3486
 1725TIP3   OH226589   5.989   5.321   0.327  0.6660  0.0484  0.3830
 1725TIP3    H126590   5.920   5.376   0.290  0.4677 -1.2137 -1.2731
 1725TIP3    H226591   6.056   5.382   0.355 -0.5672  1.2384  0.8592
 1726TIP3   OH226592   4.265   0.960  12.019 -0.5477  0.0165 -0.1009
 1726TIP3    H126593   4.244   0.883  11.965 -0.4497 -2.6344  3.2684
 1726TIP3    H226594   4.361   0.961  12.023 -0.5619 -0.2773  0.5420
 1727TIP3   OH226595   5.146   2.547  14.550 -0.1223  0.6226  0.5729
 1727TIP3    H126596   5.174   2.579  14.464 -0.8742  0.5507  0.2943
 1727TIP3    H226597   5.228   2.521  14.594  0.2385  0.3811 -0.2258
 1728TIP3   OH226598   5.222   2.635   6.312 -0.3521 -0.1232 -0.5341
 1728TIP3    H126599   5.292   2.692   6.346 -1.9376  0.9880  1.0477
 1728TIP3    H226600   5.171   2.692   6.255 -2.2201  0.2884  1.4108
 1729TIP3   OH226601   1.607   0.387   2.847  0.3017 -0.5912  0.3192
 1729TIP3    H126602   1.575   0.335   2.920 -1.7401  0.5875  0.3530
 1729TIP3    H226603   1.624   0.324   2.777  0.8426 -1.5734  1.3213
 1730TIP3   OH226604   4.892   5.874  11.542 -0.0384 -0.2483  0.2163
 1730TIP3    H126605   4.914   5.823  11.464 -1.2033 -0.9014  0.2819
 1730TIP3    H226606   4.957   5.848  11.607  0.1806 -0.6584 -0.1600
 1731TIP3   OH226607   4.645   5.762   5.418 -0.7031  0.0629  0.2698
 1731TIP3    H126608   4.676   5.739   5.330 -1.5341  1.4637 -0.4260
 1731TIP3    H226609   4.561   5.716   5.427 -0.4238 -0.4040  0.4925
 1732TIP3   OH226610   5.728   0.019  13.708  0.3151  0.0784 -0.7683
 1732TIP3    H126611   5.817   0.034  13.675  1.0889 -2.4831 -0.0830
 1732TIP3    H226612   5.741  -0.033  13.787 -1.8230 -0.1368 -0.5163
 1733TIP3   OH226613   0.925   2.565   5.929  0.2556  0.0428  0.2470
 1733TIP3    H126614   0.937   2.574   6.024  0.3983  0.3820  0.2001
 1733TIP3    H226615   0.872   2.486   5.919  1.7128 -1.0044  0.5149
 1734TIP3   OH226616   3.265   1.113  17.118  0.1444  0.0390  0.4826
 1734TIP3    H126617   3.229   1.050  17.180 -1.2447 -0.2346 -0.5571
 1734TIP3    H226618   3.262   1.069  17.034  1.5948  0.5600  0.1169
 1735TIP3   OH226619   1.034   4.739  13.019 -0.4704 -0.4166 -0.0341
 1735TIP3    H126620   1.100   4.780  12.963 -1.5243  1.0774 -0.2322
 1735TIP3    H226621   1.060   4.647  13.022  3.2666  0.4747  2.1513
 1736TIP3   OH226622   0.849   6.125  16.068 -0.0361 -0.2141 -0.5312
 1736TIP3    H126623   0.889   6.197  16.116  0.6382 -1.9305  1.6090
 1736TIP3    H226624   0.906   6.112  15.992 -0.3255  1.6393 -1.1040
 1737TIP3   OH226625   3.291   0.234   5.551 -0.3050  0.0938  0.2894
 1737TIP3    H126626   3.274   0.180   5.474  0.1736  0.6157 -0.1898
 1737TIP3    H226627   3.238   0.195   5.620  0.0220 -0.9774 -0.0511
 1738TIP3   OH226628   6.384   3.994  10.668  0.0811 -0.2360  0.0441
 1738TIP3    H126629   6.296   3.964  10.691 -0.1886 -0.0138 -0.6816
 1738TIP3    H226630   6.412   3.935  10.598  1.3173 -1.5835  1.5881
 1739TIP3   OH226631   0.264   6.178  16.655  0.0548 -0.2411  0.0349
 1739TIP3    H126632   0.217   6.115  16.710  1.7080 -1.5544  0.0481
 1739TIP3    H226633   0.218   6.261  16.668 -0.2892 -0.7344  2.5356
 1740TIP3   OH226634   0.145   1.365  12.697  0.1523  0.0016 -0.3752
 1740TIP3    H126635   0.222   1.422  12.689  0.7948 -1.0009 -1.5845
 1740TIP3    H226636   0.156   1.300  12.628 -1.8825 -0.0715 -0.6789
 1741TIP3   OH226637   2.660   4.893   4.432  0.3578  0.0038  0.8475
 1741TIP3    H126638   2.734   4.836   4.415 -0.1283  0.0754 -2.0302
 1741TIP3    H226639   2.672   4.922   4.523  2.7241 -1.5218  1.1070
 1742TIP3   OH226640   1.334   1.540   5.141  0.2987 -0.3218 -0.9050
 1742TIP3    H126641   1.408   1.600   5.148 -0.9120  1.2657 -1.1191
 1742TIP3    H226642   1.328   1.520   5.047 -0.7496  1.1957 -1.1937
 1743TIP3   OH226643   3.043   1.923   3.115 -0.2630 -0.5309  0.3403
 1743TIP3    H126644   3.108   1.858   3.088 -0.7765 -1.5799  1.4846
 1743TIP3    H226645   3.040   1.915   3.210  0.4619  2.0002  0.6359
 1744TIP3   OH226646   5.634   2.272  12.170 -0.2604 -0.3455  0.1371
 1744TIP3    H126647   5.622   2.233  12.257  0.3370  0.0144  0.3834
 1744TIP3    H226648   5.546   2.272  12.132 -0.5493 -0.4024  0.7883
 1745TIP3   OH226649   5.332   6.673   2.470 -0.4790  0.3415 -0.3230
 1745TIP3    H126650   5.306   6.582   2.483 -0.4497  0.2948 -0.5718
 1745TIP3    H226651   5.286   6.700   2.390 -1.5209  0.9632  0.4671
 1746TIP3   OH226652   5.284   1.281  10.975  0.3493  0.1035  0.3864
 1746TIP3    H126653   5.242   1.218  10.916  0.6638  2.0084 -2.0290
 1746TIP3    H226654   5.343   1.331  10.919  1.6165  1.2550  2.5970
 1747TIP3   OH226655   2.729   4.991   5.170  0.5924 -0.4052  0.1266
 1747TIP3    H126656   2.666   5.014   5.238  0.7829  1.7585 -0.3569
 1747TIP3    H226657   2.814   4.997   5.213  0.8245  2.4455 -0.5791
 1748TIP3   OH226658   4.657   2.179  17.086 -0.1437  0.0868 -0.1729
 1748TIP3    H126659   4.647   2.225  17.003  2.9527 -1.1378 -1.4018
 1748TIP3    H226660   4.579   2.124  17.093 -0.8822  0.8654 -1.8186
 1749TIP3   OH226661   4.377   3.554   3.151  0.8294 -0.1494  0.4237
 1749TIP3    H126662   4.457   3.579   3.106  0.6949  0.6933  0.6406
 1749TIP3    H226663   4.368   3.617   3.223  0.3432 -0.6639  0.8314
 1750TIP3   OH226664   1.103   5.625   5.464  0.1844 -0.0635  1.0732
 1750TIP3    H126665   1.171   5.563   5.437 -1.4287 -2.1758  1.5595
 1750TIP3    H226666   1.130   5.708   5.426  1.5309 -1.4322 -1.2378
 1751TIP3   OH226667   4.878   3.631  12.341 -0.2027 -0.8100  0.1672
 1751TIP3    H126668   4.955   3.675  12.377 -1.2340  0.3187  1.0832
 1751TIP3    H226669   4.868   3.667  12.253 -0.5555  0.2269  0.6100
 1752TIP3   OH226670   0.189   1.528   5.850  0.2192 -0.3846  0.1461
 1752TIP3    H126671   0.252   1.574   5.906  1.2513 -0.1370 -1.1643
 1752TIP3    H226672   0.116   1.590   5.841  0.4859 -0.0261  0.4049
 1753TIP3   OH226673   4.875   3.649   0.071  0.0398 -0.2411  0.1192
 1753TIP3    H126674   4.948   3.636   0.132 -0.5500 -1.1467  0.6699
 1753TIP3    H226675   4.914   3.643  -0.016  0.8951  1.0551  0.3975
 1754TIP3   OH226676   6.272   3.119  13.143 -0.2042  0.6913  0.4457
 1754TIP3    H126677   6.285   3.109  13.048  0.5773 -0.5722  0.6641
 1754TIP3    H226678   6.178   3.112  13.155 -0.1129 -2.4395  0.0557
 1755TIP3   OH226679   3.537   4.680   5.996 -0.4017  0.1174 -0.0111
 1755TIP3    H126680   3.478   4.726   5.936  0.3738  2.1378  0.6811
 1755TIP3    H226681   3.551   4.741   6.068 -0.3756 -1.7854  1.6826
 1756TIP3   OH226682   5.605   2.974  12.658  0.2512 -0.1939  0.0411
 1756TIP3    H126683   5.545   2.980  12.733 -0.8889 -0.2777 -0.8308
 1756TIP3    H226684   5.692   2.967  12.697 -0.4163 -1.4547  1.3848
 1757TIP3   OH226685   6.389   3.589  16.268  1.1180  0.5144  0.1859
 1757TIP3    H126686   6.447   3.514  16.252 -1.9955 -2.2632  0.8978
 1757TIP3    H226687   6.350   3.609  16.183  0.8722  0.3698  0.2643
 1758TIP3   OH226688   1.382   6.312  16.165  0.8595 -1.0837 -0.0493
 1758TIP3    H126689   1.423   6.272  16.088 -0.8276 -0.4281 -1.3697
 1758TIP3    H226690   1.295   6.339  16.134  0.3828 -0.1719  1.9192
 1759TIP3   OH226691   2.030   4.842  15.828 -0.2001 -0.1085  0.1035
 1759TIP3    H126692   2.036   4.764  15.773  0.6334 -1.0353  1.4507
 1759TIP3    H226693   2.120   4.869  15.841 -0.4402  0.6074  0.2995
 1760TIP3   OH226694   4.771   5.429  11.874 -0.2698  0.4364 -0.3565
 1760TIP3    H126695   4.827   5.363  11.834 -0.0956  0.5998 -0.3862
 1760TIP3    H226696   4.710   5.380  11.929  0.7250  0.3399  0.6969
 1761TIP3   OH226697   1.214   5.901  14.510 -0.3139 -0.0100  0.6568
 1761TIP3    H126698   1.281   5.920  14.444 -1.1972 -1.0825 -0.5962
 1761TIP3    H226699   1.240   5.816  14.546 -1.5182 -0.9403 -0.5780
 1762TIP3   OH226700   5.005   4.752  16.093 -0.4086 -0.2646  0.0256
 1762TIP3    H126701   4.983   4.844  16.073 -1.4369 -0.2697  1.0517
 1762TIP3    H226702   5.100   4.752  16.104 -0.5719  1.0459  1.7624
 1763TIP3   OH226703   5.636   4.518  13.714  0.2893  0.7460  0.3077
 1763TIP3    H126704   5.674   4.490  13.631  0.5054  1.6930  0.0709
 1763TIP3    H226705   5.578   4.446  13.740  1.3619 -0.2256  0.1056
 1764TIP3   OH226706   2.854   3.486   2.035 -0.4825 -0.4667 -0.1237
 1764TIP3    H126707   2.829   3.396   2.056 -1.4913 -0.1582  0.0595
 1764TIP3    H226708   2.860   3.489   1.940 -2.8684 -0.1550 -0.3240
 1765TIP3   OH226709   0.145   1.177   5.245  0.5583 -0.1817 -0.0103
 1765TIP3    H126710   0.213   1.241   5.266  1.4769 -1.2794  0.5226
 1765TIP3    H226711   0.084   1.223   5.188  1.6528  0.9032 -0.3338
 1766TIP3   OH226712   2.394   6.318   1.398  0.2983  0.0242 -0.2579
 1766TIP3    H126713   2.393   6.229   1.433 -1.0264  0.9029  2.1543
 1766TIP3    H226714   2.466   6.362   1.443  0.2984  0.4649 -0.6701
 1767TIP3   OH226715   6.117   5.363  13.790  0.3073  0.1191  0.3048
 1767TIP3    H126716   6.109   5.436  13.729 -1.1448 -0.7147 -0.5553
 1767TIP3    H226717   6.112   5.404  13.877  0.6679  1.1505 -0.1480
 1768TIP3   OH226718   0.883   3.125  12.305 -0.3537 -0.5192 -0.1732
 1768TIP3    H126719   0.925   3.126  12.219 -0.3719  0.2257 -0.1830
 1768TIP3    H226720   0.947   3.167  12.363 -0.4985 -0.6739  0.0986
 1769TIP3   OH226721   1.048   2.431   3.500 -0.4665  0.6198  0.4050
 1769TIP3    H126722   1.007   2.460   3.419  1.9191  0.4136 -0.9719
 1769TIP3    H226723   1.073   2.340   3.484  1.4247  1.0369  0.7171
 1770TIP3   OH226724   0.887   1.278  11.894 -0.0141  0.3084  0.0702
 1770TIP3    H126725   0.840   1.210  11.943  1.2587 -0.6329  0.0365
 1770TIP3    H226726   0.862   1.263  11.803  1.1088 -0.8487 -0.0708
 1771TIP3   OH226727   1.378   6.165   3.350 -0.5466 -0.2613 -0.4390
 1771TIP3    H126728   1.346   6.104   3.283  0.2405 -0.9308 -0.2211
 1771TIP3    H226729   1.310   6.164   3.418 -1.3841  0.4750 -1.2358
 1772TIP3   OH226730   1.431   0.161  11.097  0.0553 -0.4332 -0.5293
 1772TIP3    H126731   1.522   0.133  11.101 -0.0240 -0.5909  0.3555
 1772TIP3    H226732   1.434   0.248  11.056  0.7806  0.2676  0.9356
 1773TIP3   OH226733   1.911   4.230   4.925  0.4589 -0.0333  0.8649
 1773TIP3    H126734   1.873   4.317   4.918  1.9682  0.6158  0.3273
 1773TIP3    H226735   1.999   4.244   4.960  0.0073 -1.5469  2.7850
 1774TIP3   OH226736   6.596   4.800  13.071 -0.4200  0.1757 -0.8582
 1774TIP3    H126737   6.642   4.750  13.138 -0.3240  0.9221 -0.3456
 1774TIP3    H226738   6.530   4.850  13.120 -0.0779  1.0430 -1.2607
 1775TIP3   OH226739   1.498   2.173   0.824 -0.0612  0.0574  0.2532
 1775TIP3    H126740   1.429   2.191   0.888 -0.0985  0.5386  0.0789
 1775TIP3    H226741   1.560   2.118   0.872 -0.7464 -0.6908  0.2945
 1776TIP3   OH226742   4.426   0.517   0.723 -0.1523 -0.1010  0.1759
 1776TIP3    H126743   4.378   0.456   0.668 -2.1331  1.5306 -0.0176
 1776TIP3    H226744   4.384   0.511   0.809 -0.4054  0.9909  0.1425
 1777TIP3   OH226745   0.176   1.663   2.143 -0.2128 -0.3386  0.2871
 1777TIP3    H126746   0.146   1.748   2.177  0.3953 -0.6166  1.6019
 1777TIP3    H226747   0.120   1.646   2.068 -0.6042  1.0505  0.2336
 1778TIP3   OH226748   6.289   6.070   5.249  0.3620 -0.0061 -0.2658
 1778TIP3    H126749   6.226   6.004   5.220  0.8049 -0.1645 -0.8851
 1778TIP3    H226750   6.252   6.103   5.331 -0.7778  0.2531 -0.8580
 1779TIP3   OH226751   1.689   0.265   5.827 -0.1843 -0.0992  0.3100
 1779TIP3    H126752   1.761   0.207   5.850 -0.6923 -0.5312  0.8335
 1779TIP3    H226753   1.678   0.253   5.732 -1.0339 -1.7515  0.5866
 1780TIP3   OH226754   6.442   5.625  13.119  0.0433 -0.0586  0.0632
 1780TIP3    H126755   6.526   5.593  13.087 -0.1584  0.0336 -0.5809
 1780TIP3    H226756   6.384   5.619  13.043  0.3996  3.4047 -0.6344
 1781TIP3   OH226757   1.894   3.782  12.123 -0.0397 -0.2839  0.1446
 1781TIP3    H126758   1.945   3.738  12.055 -2.4632 -2.1316 -0.6070
 1781TIP3    H226759   1.890   3.719  12.195 -0.1644  0.3675  0.7223
 1782TIP3   OH226760   6.158   5.315   3.759  0.5133 -0.0721 -0.0933
 1782TIP3    H126761   6.160   5.410   3.748  0.9881 -0.1445 -0.7281
 1782TIP3    H226762   6.244   5.285   3.728  1.1477 -0.5329  1.9405
 1783TIP3   OH226763   0.641   2.563   4.113 -0.2588  0.4507 -0.3433
 1783TIP3    H126764   0.627   2.645   4.161 -0.6057  0.7897 -1.0057
 1783TIP3    H226765   0.584   2.571   4.036  0.9390  0.3158 -1.2757
 1784TIP3   OH226766   1.914   2.982  16.563  0.0934 -0.1555  0.1097
 1784TIP3    H126767   1.991   2.983  16.620 -0.5173  1.8490  0.9970
 1784TIP3    H226768   1.843   3.015  16.618 -1.1766 -0.9362 -0.9985
 1785TIP3   OH226769   4.438   3.692  14.714 -0.4592 -0.1279  0.3736
 1785TIP3    H126770   4.420   3.765  14.654 -1.8683  0.6082  1.6464
 1785TIP3    H226771   4.423   3.614  14.662 -1.9869  0.4962 -0.1594
 1786TIP3   OH226772   3.926   4.126  15.601  0.2222  0.5185  0.2952
 1786TIP3    H126773   3.870   4.075  15.543  0.1032  1.3276 -0.3217
 1786TIP3    H226774   3.953   4.201  15.549  1.0287  0.6879  0.9287
 1787TIP3   OH226775   6.429   4.246  16.518 -0.0773 -0.1138  0.5420
 1787TIP3    H126776   6.438   4.337  16.546  0.9646 -0.3698  1.0612
 1787TIP3    H226777   6.363   4.250  16.449  1.8687  1.4657 -1.3951
 1788TIP3   OH226778   6.684   1.237  13.414  0.1207 -0.0530  0.4006
 1788TIP3    H126779   6.767   1.192  13.399 -0.6509 -1.4117 -0.0175
 1788TIP3    H226780   6.664   1.221  13.506 -0.7591 -1.7451 -0.0288
 1789TIP3   OH226781   0.202   4.505  13.905  0.0152  0.0121  0.3480
 1789TIP3    H126782   0.115   4.500  13.944  0.6263 -0.8928  1.6896
 1789TIP3    H226783   0.186   4.516  13.812 -1.5365 -0.0061  0.5822
 1790TIP3   OH226784   2.424   0.608   4.296 -0.0606 -0.7989  0.1822
 1790TIP3    H126785   2.472   0.588   4.377  2.7719 -0.6787 -1.3452
 1790TIP3    H226786   2.475   0.567   4.227 -2.0865 -0.4025 -1.6644
 1791TIP3   OH226787   2.648   5.014  12.384 -0.3619 -0.6399  0.0641
 1791TIP3    H126788   2.734   5.055  12.378 -1.3422  1.5569 -0.1006
 1791TIP3    H226789   2.618   5.007  12.294 -1.0087  0.1649  0.2042
 1792TIP3   OH226790   1.433   4.164   2.986  0.0730 -0.3867  0.3443
 1792TIP3    H126791   1.438   4.252   3.024  1.3582 -0.5634  0.6112
 1792TIP3    H226792   1.491   4.111   3.040  1.0156 -0.9203 -1.1310
 1793TIP3   OH226793   1.270   0.561   2.711 -0.2804 -0.4307  0.9126
 1793TIP3    H126794   1.208   0.498   2.748 -0.7948  0.4326  1.5264
 1793TIP3    H226795   1.237   0.646   2.738 -0.2457  0.1957 -0.8757
 1794TIP3   OH226796   2.423   3.123   3.856  0.6244  0.4752  0.0954
 1794TIP3    H126797   2.495   3.070   3.890  1.4942 -0.7894 -3.2619
 1794TIP3    H226798   2.465   3.179   3.790 -0.6703  3.8082  1.8524
 1795TIP3   OH226799   4.204   4.471   1.627 -0.3884  0.0392 -0.8061
 1795TIP3    H126800   4.280   4.416   1.646  0.0467 -0.1380 -2.8695
 1795TIP3    H226801   4.233   4.560   1.646  0.0492 -0.1077 -0.7809
 1796TIP3   OH226802   1.987   0.483  17.023 -0.0338  0.4883  0.3459
 1796TIP3    H126803   1.906   0.434  17.014  1.0641 -0.9879 -3.1444
 1796TIP3    H226804   2.055   0.416  17.025  1.2852  1.7431 -0.4878
 1797TIP3   OH226805   6.022   4.471   5.833 -0.3748  0.2577 -0.6534
 1797TIP3    H126806   5.973   4.537   5.784  0.9284  0.2160 -2.0915
 1797TIP3    H226807   6.093   4.519   5.874 -2.2491  0.5539  2.5570
 1798TIP3   OH226808   1.650   6.482  11.398  0.5776  0.3302 -0.1702
 1798TIP3    H126809   1.569   6.523  11.428  0.5481  1.1790 -1.3555
 1798TIP3    H226810   1.689   6.445  11.478 -0.9581 -0.0975  0.4172
 1799TIP3   OH226811   3.080   5.109   5.593 -0.1659 -0.2021  0.5151
 1799TIP3    H126812   3.064   5.017   5.616  0.5378 -1.0021 -1.9021
 1799TIP3    H226813   2.996   5.139   5.557 -0.3393  0.0774  1.1309
 1800TIP3   OH226814   6.376   1.850   3.650  0.1693  0.3953  0.2156
 1800TIP3    H126815   6.297   1.890   3.688 -1.3036 -2.3408  0.2764
 1800TIP3    H226816   6.362   1.856   3.555  0.2541  0.5673  0.2134
 1801TIP3   OH226817   1.895   4.146   3.378 -0.0538  0.5477  0.1284
 1801TIP3    H126818   1.927   4.058   3.399  1.6294  0.2781 -2.9445
 1801TIP3    H226819   1.961   4.204   3.415 -0.7688  0.5448  1.4891
 1802TIP3   OH226820   6.515   0.391  14.341 -0.3159 -0.0424  0.0044
 1802TIP3    H126821   6.439   0.340  14.365  0.3517 -0.5850  0.9994
 1802TIP3    H226822   6.531   0.368  14.249  0.4585 -2.2728  0.6438
 1803TIP3   OH226823   4.899   5.541  15.121  0.2196  0.0620 -0.0633
 1803TIP3    H126824   4.971   5.576  15.174 -2.0576  1.7845  2.1702
 1803TIP3    H226825   4.838   5.615  15.113 -2.3022 -1.8896  0.0758
 1804TIP3   OH226826   1.668   5.503  10.621 -0.9663 -0.5742 -0.3806
 1804TIP3    H126827   1.706   5.416  10.637 -2.3728 -1.0438  0.5063
 1804TIP3    H226828   1.575   5.492  10.636 -1.4886  0.5975 -2.3837
 1805TIP3   OH226829   5.976   4.600  10.749 -0.1752 -0.1343  0.1150
 1805TIP3    H126830   5.958   4.661  10.678  0.2065 -1.1746 -0.9133
 1805TIP3    H226831   5.909   4.620  10.816  0.4049  1.8751  0.1545
 1806TIP3   OH226832   0.065   1.629   1.851  0.5615  0.2642 -0.0060
 1806TIP3    H126833   0.032   1.709   1.810 -1.0564  0.7316  2.0441
 1806TIP3    H226834   0.159   1.629   1.832  0.1124  1.0953 -2.4892
 1807TIP3   OH226835   0.847   6.506  13.480 -0.5827  0.2618  0.3855
 1807TIP3    H126836   0.839   6.436  13.546 -0.9552  0.6877  0.8017
 1807TIP3    H226837   0.833   6.462  13.396 -1.1287 -0.1087  0.6672
 1808TIP3   OH226838   0.569   0.444  15.176  0.1455  0.1497  0.3816
 1808TIP3    H126839   0.525   0.528  15.162  1.7627  1.0549  0.4706
 1808TIP3    H226840   0.513   0.380  15.132 -0.4534  1.4499 -0.8317
 1809TIP3   OH226841   4.889   6.583   2.895  1.1161 -0.3199 -0.5115
 1809TIP3    H126842   4.930   6.635   2.964  1.3708 -1.0555 -0.0973
 1809TIP3    H226843   4.901   6.635   2.816  1.5882  0.1314 -0.1531
 1810TIP3   OH226844   3.483   4.992   4.914  0.0531  0.2208  0.2651
 1810TIP3    H126845   3.575   4.966   4.925  0.1648 -0.0461 -1.1967
 1810TIP3    H226846   3.472   5.065   4.975  1.2221  0.2415  0.4814
 1811TIP3   OH226847   3.842   1.309  14.113 -0.7108 -0.1169 -0.5820
 1811TIP3    H126848   3.784   1.372  14.069 -1.8487 -0.2167  0.7096
 1811TIP3    H226849   3.782   1.245  14.151  0.2642 -0.2875  0.7134
 1812TIP3   OH226850   1.616   0.503  16.865 -0.2644  0.1260 -0.0528
 1812TIP3    H126851   1.526   0.500  16.832  0.1729 -0.2517 -1.2741
 1812TIP3    H226852   1.670   0.477  16.790  0.9320  1.1093  0.4304
 1813TIP3   OH226853   5.905   1.012  13.857 -0.1142  0.5079  0.5633
 1813TIP3    H126854   5.989   0.982  13.889  0.8839  1.8744 -0.6146
 1813TIP3    H226855   5.846   1.007  13.933  1.4919  1.2679  1.9076
 1814TIP3   OH226856   1.407   3.843  15.252  0.1439 -0.3995 -0.4758
 1814TIP3    H126857   1.361   3.914  15.207  1.0208 -0.3972 -1.3863
 1814TIP3    H226858   1.340   3.804  15.309 -0.2124  1.5170  0.5268
 1815TIP3   OH226859   6.509   3.823  15.082  0.3402  0.1610 -0.5090
 1815TIP3    H126860   6.560   3.901  15.105  0.2191 -0.2806  1.4775
 1815TIP3    H226861   6.507   3.822  14.987 -1.2876  3.6561 -0.6466
 1816TIP3   OH226862   0.520   6.786   2.696  0.2804  0.7025  0.1735
 1816TIP3    H126863   0.546   6.700   2.728 -3.1691 -0.8430 -0.6946
 1816TIP3    H226864   0.537   6.845   2.769  0.4976 -1.1320  1.6887
 1817TIP3   OH226865   2.416   2.111   4.325 -0.3812  0.1327  0.0700
 1817TIP3    H126866   2.498   2.067   4.347 -0.8672 -0.3286  1.0011
 1817TIP3    H226867   2.404   2.175   4.395 -1.2771 -0.4411  0.4516
 1818TIP3   OH226868   6.496   0.605  16.605  0.0381  0.0718 -0.4023
 1818TIP3    H126869   6.431   0.673  16.584 -0.6178 -0.3811  0.1136
 1818TIP3    H226870   6.460   0.561  16.683  0.3431 -1.0019 -0.8484
 1819TIP3   OH226871   6.034   4.204   5.840  0.2403  0.3929 -0.2393
 1819TIP3    H126872   6.053   4.296   5.819  0.3758  0.4987  0.3418
 1819TIP3    H226873   5.939   4.200   5.845  0.2116  0.4005 -0.7047
 1820TIP3   OH226874   1.027   3.522  13.633 -0.9760 -0.3494  1.0615
 1820TIP3    H126875   0.979   3.559  13.707 -1.3878 -0.2340  0.7433
 1820TIP3    H226876   1.035   3.429  13.654 -2.1005 -0.5362  0.7239
 1821TIP3   OH226877   2.627   1.061   6.038  0.2606  0.2284 -0.0385
 1821TIP3    H126878   2.535   1.061   6.011 -0.0144 -0.2412  0.8461
 1821TIP3    H226879   2.626   1.017   6.123  1.1876  1.0209  0.3904
 1822TIP3   OH226880   0.134   5.480   2.621 -0.0821 -0.1092  0.2256
 1822TIP3    H126881   0.217   5.434   2.632 -0.4344 -0.7183  0.3917
 1822TIP3    H226882   0.143   5.527   2.538  0.7944  0.6371  0.7208
 1823TIP3   OH226883   5.442   1.804  15.436  0.4729  0.0299  0.2390
 1823TIP3    H126884   5.520   1.855  15.458 -0.4860  1.9861 -0.6890
 1823TIP3    H226885   5.373   1.840  15.492  0.4364 -2.6477  2.1160
 1824TIP3   OH226886   1.361   5.613   3.282  0.6409 -0.3800  0.3164
 1824TIP3    H126887   1.266   5.596   3.282  0.8685 -1.7120  0.8173
 1824TIP3    H226888   1.395   5.557   3.212  1.0164  0.4183 -0.1514
 1825TIP3   OH226889   0.374   4.012  14.527 -0.0617 -0.0938  0.1726
 1825TIP3    H126890   0.320   3.965  14.592 -0.2388  0.4084  0.3910
 1825TIP3    H226891   0.460   4.017  14.567 -0.6730  2.1726  1.4021
 1826TIP3   OH226892   6.074   0.449  13.661 -0.0521  0.5989  0.1052
 1826TIP3    H126893   6.087   0.508  13.587 -0.5808  1.6049  0.7721
 1826TIP3    H226894   6.056   0.364  13.622  1.3321  0.7360 -0.8854
 1827TIP3   OH226895   5.396   3.779   4.184 -0.1615  0.2706 -0.4879
 1827TIP3    H126896   5.395   3.686   4.163  2.1286 -0.2117  1.1485
 1827TIP3    H226897   5.446   3.820   4.113  0.4390 -0.0552 -0.2586
 1828TIP3   OH226898   2.782   4.378   0.589 -0.2960  0.0209 -0.2541
 1828TIP3    H126899   2.777   4.288   0.555 -0.2879 -1.0307  2.2849
 1828TIP3    H226900   2.694   4.396   0.621 -1.0297  2.0194 -3.0750
 1829TIP3   OH226901   3.438   5.541   2.633 -0.2051  0.0226  0.3334
 1829TIP3    H126902   3.392   5.487   2.697 -1.1796  1.2068  0.6694
 1829TIP3    H226903   3.449   5.484   2.557 -0.9241 -0.7396  0.7894
 1830TIP3   OH226904   0.800   4.192  11.507  0.2666 -0.5465 -0.0992
 1830TIP3    H126905   0.842   4.258  11.562  0.8802 -2.1242  1.4386
 1830TIP3    H226906   0.713   4.181  11.545  0.4074 -1.0779  0.0804
 1831TIP3   OH226907   0.079   1.276   4.571  0.0597  0.4997  0.0013
 1831TIP3    H126908   0.002   1.254   4.518  0.0476 -0.0960  0.2544
 1831TIP3    H226909   0.084   1.372   4.568  0.7380  0.4286 -2.0160
 1832TIP3   OH226910   0.193   2.518  12.873 -0.0688  0.1707  0.5220
 1832TIP3    H126911   0.231   2.545  12.790 -0.2364 -0.7904  0.1240
 1832TIP3    H226912   0.261   2.535  12.938  0.7899 -0.8690 -0.0832
 1833TIP3   OH226913   4.731   4.338   5.285 -0.3574 -0.2300 -0.0949
 1833TIP3    H126914   4.740   4.312   5.194 -0.9252  0.8892 -0.4827
 1833TIP3    H226915   4.721   4.255   5.333  1.6864 -0.9585 -0.8045
 1834TIP3   OH226916   0.165   2.674  11.948 -0.5551 -0.1222 -0.2302
 1834TIP3    H126917   0.114   2.750  11.976 -1.1100 -0.3297 -0.6563
 1834TIP3    H226918   0.101   2.617  11.905 -0.2056 -0.9739  0.3575
 1835TIP3   OH226919   4.002   6.206  10.919 -0.2517  0.2236  0.0972
 1835TIP3    H126920   4.043   6.168  10.841 -0.3822 -0.7298  0.4797
 1835TIP3    H226921   4.019   6.142  10.989  0.8971  1.6148  1.1509
 1836TIP3   OH226922   3.813   4.744  12.731 -0.2986 -0.4947 -0.6618
 1836TIP3    H126923   3.768   4.732  12.814 -0.4971 -3.5927 -1.1103
 1836TIP3    H226924   3.764   4.813  12.686  0.3982  1.9767  2.0737
 1837TIP3   OH226925   0.940   0.417   1.551  0.2257  0.6332 -0.6899
 1837TIP3    H126926   0.870   0.478   1.576 -0.0547  0.1846 -0.3715
 1837TIP3    H226927   0.900   0.363   1.482 -0.0996 -0.3127  0.2137
 1838TIP3   OH226928   2.018   2.776   5.511  0.0576 -0.4875  0.3674
 1838TIP3    H126929   2.110   2.777   5.535  0.1226  0.7830  0.1255
 1838TIP3    H226930   1.971   2.767   5.594  0.3867 -0.8419  0.5161
 1839TIP3   OH226931   6.754   1.160  11.396  0.2704  0.5035  0.0231
 1839TIP3    H126932   6.845   1.132  11.400 -0.3718 -1.6369  0.9859
 1839TIP3    H226933   6.716   1.110  11.323 -1.0934 -2.0073  2.2685
 1840TIP3   OH226934   5.101   6.627  14.851  0.6246 -0.4969  0.8507
 1840TIP3    H126935   5.087   6.570  14.776  2.9089 -0.9029  0.6641
 1840TIP3    H226936   5.023   6.616  14.905 -0.6943 -0.8038 -1.0541
 1841TIP3   OH226937   4.111   4.006   0.528 -0.4001  0.5272  0.1463
 1841TIP3    H126938   4.114   3.911   0.519  0.6007  0.5781 -0.1480
 1841TIP3    H226939   4.117   4.022   0.622  2.3462  0.3435  0.0932
 1842TIP3   OH226940   5.216   1.745  12.692  1.1302  0.0290  0.4697
 1842TIP3    H126941   5.253   1.794  12.765 -0.8169  0.8977  0.9304
 1842TIP3    H226942   5.185   1.811  12.631  0.8064 -0.6714 -0.1476
 1843TIP3   OH226943   1.715   1.501   1.539 -0.6186  0.7604 -0.3830
 1843TIP3    H126944   1.684   1.591   1.526 -0.9691  0.6209 -0.5234
 1843TIP3    H226945   1.645   1.446   1.503 -0.1810  0.4409 -0.7419
 1844TIP3   OH226946   1.540   0.107   2.678  0.0139  0.0668 -0.3134
 1844TIP3    H126947   1.471   0.172   2.664 -0.0555  0.3676  1.2401
 1844TIP3    H226948   1.511   0.030   2.628 -1.3657  0.2552  0.1604
 1845TIP3   OH226949   1.065   5.327  12.547 -0.7382  0.0692 -0.1937
 1845TIP3    H126950   1.105   5.413  12.541  0.4185 -0.5162 -1.3871
 1845TIP3    H226951   1.124   5.278  12.605  0.6086 -0.9272 -2.2976
 1846TIP3   OH226952   1.216   3.506  11.781  0.8414 -0.4525  0.2803
 1846TIP3    H126953   1.201   3.561  11.858  0.9592  2.5125 -1.6549
 1846TIP3    H226954   1.308   3.480  11.787  1.3569  1.2480  0.3323
 1847TIP3   OH226955   1.002   5.136   0.340  0.3242  0.2854  0.2522
 1847TIP3    H126956   0.995   5.101   0.251  0.6913  0.6163  0.0928
 1847TIP3    H226957   0.934   5.203   0.344  0.6619  0.6402  0.0475
 1848TIP3   OH226958   4.260   3.515   1.740 -0.4562  0.0183  0.7460
 1848TIP3    H126959   4.276   3.476   1.655  0.4967 -0.5752  1.1833
 1848TIP3    H226960   4.286   3.607   1.729 -1.9070  0.3658 -0.0431
 1849TIP3   OH226961   6.378   1.835  14.122 -0.1382  0.4740  0.2236
 1849TIP3    H126962   6.294   1.816  14.165 -0.3371  1.5703  0.3457
 1849TIP3    H226963   6.375   1.929  14.105  0.4018  0.2571 -1.2196
 1850TIP3   OH226964   4.786   6.228   3.871  0.1851  0.0676 -0.1579
 1850TIP3    H126965   4.720   6.291   3.899 -1.4885 -1.2977 -0.9050
 1850TIP3    H226966   4.811   6.257   3.784 -0.9715 -0.5755 -0.7175
 1851TIP3   OH226967   4.155   5.881   2.104  0.0432  0.0481 -0.0731
 1851TIP3    H126968   4.169   5.940   2.030  0.2979  2.1085  1.5039
 1851TIP3    H226969   4.076   5.914   2.146 -0.2946 -1.2946  0.3864
 1852TIP3   OH226970   3.605   3.008  16.380  0.2165  0.3568  0.0513
 1852TIP3    H126971   3.671   3.066  16.418  1.6702  0.1472 -1.9995
 1852TIP3    H226972   3.647   2.922  16.380 -0.8367 -0.1709  0.4888
 1853TIP3   OH226973   3.885   4.492   5.589 -0.3322 -0.3739  0.3940
 1853TIP3    H126974   3.956   4.468   5.530 -0.1659  0.5772  0.1999
 1853TIP3    H226975   3.923   4.489   5.676 -0.2371 -0.5149  0.3476
 1854TIP3   OH226976   4.425   6.658  12.833  0.0052  0.3684  0.5102
 1854TIP3    H126977   4.496   6.658  12.896  1.3624  2.6102 -0.8810
 1854TIP3    H226978   4.427   6.571  12.794  1.4227  0.1222  1.0841
 1855TIP3   OH226979   5.316   5.249   5.693 -0.0823  0.1221  0.1755
 1855TIP3    H126980   5.411   5.246   5.699 -0.0610 -2.7830 -0.0799
 1855TIP3    H226981   5.286   5.243   5.784 -0.0384  0.8656  0.2442
 1856TIP3   OH226982   5.452   3.967   2.977 -0.1171  0.1104 -0.5987
 1856TIP3    H126983   5.373   3.921   2.950 -0.5349  0.5054 -0.0809
 1856TIP3    H226984   5.524   3.910   2.951 -0.6208 -0.7555 -0.1337
 1857TIP3   OH226985   2.651   5.275  17.009 -0.2604 -0.6382 -0.1823
 1857TIP3    H126986   2.708   5.256  17.084 -0.6844 -0.8532  0.0910
 1857TIP3    H226987   2.663   5.202  16.950  1.1351  0.2036 -0.9834
 1858TIP3   OH226988   3.544   2.452  15.045  0.3302  0.6249 -0.1499
 1858TIP3    H126989   3.559   2.365  15.008 -1.0235 -0.5789  1.9373
 1858TIP3    H226990   3.450   2.467  15.032  0.6917  2.2157 -1.2583
 1859TIP3   OH226991   4.916   5.156   5.433  0.3227 -0.1810 -0.0253
 1859TIP3    H126992   4.916   5.242   5.391  1.7440 -0.8999 -1.6374
 1859TIP3    H226993   4.856   5.165   5.507 -2.1665  1.2463 -2.0510
 1860TIP3   OH226994   6.460   6.613  14.987 -0.1421  0.4284 -0.2735
 1860TIP3    H126995   6.520   6.600  15.061 -0.3931  1.1540  0.0711
 1860TIP3    H226996   6.444   6.525  14.953  0.5633  0.1585  0.0687
 1861TIP3   OH226997   6.642   2.245   1.941 -0.7517 -0.7887 -0.0131
 1861TIP3    H126998   6.584   2.184   1.985  0.6929 -1.7956  0.5488
 1861TIP3    H226999   6.684   2.194   1.872  0.6868 -0.5442  0.6395
 1862TIP3   OH227000   0.423   2.267   1.751  0.3066  0.4153 -0.6046
 1862TIP3    H127001   0.338   2.275   1.708 -1.0369 -0.3153  1.7151
 1862TIP3    H227002   0.452   2.178   1.731 -0.6846 -0.1959  0.5675
 1863TIP3   OH227003   0.213   0.039  11.839 -0.4660  0.5255 -0.2114
 1863TIP3    H127004   0.202  -0.041  11.788 -1.4838  1.0985 -0.9198
 1863TIP3    H227005   0.256   0.010  11.920  1.3865 -0.3714 -1.4474
 1864TIP3   OH227006   6.421   1.345   5.393  0.0178  0.1638  0.3946
 1864TIP3    H127007   6.508   1.355   5.431 -0.4220  1.2655  1.1774
 1864TIP3    H227008   6.420   1.257   5.357  2.0547  0.7102 -1.2173
 1865TIP3   OH227009   4.679   6.655   3.724  0.1736  0.5631 -0.2777
 1865TIP3    H127010   4.644   6.682   3.809  1.5405  1.2353  0.1127
 1865TIP3    H227011   4.664   6.560   3.721  1.4929  0.2244  1.4604
 1866TIP3   OH227012   3.008   5.606  14.866  0.4037 -0.2637  0.2995
 1866TIP3    H127013   3.074   5.540  14.890  0.8445  0.1199  0.1410
 1866TIP3    H227014   3.046   5.689  14.892  0.5361  0.0939 -0.9672
 1867TIP3   OH227015   0.676   0.104  15.670  0.2589 -0.0480  0.2333
 1867TIP3    H127016   0.744   0.086  15.605 -0.6599 -0.1771 -0.7131
 1867TIP3    H227017   0.672   0.200  15.674 -0.8517  0.0016 -1.2013
 1868TIP3   OH227018   5.952   4.468   3.637  0.6695  0.8314  0.0139
 1868TIP3    H127019   5.895   4.506   3.704  2.2156  0.4241  1.6114
 1868TIP3    H227020   5.933   4.374   3.639  1.6619  0.6347  0.8505
 1869TIP3   OH227021   1.824   1.374  14.888 -0.3555  0.4576 -0.1181
 1869TIP3    H127022   1.802   1.411  14.973 -0.3564  1.0053 -0.3569
 1869TIP3    H227023   1.902   1.322  14.905 -0.4680  0.4030  0.2556
 1870TIP3   OH227024   3.705   6.743  16.820 -0.7004  0.3855 -0.0761
 1870TIP3    H127025   3.722   6.838  16.826  0.9835  0.1414 -0.2582
 1870TIP3    H227026   3.753   6.706  16.894 -1.4270 -0.3327  0.0427
 1871TIP3   OH227027   2.587   1.045  14.906 -0.6599 -0.0132  0.4727
 1871TIP3    H127028   2.604   1.133  14.941  0.6262  0.3070 -0.8468
 1871TIP3    H227029   2.669   0.998  14.920 -1.2790 -0.9744  1.0012
 1872TIP3   OH227030   3.042   5.245  16.773  0.1903  0.3623 -0.0723
 1872TIP3    H127031   3.035   5.243  16.868 -0.2042 -0.5378 -0.1075
 1872TIP3    H227032   3.116   5.186  16.753 -1.9106 -2.3600 -0.4599
 1873TIP3   OH227033   0.847   4.802   3.502  0.0951  0.0851  0.0508
 1873TIP3    H127034   0.813   4.756   3.578 -0.2426  1.1229  0.5487
 1873TIP3    H227035   0.939   4.776   3.497  0.4662  0.9661  1.5957
 1874TIP3   OH227036   2.440   2.396  13.677 -0.0935 -0.4060 -0.0917
 1874TIP3    H127037   2.445   2.355  13.764 -0.2352  0.8994  0.5684
 1874TIP3    H227038   2.509   2.354  13.626  1.1573 -0.0146  1.1968
 1875TIP3   OH227039   3.057   3.425  12.926  0.3727 -0.3773  0.5721
 1875TIP3    H127040   3.024   3.337  12.907  0.4573 -0.6688  1.6626
 1875TIP3    H227041   2.988   3.466  12.977  1.2892 -0.6987  2.1578
 1876TIP3   OH227042   1.224   3.756  15.458 -0.1088 -0.0715 -0.0295
 1876TIP3    H127043   1.166   3.681  15.468 -0.0619 -0.0411  0.4959
 1876TIP3    H227044   1.165   3.832  15.461 -0.1817 -0.0849 -0.7722
 1877TIP3   OH227045   3.750   6.731  16.376 -0.1192 -0.0661 -0.8391
 1877TIP3    H127046   3.669   6.724  16.428  0.2601  0.5278 -0.1549
 1877TIP3    H227047   3.809   6.782  16.431  1.5159 -2.3276 -0.3603
 1878TIP3   OH227048   3.555   3.610  12.466 -0.4753 -0.4082 -0.1374
 1878TIP3    H127049   3.637   3.562  12.476  1.1942  2.2645 -0.1753
 1878TIP3    H227050   3.523   3.586  12.378  1.2005 -0.1368 -0.8446
 1879TIP3   OH227051   2.879   5.741   3.096  0.3735  0.0701 -0.1382
 1879TIP3    H127052   2.862   5.664   3.150 -0.4934 -0.4301 -1.0933
 1879TIP3    H227053   2.969   5.766   3.117  0.4390 -0.7879  0.6758
 1880TIP3   OH227054   3.751   4.575   0.376  0.3355  0.3912  0.2726
 1880TIP3    H127055   3.713   4.509   0.318 -0.4933 -0.4948  1.7880
 1880TIP3    H227056   3.829   4.606   0.328  0.4946 -1.3411 -0.6765
 1881TIP3   OH227057   6.155   4.090  12.012 -0.1128  0.0767 -0.0417
 1881TIP3    H127058   6.236   4.040  12.015 -0.5034 -0.7850 -2.2151
 1881TIP3    H227059   6.088   4.029  12.044 -0.1467  0.2619  0.2465
 1882TIP3   OH227060   0.457   6.757  14.145 -0.7026 -0.1182 -1.1258
 1882TIP3    H127061   0.487   6.717  14.064  2.4574  0.0510 -0.1743
 1882TIP3    H227062   0.506   6.840  14.151  1.1908 -1.2706  2.0526
 1883TIP3   OH227063   3.179   0.368   2.031 -0.9509  0.3819  0.2673
 1883TIP3    H127064   3.119   0.319   1.975 -1.0522  0.2370  0.5044
 1883TIP3    H227065   3.227   0.424   1.970  1.5411 -2.3577 -0.4755
 1884TIP3   OH227066   0.374   5.809  13.908  0.1596 -0.3911  0.1514
 1884TIP3    H127067   0.453   5.862  13.919 -0.2132  0.1085  0.4287
 1884TIP3    H227068   0.306   5.855  13.956  0.1375 -1.8558  1.6069
 1885TIP3   OH227069   4.493   1.758  16.624  0.4637  0.2214 -0.1903
 1885TIP3    H127070   4.508   1.772  16.530  0.9928  0.8461 -0.0158
 1885TIP3    H227071   4.558   1.691  16.648  2.2275  2.0029  0.2900
 1886TIP3   OH227072   5.758   1.273  15.042  0.3060 -0.1862  0.1095
 1886TIP3    H127073   5.829   1.332  15.065  0.1602  0.2751 -0.6026
 1886TIP3    H227074   5.801   1.201  14.995  0.2824  0.2164 -0.5416
 1887TIP3   OH227075   3.884   0.493  14.481  0.0968  0.6220 -0.2439
 1887TIP3    H127076   3.807   0.437  14.474  1.1803 -0.9013 -0.6998
 1887TIP3    H227077   3.930   0.480  14.398  0.3905  2.2203 -0.3572
 1888TIP3   OH227078   6.070   3.472   3.676  0.2642 -0.0594  0.3236
 1888TIP3    H127079   6.051   3.473   3.582 -0.2600 -0.1050  0.4267
 1888TIP3    H227080   6.009   3.406   3.712  0.0723  0.3603  0.7739
 1889TIP3   OH227081   2.421   1.485   5.372 -0.0577 -0.2996 -0.3576
 1889TIP3    H127082   2.388   1.572   5.391 -1.2149 -0.4260 -1.6411
 1889TIP3    H227083   2.511   1.499   5.341 -0.7795  0.6287 -2.1378
 1890TIP3   OH227084   3.149   0.429   4.917  0.2318  0.3250  0.6491
 1890TIP3    H127085   3.098   0.497   4.874  0.7220 -0.6634 -1.6750
 1890TIP3    H227086   3.091   0.352   4.918  1.4394 -0.7125 -1.7203
 1891TIP3   OH227087   4.263   2.940  11.147 -0.5002  0.0469 -0.3204
 1891TIP3    H127088   4.241   2.847  11.151  1.2219 -0.4812 -1.6729
 1891TIP3    H227089   4.219   2.971  11.069 -0.0967  0.0742 -0.5363
 1892TIP3   OH227090   5.925   2.263  13.220  0.0386 -0.2225 -0.2335
 1892TIP3    H127091   5.916   2.356  13.238  0.1561 -0.5297  1.7036
 1892TIP3    H227092   5.887   2.251  13.133  0.4256  1.6807 -0.7036
 1893TIP3   OH227093   3.219   5.550  13.924  0.6267 -0.2876  0.1639
 1893TIP3    H127094   3.190   5.630  13.968  0.3089  0.2111 -0.9120
 1893TIP3    H227095   3.149   5.487  13.938  1.5514 -0.9249  2.3442
 1894TIP3   OH227096   0.391   6.434   2.343 -0.4471  0.8104 -1.1437
 1894TIP3    H127097   0.486   6.430   2.353 -0.6051 -3.4356  1.0253
 1894TIP3    H227098   0.364   6.504   2.403  1.2139  1.0501 -0.6260
 1895TIP3   OH227099   3.768   3.080  11.518  0.4354 -0.3832  0.1165
 1895TIP3    H127100   3.765   2.987  11.497 -0.3851 -0.5531  0.9338
 1895TIP3    H227101   3.679   3.111  11.502  1.2777  0.9250 -2.8920
 1896TIP3   OH227102   1.938   0.447  14.836  0.4387 -0.0533  0.5139
 1896TIP3    H127103   1.857   0.409  14.871 -0.0568 -1.4008 -1.9074
 1896TIP3    H227104   1.992   0.464  14.914 -1.4721 -0.7254  2.0576
 1897TIP3   OH227105   6.194   5.596  12.426 -0.2590 -0.0603  0.3653
 1897TIP3    H127106   6.204   5.519  12.370 -0.1253  1.3298 -1.6057
 1897TIP3    H227107   6.277   5.601  12.474 -0.5169 -1.4804  1.0071
 1898TIP3   OH227108   4.077   3.812  15.914  0.0334  0.1359 -0.4615
 1898TIP3    H127109   4.040   3.788  15.999 -2.7533  0.4673 -1.5124
 1898TIP3    H227110   4.104   3.729  15.875 -2.0676 -0.4695 -0.7214
 1899TIP3   OH227111   5.391   4.267   5.084  0.2433  0.7998  0.1957
 1899TIP3    H127112   5.421   4.318   5.160 -0.0283  0.7057  0.3684
 1899TIP3    H227113   5.387   4.331   5.013  0.8576  0.8127  0.1665
 1900TIP3   OH227114   2.162   6.278  12.271 -0.1211 -0.4303 -0.1408
 1900TIP3    H127115   2.234   6.238  12.222 -1.0113 -1.8332 -0.3732
 1900TIP3    H227116   2.189   6.271  12.363 -0.3139 -1.7602 -0.1657
 1901TIP3   OH227117   4.810   2.339  10.683  0.0809 -0.4212 -0.2009
 1901TIP3    H127118   4.879   2.397  10.717  0.2872 -0.3106 -0.8016
 1901TIP3    H227119   4.840   2.251  10.707 -0.2855 -0.2900  0.8086
 1902TIP3   OH227120   2.656   5.737   4.655 -0.3163 -0.6034  0.5621
 1902TIP3    H127121   2.726   5.673   4.661  0.8469  0.6958  1.6357
 1902TIP3    H227122   2.664   5.775   4.568  1.0720  0.3160  1.0632
 1903TIP3   OH227123   4.812   1.416   1.081  0.0516 -0.0618 -0.1913
 1903TIP3    H127124   4.836   1.415   0.988  0.3727 -1.2279 -0.1125
 1903TIP3    H227125   4.717   1.427   1.081  0.0504 -0.0377 -0.6551
 1904TIP3   OH227126   6.476   1.467  15.109  0.3445  0.2825  0.2451
 1904TIP3    H127127   6.542   1.533  15.090 -0.4899  0.9473 -0.4042
 1904TIP3    H227128   6.526   1.391  15.138  1.2922  1.7584  2.9135
 1905TIP3   OH227129   0.956   5.036  10.542  0.3159 -0.5991  0.5363
 1905TIP3    H127130   0.985   5.084  10.464 -2.3032 -1.1650 -0.8984
 1905TIP3    H227131   0.955   4.944  10.515 -0.6768 -0.8012  1.1966
 1906TIP3   OH227132   1.077   0.621  12.499 -0.1575 -0.3694  0.0568
 1906TIP3    H127133   0.999   0.567  12.510 -1.2416  1.0609 -0.3488
 1906TIP3    H227134   1.118   0.621  12.586 -1.4812  0.1340  0.7117
 1907TIP3   OH227135   6.065   0.553   4.792  0.3177  0.0162  0.3456
 1907TIP3    H127136   6.011   0.582   4.866 -0.3853 -0.4375  0.0175
 1907TIP3    H227137   6.084   0.634   4.744  0.1234  0.2067  0.5841
 1908TIP3   OH227138   2.700   1.201   1.858  0.2011 -0.0775  0.9830
 1908TIP3    H127139   2.683   1.295   1.867  0.6328 -0.1209  2.6165
 1908TIP3    H227140   2.795   1.195   1.845  0.0713 -0.2587  0.0649
 1909TIP3   OH227141   5.583   3.998  12.374 -0.0597 -0.2627 -0.1631
 1909TIP3    H127142   5.548   4.086  12.367  1.0097  0.1165 -1.2551
 1909TIP3    H227143   5.518   3.949  12.424 -0.6577  1.1435  0.4711
 1910TIP3   OH227144   0.563   5.183  15.203  0.6004 -0.7391  0.6247
 1910TIP3    H127145   0.568   5.278  15.196 -0.2018 -0.6658  0.9142
 1910TIP3    H227146   0.610   5.162  15.284 -0.8720 -0.3813  1.6282
 1911TIP3   OH227147   6.669   0.127  11.585  0.0505 -0.3756 -0.3358
 1911TIP3    H127148   6.631   0.181  11.516 -0.9618 -1.0253 -0.2980
 1911TIP3    H227149   6.761   0.154  11.588 -0.6956  2.3828  0.6636
 1912TIP3   OH227150   5.610   4.281   4.349 -0.3794 -0.2934 -0.8752
 1912TIP3    H127151   5.650   4.274   4.262  0.1078 -1.8319 -0.5642
 1912TIP3    H227152   5.575   4.370   4.352  2.8777  1.1477 -1.2304
 1913TIP3   OH227153   6.312   5.424  14.611 -0.7265 -0.6442  0.2905
 1913TIP3    H127154   6.403   5.441  14.587 -1.0900 -1.2144 -1.6520
 1913TIP3    H227155   6.298   5.475  14.691  1.1781 -0.2679  0.4288
 1914TIP3   OH227156   5.214   3.773  13.254  0.0432 -0.4092  0.0261
 1914TIP3    H127157   5.136   3.744  13.302 -0.1336  0.5278  0.3308
 1914TIP3    H227158   5.284   3.773  13.320  0.1573 -0.6215 -0.0933
 1915TIP3   OH227159   3.261   0.994   0.882  0.2239  0.0838  0.0598
 1915TIP3    H127160   3.227   0.934   0.949  1.1723 -0.1427  0.3581
 1915TIP3    H227161   3.251   0.945   0.800 -0.0789 -0.0162  0.1533
 1916TIP3   OH227162   5.230   4.660  11.363 -0.1484  0.5724  0.3053
 1916TIP3    H127163   5.270   4.581  11.328 -0.2699  0.2806  0.8247
 1916TIP3    H227164   5.296   4.698  11.420 -0.0811  0.8594  0.0388
 1917TIP3   OH227165   6.294   6.385  11.911 -0.2621 -0.4025  0.6168
 1917TIP3    H127166   6.215   6.331  11.915 -0.0249 -1.0536 -2.0304
 1917TIP3    H227167   6.264   6.473  11.932 -2.0406 -0.3597 -1.7881
 1918TIP3   OH227168   5.730   1.189   4.650  0.0833 -0.4433 -0.3953
 1918TIP3    H127169   5.664   1.120   4.661 -1.2812  0.9915  0.8643
 1918TIP3    H227170   5.784   1.158   4.577 -1.9771 -1.7011 -1.5113
 1919TIP3   OH227171   2.755   5.746  15.524 -0.2489 -0.0963 -0.0104
 1919TIP3    H127172   2.846   5.722  15.544 -0.3170  0.5979  1.2348
 1919TIP3    H227173   2.734   5.816  15.586 -1.7980 -0.5850  0.0682
 1920TIP3   OH227174   3.255   2.200  16.160 -0.0912 -0.5454  0.1554
 1920TIP3    H127175   3.293   2.114  16.176  0.8424 -0.8658 -2.9999
 1920TIP3    H227176   3.171   2.183  16.117 -0.1216  0.1055 -0.0642
 1921TIP3   OH227177   2.347   3.967  16.065  0.4450 -0.1666  0.3324
 1921TIP3    H127178   2.269   4.016  16.089  1.4768  2.2369 -0.8956
 1921TIP3    H227179   2.315   3.878  16.050 -1.7613  0.3745  1.3503
 1922TIP3   OH227180   2.521   6.276  12.436  0.1129  0.0281 -0.2558
 1922TIP3    H127181   2.500   6.183  12.444  1.8830 -0.4427 -0.4880
 1922TIP3    H227182   2.591   6.279  12.370  1.8501  1.2073  1.5340
 1923TIP3   OH227183   0.955   1.227  16.693 -0.3849  0.2971  0.3474
 1923TIP3    H127184   0.968   1.318  16.721 -1.8948  1.2087 -1.6914
 1923TIP3    H227185   0.926   1.234  16.602 -0.9443 -2.2261  0.2763
 1924TIP3   OH227186   4.293   2.474   5.119  0.4537  0.5012  0.1030
 1924TIP3    H127187   4.268   2.424   5.197 -1.2076 -0.2002 -0.8226
 1924TIP3    H227188   4.376   2.435   5.091  1.1686  0.8960  1.6132
 1925TIP3   OH227189   0.750   4.583   3.651  0.1380 -0.5144 -0.2091
 1925TIP3    H127190   0.659   4.562   3.631 -0.0647 -1.1683  1.3113
 1925TIP3    H227191   0.800   4.509   3.615  0.1501  0.0956 -1.5095
 1926TIP3   OH227192   4.230   3.525   5.660 -0.2036  0.8847 -0.6440
 1926TIP3    H127193   4.247   3.616   5.683 -0.1804  0.9668 -0.9823
 1926TIP3    H227194   4.315   3.491   5.633 -0.1215  0.6332 -0.0931
 1927TIP3   OH227195   0.795   6.066  16.508  0.0929  0.0691 -0.2679
 1927TIP3    H127196   0.759   6.145  16.548 -1.2346  0.4468 -2.0421
 1927TIP3    H227197   0.878   6.051  16.553 -0.4260  1.4995  1.2532
 1928TIP3   OH227198   5.441   3.048  11.351  0.4709  0.6852 -0.4646
 1928TIP3    H127199   5.404   3.044  11.263  0.8840  1.5960 -0.6895
 1928TIP3    H227200   5.529   3.083  11.338  1.1280 -0.6436  0.1466
 1929TIP3   OH227201   4.212   6.519  14.291  0.1890  0.2260 -0.0509
 1929TIP3    H127202   4.246   6.587  14.349 -0.9196  0.0489  0.8431
 1929TIP3    H227203   4.234   6.437  14.335  1.0681  0.0070 -0.8713
 1930TIP3   OH227204   4.996   1.503   4.807 -0.1154  0.6927 -0.4515
 1930TIP3    H127205   5.065   1.569   4.800 -1.6740  2.4356  0.1266
 1930TIP3    H227206   4.967   1.508   4.898 -1.1584  0.1352 -0.7372
 1931TIP3   OH227207   6.538   3.236  13.524  0.8178 -0.2608  0.1616
 1931TIP3    H127208   6.596   3.171  13.485  2.9005  1.2324  0.5468
 1931TIP3    H227209   6.516   3.296  13.452  3.0747  1.3891  0.7191
 1932TIP3   OH227210   5.773   0.669  15.440  0.2981  0.0188 -0.4099
 1932TIP3    H127211   5.734   0.698  15.523 -2.2004  0.2368 -1.5657
 1932TIP3    H227212   5.821   0.745  15.408 -0.3479  0.5685 -0.0865
 1933TIP3   OH227213   4.112   0.021   2.064 -0.1287  0.2949 -0.6073
 1933TIP3    H127214   4.043   0.080   2.093 -1.3626 -1.6176  0.5927
 1933TIP3    H227215   4.191   0.075   2.063 -1.4980  2.4029 -1.4417
 1934TIP3   OH227216   6.379   1.056   3.109  0.4289  0.0051 -0.2416
 1934TIP3    H127217   6.440   1.071   3.037  0.5205  1.9809  0.1693
 1934TIP3    H227218   6.293   1.065   3.070  0.4699  2.6966  0.0772
 1935TIP3   OH227219   6.571   2.777   1.380 -0.2285 -0.0601  0.3248
 1935TIP3    H127220   6.510   2.847   1.405  0.6097  0.0697  2.1736
 1935TIP3    H227221   6.517   2.713   1.334 -0.8532  2.2291 -2.4115
 1936TIP3   OH227222   5.985   1.301  12.602  0.0451  0.4097 -0.1260
 1936TIP3    H127223   5.955   1.360  12.533  1.2960 -1.0310 -2.0162
 1936TIP3    H227224   6.035   1.357  12.661 -2.3285  1.9691  0.5526
 1937TIP3   OH227225   6.344   2.072  12.393 -0.3153 -0.2988 -0.1568
 1937TIP3    H127226   6.428   2.082  12.438 -0.1862 -2.1526  0.1135
 1937TIP3    H227227   6.358   1.998  12.334 -1.5561 -0.1793 -0.6249
 1938TIP3   OH227228   6.712   0.827   4.043 -0.3715 -0.0279 -0.0483
 1938TIP3    H127229   6.695   0.846   4.135  1.0349 -0.6836  0.3742
 1938TIP3    H227230   6.688   0.735   4.033  0.0577 -0.1249 -0.1828
 1939TIP3   OH227231   2.632   5.825  12.733  0.3702 -0.6088 -0.1650
 1939TIP3    H127232   2.714   5.779  12.754  0.9881  0.0138 -1.1505
 1939TIP3    H227233   2.569   5.754  12.716  1.2844 -1.1193 -1.5657
 1940TIP3   OH227234   3.779   1.139   5.896 -0.0316  0.3367 -0.3031
 1940TIP3    H127235   3.786   1.097   5.982 -0.1575  2.2044  0.6764
 1940TIP3    H227236   3.685   1.154   5.885  0.1139  1.5840  0.0199
 1941TIP3   OH227237   2.621   0.188  12.516  0.1195  0.6287  0.0132
 1941TIP3    H127238   2.619   0.093  12.503 -0.5635  0.2896  2.2330
 1941TIP3    H227239   2.532   0.211  12.543  0.1996  1.9638 -0.7657
 1942TIP3   OH227240   6.678   0.129   3.220 -0.0136 -0.1678  0.3335
 1942TIP3    H127241   6.767   0.148   3.188 -0.3277  0.3386 -0.2456
 1942TIP3    H227242   6.654   0.049   3.174  0.8180 -1.3296  1.8268
 1943TIP3   OH227243   3.935   2.753  16.285 -0.1587 -0.1785  0.6921
 1943TIP3    H127244   3.947   2.825  16.346 -2.7002  0.6102  0.3959
 1943TIP3    H227245   3.842   2.732  16.290  0.4610 -3.5608  0.8427
 1944TIP3   OH227246   3.724   0.338  14.833  0.6602  0.2961 -0.2669
 1944TIP3    H127247   3.660   0.270  14.852  0.9765  0.2590  0.7540
 1944TIP3    H227248   3.673   0.418  14.826  0.2359 -0.0748 -1.8858
 1945TIP3   OH227249   4.758   4.606   4.160 -0.1331  0.2627 -0.2482
 1945TIP3    H127250   4.700   4.549   4.210 -0.6814  1.6598  0.7504
 1945TIP3    H227251   4.722   4.603   4.071  0.6472 -1.9532 -0.5719
 1946TIP3   OH227252   4.956   4.628   1.791 -0.2960  0.0152  0.8679
 1946TIP3    H127253   4.909   4.558   1.836 -0.9335 -1.9983 -2.5049
 1946TIP3    H227254   4.910   4.637   1.707  1.2984  2.7846  0.1802
 1947TIP3   OH227255   4.315   4.537  11.737 -0.1702 -0.2894 -0.1847
 1947TIP3    H127256   4.339   4.454  11.694  2.2908  0.0187  0.4687
 1947TIP3    H227257   4.389   4.557  11.794 -1.5354  1.4453  1.1021
 1948TIP3   OH227258   4.839   0.877   5.724  0.1534  0.0921 -0.1233
 1948TIP3    H127259   4.832   0.872   5.820  1.8686  1.7284  0.1555
 1948TIP3    H227260   4.750   0.895   5.694 -0.5411 -1.1404  1.0747
 1949TIP3   OH227261   4.431   1.089   1.860 -0.0747  0.4002 -0.1455
 1949TIP3    H127262   4.458   1.033   1.787 -1.4436  0.6832 -0.9089
 1949TIP3    H227263   4.374   1.154   1.820  0.5837  1.6777  0.9072
 1950TIP3   OH227264   3.624   4.206   3.097  0.1628  0.1051 -0.3042
 1950TIP3    H127265   3.629   4.118   3.136 -1.0438  0.4456  0.6998
 1950TIP3    H227266   3.566   4.196   3.022  0.1733  0.0014 -0.2983
 1951TIP3   OH227267   0.809   0.612  16.963 -0.4554 -0.6823  0.4646
 1951TIP3    H127268   0.828   0.620  17.056  1.1487 -1.1050  0.1990
 1951TIP3    H227269   0.726   0.564  16.959 -0.2298 -1.1911  1.6624
 1952TIP3   OH227270   6.121   1.673  16.871 -0.1848  0.1480 -0.3111
 1952TIP3    H127271   6.044   1.690  16.925 -0.2681 -0.7663 -0.1316
 1952TIP3    H227272   6.182   1.627  16.930 -0.4179 -1.1889 -1.0726
 1953TIP3   OH227273   5.309   5.109   1.631  0.0528  0.3082 -0.2577
 1953TIP3    H127274   5.380   5.136   1.689 -0.9263 -1.2909  1.8463
 1953TIP3    H227275   5.254   5.186   1.623 -0.4198  0.3028  2.0374
 1954TIP3   OH227276   1.927   6.278  16.731  0.1256  0.3103 -0.0475
 1954TIP3    H127277   2.011   6.238  16.710 -0.0131 -0.7480  1.2445
 1954TIP3    H227278   1.947   6.341  16.800 -0.3933 -1.6767  2.0506
 1955TIP3   OH227279   1.729   6.159   0.483 -0.0138 -0.1047  0.2213
 1955TIP3    H127280   1.748   6.175   0.390 -0.1400 -0.9788  0.0276
 1955TIP3    H227281   1.674   6.232   0.510 -0.5944 -0.2284 -0.5999
 1956TIP3   OH227282   0.346   6.546  16.204 -0.2152  0.2716 -0.0890
 1956TIP3    H127283   0.373   6.603  16.132 -0.3164  0.6664  0.1812
 1956TIP3    H227284   0.373   6.458  16.176  0.0105  0.4591 -0.4769
 1957TIP3   OH227285   4.982   3.524   0.555  0.6554  0.1035  0.5649
 1957TIP3    H127286   4.989   3.475   0.474 -0.6550  0.9746 -0.1077
 1957TIP3    H227287   5.014   3.612   0.533 -1.9967  1.0740  0.2546
 1958TIP3   OH227288   6.684   4.816   4.619  0.0979 -0.0837  0.0976
 1958TIP3    H127289   6.759   4.756   4.618 -0.5427 -0.9046 -0.5596
 1958TIP3    H227290   6.639   4.796   4.701 -1.3732 -2.1781 -1.1183
 1959TIP3   OH227291   4.154   2.875  13.147  0.2031 -0.5115 -0.1001
 1959TIP3    H127292   4.200   2.807  13.097  1.5889  1.4240 -1.6316
 1959TIP3    H227293   4.062   2.859  13.129  0.5990 -0.7794 -2.1543
 1960TIP3   OH227294   2.183   1.616  11.892 -0.1322 -0.3678  0.0390
 1960TIP3    H127295   2.109   1.577  11.939 -1.0286  0.4841 -0.5983
 1960TIP3    H227296   2.261   1.584  11.937 -0.9313  0.2640  1.9856
 1961TIP3   OH227297   1.533   4.369  15.076  0.1455 -0.1217 -0.1322
 1961TIP3    H127298   1.475   4.396  15.146  0.6677  2.3425 -0.5378
 1961TIP3    H227299   1.597   4.441  15.068  1.0727 -1.0538 -2.0400
 1962TIP3   OH227300   1.641   2.715   1.423  0.2317 -0.1991  0.4661
 1962TIP3    H127301   1.634   2.652   1.351 -0.7754  0.6221 -0.1870
 1962TIP3    H227302   1.694   2.787   1.386 -0.1071  0.1287  0.6155
 1963TIP3   OH227303   2.867   0.282   5.488  0.2990 -0.0622 -0.1375
 1963TIP3    H127304   2.905   0.195   5.479  1.0083  0.2681 -0.3478
 1963TIP3    H227305   2.774   0.269   5.470  0.1708 -0.9993  1.0453
 1964TIP3   OH227306   2.200   0.910   0.244 -0.4100  0.4830  0.5692
 1964TIP3    H127307   2.134   0.843   0.262 -0.8590  0.2756 -1.6075
 1964TIP3    H227308   2.235   0.887   0.158  0.9112  1.8872  0.6874
 1965TIP3   OH227309   3.831   6.676  11.094  0.2000  0.3514  0.2124
 1965TIP3    H127310   3.796   6.758  11.059 -0.4666 -0.2542 -0.5972
 1965TIP3    H227311   3.798   6.609  11.034  2.9720 -0.2546 -0.7897
 1966TIP3   OH227312   5.058   6.733   5.829  0.0344 -0.6226  0.0800
 1966TIP3    H127313   5.091   6.750   5.741 -1.7636 -0.3806 -0.5919
 1966TIP3    H227314   5.012   6.813   5.854 -0.6588 -1.1849  0.6649
 1967TIP3   OH227315   6.560   6.393  11.963  0.8053 -0.8855 -0.3714
 1967TIP3    H127316   6.490   6.395  11.898  2.2426 -2.1949 -2.0645
 1967TIP3    H227317   6.581   6.485  11.978 -1.8352 -0.4049  0.9024
 1968TIP3   OH227318   4.180   2.558   3.726 -0.6258  0.1718  0.2324
 1968TIP3    H127319   4.261   2.573   3.678 -0.2234  1.2491  1.1933
 1968TIP3    H227320   4.116   2.617   3.686 -0.3354  0.9456  0.8898
 1969TIP3   OH227321   4.295   4.307   4.159 -0.2785  0.2118 -0.5471
 1969TIP3    H127322   4.254   4.384   4.120 -0.1483  1.5683  1.8070
 1969TIP3    H227323   4.235   4.280   4.229  1.3323  0.3865  0.9763
 1970TIP3   OH227324   1.775   2.206   3.026  0.0264  0.1689 -0.0061
 1970TIP3    H127325   1.854   2.259   3.038 -0.2498  1.0231 -1.6455
 1970TIP3    H227326   1.717   2.262   2.975 -0.7817 -1.2622 -0.7092
 1971TIP3   OH227327   4.004   4.577  12.931  0.0015 -0.1091 -0.3112
 1971TIP3    H127328   4.033   4.650  12.986 -2.4920 -0.2934  1.3944
 1971TIP3    H227329   4.008   4.610  12.842  2.2647  0.8836  0.0996
 1972TIP3   OH227330   2.355   4.767   6.379  0.7614  0.6207 -0.1942
 1972TIP3    H127331   2.406   4.836   6.422  2.0626  0.6196 -1.6378
 1972TIP3    H227332   2.273   4.810   6.355  1.0568  1.3283  0.0249
 1973TIP3   OH227333   1.135   2.671  14.422 -0.2143  0.8351  0.3794
 1973TIP3    H127334   1.121   2.652  14.329 -1.0195  1.3368  0.3936
 1973TIP3    H227335   1.076   2.611  14.468  0.1843  0.5871  0.5789
 1974TIP3   OH227336   1.353   0.354   6.325  0.3393 -0.1196 -0.0697
 1974TIP3    H127337   1.435   0.330   6.368 -0.1699 -0.8047  0.5299
 1974TIP3    H227338   1.284   0.330   6.387 -0.2947  1.2518 -0.1938
 1975TIP3   OH227339   3.060   0.611  15.098  0.4823  0.6174 -0.3504
 1975TIP3    H127340   3.057   0.516  15.105  0.4621  0.5709 -0.9442
 1975TIP3    H227341   3.137   0.629  15.044  1.4289  1.0255  1.0761
 1976TIP3   OH227342   4.689   5.242   1.654 -0.1915  0.9110  0.1331
 1976TIP3    H127343   4.693   5.224   1.748  1.6688 -0.3296 -0.1203
 1976TIP3    H227344   4.716   5.159   1.613  1.7927  2.2195 -1.3959
 1977TIP3   OH227345   4.996   2.567  15.400 -0.1213 -0.0891 -0.3262
 1977TIP3    H127346   5.065   2.503  15.413  2.1412  2.1861 -0.2537
 1977TIP3    H227347   5.028   2.622  15.328 -1.7914  1.1335 -0.1906
 1978TIP3   OH227348   0.668   1.337   6.182  0.7764  0.2291 -0.0443
 1978TIP3    H127349   0.661   1.243   6.193  1.0530  0.1609 -0.4403
 1978TIP3    H227350   0.582   1.364   6.149  0.7980  0.0700 -0.2345
 1979TIP3   OH227351   3.355   4.063  13.277 -0.3312 -0.1528  0.0609
 1979TIP3    H127352   3.300   4.140  13.267  0.5528  0.4814 -0.0691
 1979TIP3    H227353   3.391   4.070  13.365 -0.1877 -0.3825  0.0231
 1980TIP3   OH227354   2.746   4.406   3.814  0.5143  0.0778  0.8607
 1980TIP3    H127355   2.810   4.383   3.747 -0.5025  0.4494 -0.2614
 1980TIP3    H227356   2.730   4.325   3.862  1.3838 -0.1444  0.7869
 1981TIP3   OH227357   4.276   2.357  11.907 -0.4442  0.6114 -0.0065
 1981TIP3    H127358   4.281   2.387  11.998 -0.2052  2.7467 -0.6596
 1981TIP3    H227359   4.183   2.356  11.887 -0.6486 -1.6964  0.7609
 1982TIP3   OH227360   4.673   4.012   2.320 -0.4933  0.1265  0.0439
 1982TIP3    H127361   4.685   4.103   2.347  1.8305 -0.7747  2.4924
 1982TIP3    H227362   4.688   4.012   2.226  0.0609  2.1913  0.0926
 1983TIP3   OH227363   2.400   3.763  14.835  0.0419  0.2724 -0.4068
 1983TIP3    H127364   2.353   3.814  14.902 -0.5341  0.1254 -0.6890
 1983TIP3    H227365   2.331   3.715  14.789  0.3917  0.7300 -1.4249
 1984TIP3   OH227366   4.189   5.072  11.711 -0.1300  0.5468 -0.3842
 1984TIP3    H127367   4.235   4.992  11.736 -0.5430  0.5262  0.3499
 1984TIP3    H227368   4.175   5.064  11.617  0.2298 -0.0344 -0.3907
 1985TIP3   OH227369   1.495   1.123   3.267  0.2226  0.0018  0.5955
 1985TIP3    H127370   1.505   1.085   3.180 -0.5078  1.4159 -0.1411
 1985TIP3    H227371   1.400   1.123   3.282  0.2430  1.0072  0.8027
 1986TIP3   OH227372   0.254   1.290   2.545 -0.2607  0.0081  0.0851
 1986TIP3    H127373   0.159   1.293   2.534 -0.0790  1.5612 -1.6234
 1986TIP3    H227374   0.286   1.362   2.491  1.8872 -0.3567  0.7884
 1987TIP3   OH227375   5.052   3.227   1.395 -0.1145  0.2777 -0.0163
 1987TIP3    H127376   5.003   3.294   1.443 -1.0958  0.3259 -1.0316
 1987TIP3    H227377   5.048   3.149   1.450 -1.2794  0.3128 -0.0366
 1988TIP3   OH227378   1.040   4.269   3.038 -0.4042  0.4986 -0.2633
 1988TIP3    H127379   1.009   4.253   2.949  0.2860  1.7151 -0.7471
 1988TIP3    H227380   1.060   4.182   3.072  0.7731  0.0857 -1.8452
 1989TIP3   OH227381   2.849   2.924   5.185 -0.1750 -0.0738  0.0366
 1989TIP3    H127382   2.770   2.877   5.160  0.0713 -0.2719 -0.4014
 1989TIP3    H227383   2.835   3.013   5.154 -0.0566 -0.2127 -0.4414
 1990TIP3   OH227384   1.220   2.358   0.240  0.0279  0.2385 -0.2246
 1990TIP3    H127385   1.301   2.364   0.190 -0.4504 -2.3455 -1.4981
 1990TIP3    H227386   1.151   2.355   0.173 -0.6692 -2.8119  0.4887
 1991TIP3   OH227387   0.097   0.896   0.167  0.5492  0.4326 -0.6827
 1991TIP3    H127388   0.139   0.899   0.082 -1.3120 -0.6341 -1.7169
 1991TIP3    H227389   0.091   0.988   0.195  1.3976  0.7668 -1.5703
 1992TIP3   OH227390   6.554   6.068  14.979 -0.1764  0.5331  0.2918
 1992TIP3    H127391   6.587   6.110  15.058 -0.0018  1.3812 -0.2141
 1992TIP3    H227392   6.620   6.090  14.912 -1.2407  1.4089 -0.5086
 1993TIP3   OH227393   0.268   3.903   3.351  0.4879 -0.4821  0.0407
 1993TIP3    H127394   0.357   3.878   3.327  0.5616 -0.1149 -0.0753
 1993TIP3    H227395   0.230   3.824   3.388  1.2657 -0.3004  1.2821
 1994TIP3   OH227396   4.120   6.110   3.688  0.3937  0.8419 -0.1533
 1994TIP3    H127397   4.095   6.092   3.598 -1.6417 -1.4584  0.7595
 1994TIP3    H227398   4.193   6.050   3.706 -0.7035 -0.3932  0.3428
 1995TIP3   OH227399   5.771   5.767   0.199 -0.5852 -0.1429  0.4469
 1995TIP3    H127400   5.805   5.803   0.117  1.1922 -0.6239  0.9237
 1995TIP3    H227401   5.771   5.672   0.185 -0.6568 -0.2043  0.8694
 1996TIP3   OH227402   6.586   1.068   0.424  0.0613 -0.0545 -0.2079
 1996TIP3    H127403   6.538   0.986   0.438  0.1747 -0.1441 -0.3464
 1996TIP3    H227404   6.678   1.042   0.425  0.0960  0.0652 -0.2935
 1997TIP3   OH227405   5.172   1.816   4.253 -0.1724  0.0880  0.0671
 1997TIP3    H127406   5.205   1.750   4.315 -3.6445 -1.0484  0.9775
 1997TIP3    H227407   5.145   1.765   4.177 -0.8505  0.7528 -0.1469
 1998TIP3   OH227408   4.846   1.122   4.268 -0.5584 -0.0691  0.7441
 1998TIP3    H127409   4.779   1.075   4.218  0.3503 -1.7217  0.9821
 1998TIP3    H227410   4.897   1.168   4.201 -0.6599 -0.5266  0.3415
 1999TIP3   OH227411   0.169   3.780  15.646 -0.4809 -0.2362 -0.3574
 1999TIP3    H127412   0.130   3.868  15.652 -1.3256 -0.4170 -2.3013
 1999TIP3    H227413   0.263   3.796  15.638 -0.5406  0.4427  0.2472
 2000TIP3   OH227414   3.975   6.688   4.669 -0.5188 -0.2725 -0.4036
 2000TIP3    H127415   4.012   6.604   4.695 -2.1270 -0.9179 -0.0977
 2000TIP3    H227416   3.881   6.675   4.674 -0.8093  1.8609  0.6113
 2001TIP3   OH227417   4.590   4.784  10.601  0.8890  0.0220  0.0101
 2001TIP3    H127418   4.614   4.720  10.534 -1.3956 -1.6061  0.6583
 2001TIP3    H227419   4.588   4.868  10.553 -0.7967 -1.0989 -2.0603
 2002TIP3   OH227420   2.464   4.148  14.150 -0.0100  0.2735  0.3175
 2002TIP3    H127421   2.378   4.134  14.189  0.1043 -0.5810  0.2649
 2002TIP3    H227422   2.525   4.104  14.209  0.1519 -1.1675 -0.8763
 2003TIP3   OH227423   2.414   0.261  11.128 -0.2288 -0.0534  0.3195
 2003TIP3    H127424   2.389   0.344  11.169 -0.8861 -0.4108  0.6581
 2003TIP3    H227425   2.373   0.264  11.041 -1.8224 -0.8007  1.0137
 2004TIP3   OH227426   0.565   3.727   1.476 -0.8916 -0.2288  0.1138
 2004TIP3    H127427   0.655   3.757   1.492 -0.3605 -0.2570 -2.3167
 2004TIP3    H227428   0.535   3.694   1.560  0.9097  0.9653  1.3058
 2005TIP3   OH227429   0.616   5.865   5.016 -0.3971 -0.1385  0.5874
 2005TIP3    H127430   0.560   5.902   4.947  0.9204  0.6430 -0.1038
 2005TIP3    H227431   0.638   5.777   4.985  1.0112  0.5714 -0.5274
 2006TIP3   OH227432   4.514   6.293  14.102  0.1166  0.1068  0.2544
 2006TIP3    H127433   4.594   6.314  14.054 -0.6957 -0.5392 -1.4900
 2006TIP3    H227434   4.539   6.296  14.194  2.2300 -0.4048 -0.2522
 2007TIP3   OH227435   0.401   6.026  16.852  0.0242  0.7892 -0.0376
 2007TIP3    H127436   0.465   6.097  16.851 -0.6039  1.3693 -0.1107
 2007TIP3    H227437   0.377   6.014  16.760  3.1138 -2.3254 -0.6079
 2008TIP3   OH227438   2.258   4.414   5.512 -0.3522  0.0336  0.4610
 2008TIP3    H127439   2.308   4.458   5.581 -0.0146 -2.2142  1.7654
 2008TIP3    H227440   2.194   4.479   5.483  0.2315  1.4236  2.1206
 2009TIP3   OH227441   2.975   6.149  11.350 -0.0317 -0.8394 -0.1027
 2009TIP3    H127442   2.997   6.242  11.346 -2.2455 -0.2570 -0.1182
 2009TIP3    H227443   2.998   6.115  11.263  1.1639 -0.4288  0.0365
 2010TIP3   OH227444   4.614   6.336   5.918 -0.1414  0.0531  0.4049
 2010TIP3    H127445   4.656   6.351   6.003  0.8450 -2.5058  0.4575
 2010TIP3    H227446   4.579   6.247   5.924  1.2348 -0.7927 -2.3505
 2011TIP3   OH227447   4.006   4.755   4.959 -0.1649  0.0389  0.7573
 2011TIP3    H127448   3.949   4.793   5.025  0.3635  0.1414  1.1545
 2011TIP3    H227449   3.987   4.804   4.879 -0.2486  0.4224  1.0147
 2012TIP3   OH227450   3.117   2.266   4.419 -0.5412  0.1038  0.2002
 2012TIP3    H127451   3.166   2.184   4.429  0.0769  0.7591  3.9533
 2012TIP3    H227452   3.035   2.251   4.466 -0.8687  1.2958  0.0427
 2013TIP3   OH227453   2.888   4.008  15.155  0.8199  0.1571 -0.3651
 2013TIP3    H127454   2.834   4.048  15.087 -0.5291  0.3579  0.7643
 2013TIP3    H227455   2.929   4.083  15.199 -0.6397  0.2731  0.8840
 2014TIP3   OH227456   4.096   5.128  14.166  0.4828 -0.1130 -0.2548
 2014TIP3    H127457   4.017   5.083  14.136  0.6596 -0.2082 -0.5838
 2014TIP3    H227458   4.064   5.209  14.205 -0.0944 -1.6986  2.8530
 2015TIP3   OH227459   5.362   4.976  13.730  0.2803 -0.0393  0.5532
 2015TIP3    H127460   5.272   4.997  13.705  0.5394 -0.4600 -0.8469
 2015TIP3    H227461   5.366   4.881  13.728  0.8472 -0.0124  0.2649
 2016TIP3   OH227462   1.973   2.468   5.448 -0.0145 -0.1826 -0.1742
 2016TIP3    H127463   2.032   2.527   5.401 -1.7070  1.4777 -0.3313
 2016TIP3    H227464   1.981   2.495   5.540  0.6140 -1.0323  0.0398
 2017TIP3   OH227465   5.122   1.813  17.041  0.5913 -0.4711 -0.0817
 2017TIP3    H127466   5.117   1.730  16.994 -0.7729  0.0541 -0.9210
 2017TIP3    H227467   5.033   1.848  17.038  1.5424  2.0596 -1.7025
 2018TIP3   OH227468   2.525   5.175  15.264 -0.3180 -0.0187  0.3051
 2018TIP3    H127469   2.449   5.117  15.252 -0.6406  0.0195  1.9358
 2018TIP3    H227470   2.600   5.120  15.243 -0.5230 -1.5350  3.0567
 2019TIP3   OH227471   0.407   1.386   6.106  0.7493 -0.6096  0.1441
 2019TIP3    H127472   0.447   1.465   6.070  2.7388 -1.4432  0.3754
 2019TIP3    H227473   0.373   1.413   6.192 -1.6058  0.7281 -1.1231
 2020TIP3   OH227474   1.564   4.393   1.724  0.0236  0.0360  0.0235
 2020TIP3    H127475   1.629   4.383   1.794 -2.0040 -0.6689  1.9278
 2020TIP3    H227476   1.552   4.488   1.715  3.2734  0.4113 -2.4426
 2021TIP3   OH227477   6.045   5.898  14.513  0.1467  0.6931  0.1361
 2021TIP3    H127478   6.005   5.924  14.430  2.7133  3.0311 -0.5100
 2021TIP3    H227479   6.127   5.856  14.488 -0.4790 -1.4715  1.4724
 2022TIP3   OH227480   2.197   4.097  14.197  0.0330  0.9380 -0.2240
 2022TIP3    H127481   2.160   4.177  14.235 -0.0322  0.7504  0.1034
 2022TIP3    H227482   2.140   4.027  14.227 -0.4329  0.8614 -1.2326
 2023TIP3   OH227483   3.315   6.461  15.758 -0.3722  0.4822 -0.0633
 2023TIP3    H127484   3.388   6.480  15.698 -0.5975  1.6444  0.0204
 2023TIP3    H227485   3.237   6.465  15.703 -0.4201 -0.4107 -0.0791
 2024TIP3   OH227486   1.979   4.747  16.097  0.1288 -0.1578 -0.0062
 2024TIP3    H127487   2.045   4.782  16.156  2.0977 -0.8577 -1.6872
 2024TIP3    H227488   1.994   4.792  16.014 -0.1581 -1.7368 -0.9720
 2025TIP3   OH227489   0.817   0.104   3.593 -0.0583 -0.1243 -0.3900
 2025TIP3    H127490   0.864   0.156   3.658  1.7538 -1.9492 -0.1372
 2025TIP3    H227491   0.871   0.109   3.514 -0.8541 -0.0852 -0.9467
 2026TIP3   OH227492   5.076   0.701   3.110 -0.5505  0.3433  0.1041
 2026TIP3    H127493   5.117   0.786   3.125  0.1404  0.2409 -1.0690
 2026TIP3    H227494   5.020   0.687   3.187 -2.2456  2.7432 -0.5822
 2027TIP3   OH227495   5.655   0.774   0.909 -0.3860  0.4411 -0.2927
 2027TIP3    H127496   5.669   0.698   0.965  2.2497  1.5071  0.7097
 2027TIP3    H227497   5.645   0.738   0.821  1.5838 -1.0826  0.0340
 2028TIP3   OH227498   0.636   3.272  11.706  0.3204  0.1774 -1.0553
 2028TIP3    H127499   0.548   3.308  11.694 -0.3976 -0.5960  1.3324
 2028TIP3    H227500   0.657   3.231  11.622 -1.6670  0.2438 -1.6295
 2029TIP3   OH227501   3.749   3.745   0.221 -0.7838 -0.2933  0.5091
 2029TIP3    H127502   3.709   3.822   0.181 -0.2576 -0.0216  0.5108
 2029TIP3    H227503   3.813   3.715   0.157  0.1515  0.2152  1.1955
 2030TIP3   OH227504   0.152   6.442  16.710 -0.3477  0.0025  0.0351
 2030TIP3    H127505   0.120   6.485  16.631 -0.6423 -1.7445 -0.8596
 2030TIP3    H227506   0.238   6.482  16.726 -0.0537  0.0721 -1.4727
 2031TIP3   OH227507   5.848   0.803  16.287 -0.4178 -0.2248 -0.2858
 2031TIP3    H127508   5.794   0.729  16.314  0.6332 -1.3350 -1.0852
 2031TIP3    H227509   5.886   0.775  16.203 -1.7504  2.1331 -1.7985
 2032TIP3   OH227510   4.234   4.759  15.744  0.6914 -0.3240  0.7605
 2032TIP3    H127511   4.157   4.728  15.698  0.5829  0.9312  0.0434
 2032TIP3    H227512   4.224   4.727  15.834 -1.1005  0.5125  0.8972
 2033TIP3   OH227513   2.472   4.698   3.402 -0.0293 -0.1881  0.6662
 2033TIP3    H127514   2.536   4.697   3.331  0.2194 -0.5968  0.8986
 2033TIP3    H227515   2.396   4.742   3.364  1.1988  2.5393  1.0907
 2034TIP3   OH227516   6.213   4.832  13.720  0.1772  0.2329 -0.2560
 2034TIP3    H127517   6.236   4.919  13.753  0.5205  0.6101 -1.4429
 2034TIP3    H227518   6.221   4.775  13.796  2.4912  0.8053 -0.0032
 2035TIP3   OH227519   4.234   0.803   3.282 -0.0863  0.7727 -0.1822
 2035TIP3    H127520   4.244   0.898   3.286  1.1838  0.6846 -0.7824
 2035TIP3    H227521   4.148   0.787   3.321 -0.8226  2.2513 -1.0951
 2036TIP3   OH227522   6.280   2.279  15.015 -0.2146 -0.3727  0.4430
 2036TIP3    H127523   6.301   2.209  15.077  1.6475 -0.1745  0.0757
 2036TIP3    H227524   6.243   2.348  15.071  0.5221 -0.5783  1.2157
 2037TIP3   OH227525   5.779   3.663  11.454  0.5920  0.0021  0.2157
 2037TIP3    H127526   5.801   3.574  11.424  1.5396 -0.0603  1.0421
 2037TIP3    H227527   5.850   3.717  11.421  0.9115  0.1638  1.1527
 2038TIP3   OH227528   2.726   3.146   5.861  0.2044  0.0670 -0.3061
 2038TIP3    H127529   2.733   3.198   5.941 -0.7134  0.1871 -0.3002
 2038TIP3    H227530   2.633   3.149   5.838  0.5384  0.5385 -1.6986
 2039TIP3   OH227531   0.553   4.103  15.669 -0.3031 -0.0618 -0.0531
 2039TIP3    H127532   0.528   4.018  15.634 -0.6156 -0.1671  0.4274
 2039TIP3    H227533   0.486   4.124  15.734 -0.0912  0.4347  0.0140
 2040TIP3   OH227534   3.475   3.720  12.021  0.1527 -0.1723 -0.4735
 2040TIP3    H127535   3.555   3.741  12.069  1.4279 -0.7512 -2.2789
 2040TIP3    H227536   3.433   3.805  12.008  0.5836  0.1670  0.2435
 2041TIP3   OH227537   0.114   2.744  16.895  0.1728  0.3817 -0.1170
 2041TIP3    H127538   0.166   2.664  16.906  0.2791  0.5617  0.8055
 2041TIP3    H227539   0.035   2.728  16.946  0.8829  1.4531  1.3903
 2042TIP3   OH227540   5.895   4.838  11.776  0.4348  0.2767 -0.5563
 2042TIP3    H127541   5.835   4.776  11.736 -0.7919  0.2113  1.2781
 2042TIP3    H227542   5.936   4.884  11.702 -0.0881 -1.3334 -1.8872
 2043TIP3   OH227543   4.318   5.701  10.770 -0.2365  0.1161 -0.0139
 2043TIP3    H127544   4.243   5.723  10.714  0.2096  2.6016  0.2212
 2043TIP3    H227545   4.387   5.761  10.742  1.0255 -0.7350  1.1237
 2044TIP3   OH227546   2.506   1.824  15.445 -0.2580  0.1078  0.2114
 2044TIP3    H127547   2.543   1.742  15.476  0.8179  0.3948 -0.2742
 2044TIP3    H227548   2.440   1.798  15.381  2.1155 -0.3992 -2.2285
 2045TIP3   OH227549   4.281   4.476  13.416 -0.2024  0.4042 -0.8755
 2045TIP3    H127550   4.291   4.471  13.321  0.6578 -1.4040 -0.7302
 2045TIP3    H227551   4.361   4.438  13.451 -1.7482 -1.7805  0.5234
 2046TIP3   OH227552   6.779   1.970  14.900  0.1059 -0.1981 -0.0056
 2046TIP3    H127553   6.707   2.016  14.943 -1.0471 -0.7458 -1.2879
 2046TIP3    H227554   6.817   1.916  14.969 -0.4912  0.3547  0.7713
 2047TIP3   OH227555   1.392   2.820   0.844 -0.0973  0.3332  0.1557
 2047TIP3    H127556   1.427   2.852   0.928  1.5835 -1.7434  0.3384
 2047TIP3    H227557   1.466   2.828   0.784 -0.6742 -0.0831 -0.6163
 2048TIP3   OH227558   0.450   6.009   4.845 -0.2085  0.3809  0.5710
 2048TIP3    H127559   0.457   6.102   4.825 -2.1806  0.9057  1.9732
 2048TIP3    H227560   0.365   6.000   4.889 -0.2093 -2.1312  0.2370
 2049TIP3   OH227561   0.367   6.206  14.182  0.1531 -0.5682  0.0492
 2049TIP3    H127562   0.369   6.301  14.194  3.1516 -0.7340  1.9478
 2049TIP3    H227563   0.384   6.193  14.088  0.3750  0.7627 -0.1129
 2050TIP3   OH227564   4.086   0.974  14.746 -0.3201  0.3054 -0.0997
 2050TIP3    H127565   4.023   0.902  14.744 -0.7911  0.7252 -0.9237
 2050TIP3    H227566   4.148   0.955  14.676  0.4585 -0.0851  0.6864
 2051TIP3   OH227567   4.492   0.018  16.563  0.1190  0.3149 -0.1750
 2051TIP3    H127568   4.427   0.066  16.614  1.4003  0.6002  1.2483
 2051TIP3    H227569   4.442  -0.054  16.524 -1.0239  0.4368  0.9809
 2052TIP3   OH227570   5.028   2.037  16.518 -0.0404 -0.5661 -0.7875
 2052TIP3    H127571   5.033   2.008  16.609 -0.4377 -0.5560 -0.7601
 2052TIP3    H227572   4.940   2.010  16.489  0.1382 -0.7004 -1.2115
 2053TIP3   OH227573   6.657   1.325   0.562 -0.1716 -0.3206  0.3468
 2053TIP3    H127574   6.681   1.240   0.598 -0.4803 -0.0769  1.1402
 2053TIP3    H227575   6.561   1.325   0.562 -0.1885  0.4087  1.2908
 2054TIP3   OH227576   2.583   5.357   3.398  0.4457 -0.1733 -0.1399
 2054TIP3    H127577   2.559   5.345   3.306  2.2897 -1.5309 -0.4938
 2054TIP3    H227578   2.657   5.418   3.396  0.4261 -0.1235  0.4618
 2055TIP3   OH227579   4.238   1.470   5.712  0.1039  0.6365 -0.8848
 2055TIP3    H127580   4.306   1.442   5.773  0.2953  2.2579 -0.3163
 2055TIP3    H227581   4.169   1.506   5.767 -0.0966  1.3397 -1.5708
 2056TIP3   OH227582   5.488   3.434  12.630 -1.1026 -0.6522 -0.9765
 2056TIP3    H127583   5.432   3.380  12.686  0.4390 -1.9742 -0.6025
 2056TIP3    H227584   5.470   3.524  12.657 -1.7775 -1.1574  0.3432
 2057TIP3   OH227585   3.040   0.544   4.381 -0.7997  0.1743 -0.0087
 2057TIP3    H127586   3.106   0.523   4.447 -2.0991 -2.1827  0.6287
 2057TIP3    H227587   3.086   0.534   4.297  0.1975  0.7405  0.4456
 2058TIP3   OH227588   3.074   3.731   0.898  0.0733  0.7246  0.2213
 2058TIP3    H127589   3.121   3.782   0.833  0.2440  0.7047  0.3295
 2058TIP3    H227590   3.019   3.794   0.944 -1.7164  0.4376 -1.3896
 2059TIP3   OH227591   3.110   3.470  15.333 -0.4085  0.1324  0.1755
 2059TIP3    H127592   3.078   3.383  15.312 -0.0118  0.1019 -0.3179
 2059TIP3    H227593   3.135   3.465  15.425  1.5277 -0.8765 -0.3524
 2060TIP3   OH227594   1.915   3.502   1.446 -0.5616 -0.1443 -0.1980
 2060TIP3    H127595   2.005   3.534   1.444 -0.0575 -1.5532 -1.1959
 2060TIP3    H227596   1.887   3.513   1.537  1.2822 -1.4768  0.5788
 2061TIP3   OH227597   3.436   0.173   3.282  0.4940 -0.0848 -0.0720
 2061TIP3    H127598   3.476   0.168   3.195  1.5089  0.6102  0.3356
 2061TIP3    H227599   3.344   0.152   3.267  0.5491  0.5050 -1.3847
 2062TIP3   OH227600   5.147   0.805   6.197  0.0434 -0.1471  0.0205
 2062TIP3    H127601   5.111   0.716   6.200 -1.0416  0.2961  0.3407
 2062TIP3    H227602   5.240   0.792   6.179  0.8954 -1.6183  4.2875
 2063TIP3   OH227603   1.069   0.959  10.594  0.0333  0.8248  0.1529
 2063TIP3    H127604   1.115   0.975  10.512  0.8679  0.3847  0.5240
 2063TIP3    H227605   0.992   1.016  10.590  0.5994  1.5614 -0.4824
 2064TIP3   OH227606   3.564   3.822  14.703 -0.0797  0.2270  0.1757
 2064TIP3    H127607   3.542   3.910  14.734 -0.2402 -0.4044  1.9682
 2064TIP3    H227608   3.500   3.804  14.634 -0.2141  1.3958 -0.0184
 2065TIP3   OH227609   3.915   4.679  12.264  0.2246  0.1094  0.0284
 2065TIP3    H127610   3.992   4.626  12.283 -0.8189 -0.6977  2.3440
 2065TIP3    H227611   3.886   4.649  12.178  1.2352 -1.1191  0.0909
 2066TIP3   OH227612   3.237   0.595  13.450  0.3085 -0.0133 -0.4754
 2066TIP3    H127613   3.231   0.690  13.445 -0.0486  0.0089  0.2370
 2066TIP3    H227614   3.330   0.576  13.440  1.0876  0.7356  3.6802
 2067TIP3   OH227615   4.538   4.375  15.608  0.5362 -0.3046  0.2750
 2067TIP3    H127616   4.496   4.323  15.540  0.1208  0.5360 -0.1156
 2067TIP3    H227617   4.468   4.429  15.644  1.2785  1.1746 -0.4440
 2068TIP3   OH227618   2.023   2.894   4.338  0.7546  0.6228  0.3914
 2068TIP3    H127619   2.014   2.849   4.254 -0.0135  0.7364  0.4056
 2068TIP3    H227620   2.112   2.929   4.337  1.6055 -1.3933  0.6397
 2069TIP3   OH227621   2.815   5.498   2.853 -0.2156 -0.1590  0.7933
 2069TIP3    H127622   2.839   5.449   2.932 -1.3535  1.0143  1.9271
 2069TIP3    H227623   2.730   5.463   2.828  0.1226 -0.4939  0.0897
 2070TIP3   OH227624   6.003   2.843  15.513  0.3679 -0.3110 -0.1335
 2070TIP3    H127625   5.973   2.803  15.432  1.0409 -3.0973  0.9004
 2070TIP3    H227626   6.098   2.841  15.507  0.4207 -0.2862  0.6014
 2071TIP3   OH227627   2.203   0.624  14.475 -0.6570  0.2609 -0.3662
 2071TIP3    H127628   2.202   0.599  14.568  0.1113  0.3363 -0.3257
 2071TIP3    H227629   2.288   0.667  14.464 -0.2707 -0.7120 -1.3538
 2072TIP3   OH227630   2.352   5.816   3.273 -0.2074 -0.0804 -0.1385
 2072TIP3    H127631   2.303   5.817   3.355  0.7504 -1.1976  0.4773
 2072TIP3    H227632   2.388   5.727   3.266 -0.4335 -0.0764 -1.8810
 2073TIP3   OH227633   6.325   2.052  14.521  0.8298  0.7476  0.2133
 2073TIP3    H127634   6.372   2.086  14.445  1.7151  2.1556  1.3368
 2073TIP3    H227635   6.334   2.121  14.588  0.0763 -0.4312  1.5891
 2074TIP3   OH227636   0.784   5.532   3.313 -0.7759 -0.0309 -0.3361
 2074TIP3    H127637   0.788   5.517   3.408 -1.9868  1.8204  0.0455
 2074TIP3    H227638   0.729   5.461   3.280 -0.1582 -0.8256  0.2851
 2075TIP3   OH227639   0.428   4.589   4.395 -0.4562  0.1109 -0.0441
 2075TIP3    H127640   0.488   4.642   4.342  0.6519  0.1592  1.2183
 2075TIP3    H227641   0.354   4.647   4.411 -0.5199  0.3135 -0.9866
 2076TIP3   OH227642   1.437   2.940   2.829 -0.1841  0.1327  0.8489
 2076TIP3    H127643   1.403   3.005   2.890  0.9001  1.6319 -0.0636
 2076TIP3    H227644   1.527   2.923   2.859  0.0069  0.1190  0.2855
 2077TIP3   OH227645   4.057   2.984   0.816 -0.2106 -0.2014  0.3982
 2077TIP3    H127646   3.975   2.973   0.864  0.2383  1.5590  1.6633
 2077TIP3    H227647   4.031   2.988   0.724 -1.5147 -0.0297  0.7573
 2078TIP3   OH227648   4.275   3.385   5.329  0.3333  0.4384  0.3648
 2078TIP3    H127649   4.239   3.472   5.344 -0.3123  0.1792  0.3414
 2078TIP3    H227650   4.314   3.361   5.413  0.6901  0.8278  0.3136
 2079TIP3   OH227651   4.623   4.455   3.236  0.1342 -0.0882 -0.2110
 2079TIP3    H127652   4.577   4.463   3.320  1.2392 -0.1091  0.4171
 2079TIP3    H227653   4.669   4.539   3.226 -1.0417  0.4440 -1.4662
 2080TIP3   OH227654   0.137   4.442  13.351  0.0460  0.2398  0.1616
 2080TIP3    H127655   0.140   4.360  13.400 -1.3956 -0.6226 -1.1149
 2080TIP3    H227656   0.220   4.445  13.303 -0.1322 -0.7565 -0.2187
 2081TIP3   OH227657   3.734   0.747  11.640 -0.3792 -0.3721 -0.3846
 2081TIP3    H127658   3.820   0.767  11.602 -1.0144  0.2293 -1.5490
 2081TIP3    H227659   3.692   0.833  11.652 -0.6128 -0.6200  0.7162
 2082TIP3   OH227660   0.432   5.195   3.379  0.0487  0.2265  0.5465
 2082TIP3    H127661   0.369   5.176   3.310 -0.3014 -0.0558  0.9374
 2082TIP3    H227662   0.480   5.113   3.391  0.7323  0.5407  0.0101
 2083TIP3   OH227663   5.658   0.767   4.105  0.0349  0.0957 -0.6597
 2083TIP3    H127664   5.594   0.705   4.139  1.0773 -1.0749 -0.7880
 2083TIP3    H227665   5.671   0.742   4.014  0.7893  0.2284 -0.5959
 2084TIP3   OH227666   2.963   4.718   1.001 -0.3637 -0.0051  0.1975
 2084TIP3    H127667   2.910   4.668   1.063 -1.4545 -0.7202 -1.2400
 2084TIP3    H227668   2.943   4.679   0.916  1.1091  0.9115 -0.6120
 2085TIP3   OH227669   4.438   2.650  12.588  0.5804  0.2731 -0.6490
 2085TIP3    H127670   4.408   2.682  12.503 -1.4193 -1.2872 -0.5962
 2085TIP3    H227671   4.435   2.727  12.645  1.0393  1.1305 -1.7602
 2086TIP3   OH227672   2.497   0.571  12.526  0.2146 -0.3858  0.1449
 2086TIP3    H127673   2.485   0.665  12.539 -0.4539 -0.5933  1.1493
 2086TIP3    H227674   2.591   0.561  12.507  0.7969  0.2718  2.3571
 2087TIP3   OH227675   4.510   6.355  10.584 -0.2241  0.4484  0.4074
 2087TIP3    H127676   4.568   6.282  10.605 -0.4197 -0.0166 -0.6172
 2087TIP3    H227677   4.444   6.354  10.654 -0.3094 -0.4610  0.3310
 2088TIP3   OH227678   1.456   0.991  13.405  0.0538 -0.2774 -0.3663
 2088TIP3    H127679   1.470   0.979  13.311  2.1248  1.8984 -0.4371
 2088TIP3    H227680   1.496   0.914  13.445  0.9279 -0.2951 -1.2182
 2089TIP3   OH227681   0.216   1.965   5.289  0.7415 -0.5218 -0.4901
 2089TIP3    H127682   0.217   1.913   5.209 -0.7263 -0.0904 -0.8305
 2089TIP3    H227683   0.202   2.055   5.258  0.2103 -0.3495  0.2333
 2090TIP3   OH227684   4.175   6.721  15.842  0.1615  0.3630  0.2908
 2090TIP3    H127685   4.213   6.640  15.807  1.6295  0.9631  0.4290
 2090TIP3    H227686   4.183   6.712  15.937 -1.6911 -0.2589  0.4141
 2091TIP3   OH227687   3.315   0.419   3.394 -0.4559 -0.0134  0.1007
 2091TIP3    H127688   3.394   0.369   3.374 -0.7253 -0.5246  0.2922
 2091TIP3    H227689   3.280   0.443   3.309  0.2442  0.7616  0.0229
 2092TIP3   OH227690   3.489   3.783  13.337 -0.1582  0.0093  0.1072
 2092TIP3    H127691   3.475   3.691  13.360 -0.7451 -0.0293 -0.3691
 2092TIP3    H227692   3.401   3.819  13.329  0.0752  0.7669  0.8687
 2093TIP3   OH227693   4.989   0.960   3.457  0.3565  0.0806 -0.0998
 2093TIP3    H127694   4.926   0.907   3.410 -0.2104 -0.0502  0.7762
 2093TIP3    H227695   5.009   0.909   3.536  0.8775  0.5201  0.0587
 2094TIP3   OH227696   1.061   2.352   3.100  0.5255  0.5908 -0.2922
 2094TIP3    H127697   1.093   2.367   3.189 -0.2036  2.6169 -0.3008
 2094TIP3    H227698   1.085   2.432   3.053  0.7871 -0.4026 -1.8945
 2095TIP3   OH227699   4.574   0.452   2.789 -0.0093 -0.1993  0.3230
 2095TIP3    H127700   4.546   0.526   2.735 -1.9082 -1.0401  0.0796
 2095TIP3    H227701   4.526   0.377   2.755 -0.9106 -0.8628  2.8253
 2096TIP3   OH227702   0.166   0.560  11.497 -0.1600  0.2720  0.1104
 2096TIP3    H127703   0.249   0.547  11.452  0.2242  1.4623  0.4585
 2096TIP3    H227704   0.107   0.595  11.429  0.0015  0.6812  0.1803
 2097TIP3   OH227705   4.365   2.344  12.984 -0.5227 -0.4403  0.4396
 2097TIP3    H127706   4.441   2.299  13.023 -0.4324 -0.2761  0.4547
 2097TIP3    H227707   4.402   2.423  12.945 -0.6221 -0.5793  0.0614
 2098TIP3   OH227708   2.673   0.967   3.809  0.3332 -0.3186 -0.0846
 2098TIP3    H127709   2.631   1.005   3.886  0.6649 -1.6916  0.8237
 2098TIP3    H227710   2.647   1.023   3.736  1.5487  2.1560  1.2753
 2099TIP3   OH227711   2.711   6.027  11.229  0.0583 -0.4264  0.1376
 2099TIP3    H127712   2.777   5.960  11.243 -0.8884 -1.2526  0.8175
 2099TIP3    H227713   2.630   5.988  11.263 -1.1677 -0.1778 -2.2203
 2100TIP3   OH227714   0.731   3.038  15.303 -0.2127  0.2931 -0.1709
 2100TIP3    H127715   0.671   3.105  15.270 -1.2037 -1.2591 -1.7342
 2100TIP3    H227716   0.678   2.958  15.305  0.8444 -0.4260  1.9033
 2101TIP3   OH227717   1.350   2.958  15.300 -0.4202 -0.1307  0.3097
 2101TIP3    H127718   1.382   2.870  15.319 -1.3602 -0.3757  0.8229
 2101TIP3    H227719   1.422   3.000  15.253 -0.1914 -1.3548 -0.4657
 2102TIP3   OH227720   5.562   2.058  16.531  0.2949 -0.1988 -0.2297
 2102TIP3    H127721   5.476   2.059  16.572 -0.0851 -0.4518 -0.9893
 2102TIP3    H227722   5.543   2.074  16.438  1.2085  1.4389 -0.1579
 2103TIP3   OH227723   4.313   1.179  16.070 -0.1122  0.1931 -0.0735
 2103TIP3    H127724   4.293   1.272  16.059 -0.5272  0.1070 -0.0453
 2103TIP3    H227725   4.275   1.137  15.992 -3.2557 -0.4501  1.6456
 2104TIP3   OH227726   1.658   3.558   1.392 -0.3543 -0.3612 -0.0940
 2104TIP3    H127727   1.752   3.546   1.404 -0.0768  1.7553  0.2373
 2104TIP3    H227728   1.627   3.590   1.477 -1.4370 -1.2149 -0.1394
 2105TIP3   OH227729   3.550   1.474   3.949 -0.1876  0.4447 -0.4055
 2105TIP3    H127730   3.625   1.483   4.009 -0.8213 -0.3744  0.5514
 2105TIP3    H227731   3.533   1.563   3.917  0.1375  0.9157  0.6853
 2106TIP3   OH227732   1.264   2.602  13.366 -0.3698  0.4160 -0.0726
 2106TIP3    H127733   1.352   2.627  13.393  0.8540  1.1745 -4.0538
 2106TIP3    H227734   1.211   2.680  13.383 -0.2879  0.0871  1.9853
 2107TIP3   OH227735   2.991   1.568  16.175 -0.1889 -0.4982  0.0677
 2107TIP3    H127736   2.987   1.626  16.251 -0.5685  0.3816 -0.5921
 2107TIP3    H227737   2.977   1.627  16.100 -2.2202 -1.6671 -0.5470
 2108TIP3   OH227738   5.749   4.118   5.861 -0.2152  0.9009 -0.1046
 2108TIP3    H127739   5.687   4.044   5.855 -0.1888  0.9227 -0.7940
 2108TIP3    H227740   5.721   4.166   5.939 -0.7375  0.6127 -0.1041
 2109TIP3   OH227741   3.556   3.376  11.893  0.0134  0.0951 -0.0347
 2109TIP3    H127742   3.589   3.423  11.970 -0.9405 -0.0415  0.4713
 2109TIP3    H227743   3.465   3.403  11.886 -0.2134 -0.7587 -0.4665
 2110TIP3   OH227744   5.024   2.715  10.784 -0.3235  0.2214  0.6052
 2110TIP3    H127745   5.100   2.689  10.732 -0.5488  0.7914 -0.0153
 2110TIP3    H227746   4.960   2.744  10.720 -0.5834  0.9974  1.2085
 2111TIP3   OH227747   2.270   2.241  11.519 -0.2916 -0.0663  0.3069
 2111TIP3    H127748   2.270   2.331  11.553  0.0928 -0.3923  1.2142
 2111TIP3    H227749   2.362   2.223  11.499 -0.4893  0.0452 -0.7353
 2112TIP3   OH227750   2.424   2.210   4.830  0.3113  0.0586 -0.1743
 2112TIP3    H127751   2.329   2.217   4.824  0.0635 -2.9637 -2.3572
 2112TIP3    H227752   2.458   2.275   4.768 -0.4900 -0.6014 -1.3333
 2113TIP3   OH227753   4.352   1.299   3.341 -0.9863 -0.0363  0.2155
 2113TIP3    H127754   4.310   1.383   3.358 -2.2868 -0.2583 -1.6089
 2113TIP3    H227755   4.389   1.308   3.253  2.0148 -0.2088  1.3479
 2114TIP3   OH227756   1.086   0.877   5.669 -0.4899 -0.4245 -0.4031
 2114TIP3    H127757   1.134   0.799   5.696 -2.4882 -1.3272  0.7786
 2114TIP3    H227758   1.042   0.851   5.588  0.2697  0.1116 -1.0062
 2115TIP3   OH227759   5.490   2.907  10.708  0.2094  0.1946 -0.7548
 2115TIP3    H127760   5.396   2.924  10.714  0.0202 -0.7547 -0.8591
 2115TIP3    H227761   5.503   2.828  10.761  1.3281  1.5917  1.2249
 2116TIP3   OH227762   3.492   4.868  10.255  0.1081 -0.0851  0.9624
 2116TIP3    H127763   3.434   4.818  10.313 -2.6371  0.4561 -1.0855
 2116TIP3    H227764   3.470   4.960  10.272 -1.7673  0.0828 -1.6504
 2117TIP3   OH227765   2.188   2.198  14.745 -0.9572 -0.2022  0.6327
 2117TIP3    H127766   2.266   2.212  14.799 -1.4028  2.1293  0.7459
 2117TIP3    H227767   2.118   2.181  14.809 -0.7563 -1.3089  0.5758
 2118TIP3   OH227768   2.476   2.512  11.669  0.5355 -0.7497 -0.0258
 2118TIP3    H127769   2.407   2.525  11.604 -0.6084 -0.7775  1.1524
 2118TIP3    H227770   2.525   2.595  11.669 -0.6208 -0.0426  0.3906
 2119TIP3   OH227771   0.820   3.618  13.427 -0.2002  0.0418  0.1404
 2119TIP3    H127772   0.898   3.568  13.449  1.0524  1.6096 -0.4933
 2119TIP3    H227773   0.813   3.683  13.498 -1.2504 -0.4083  0.4667
 2120TIP3   OH227774   1.125   6.053   2.698 -0.1799 -0.3419  0.0071
 2120TIP3    H127775   1.053   5.992   2.716 -1.3396  1.1054  0.4135
 2120TIP3    H227776   1.175   6.055   2.780 -0.8559  0.1740  0.4156
 2121TIP3   OH227777   4.931   4.733  12.675 -0.3295 -0.5019 -0.5480
 2121TIP3    H127778   4.881   4.687  12.743 -0.7122  2.4166  1.3455
 2121TIP3    H227779   5.017   4.747  12.713  0.3870 -1.2278 -1.8392
 2122TIP3   OH227780   4.206   6.679   1.152  0.0667  0.0668  0.2438
 2122TIP3    H127781   4.191   6.674   1.247 -0.0367  0.4047  0.2471
 2122TIP3    H227782   4.124   6.649   1.113  0.6113 -1.5268  0.2506
 2123TIP3   OH227783   4.144   5.521   3.209  0.4862 -0.4848 -0.1503
 2123TIP3    H127784   4.138   5.530   3.114  0.2152 -1.5395 -0.2399
 2123TIP3    H227785   4.055   5.498   3.236  0.8656 -1.6283  0.1805
 2124TIP3   OH227786   3.078   3.717   3.876 -0.1370  0.0879 -0.7080
 2124TIP3    H127787   3.116   3.785   3.820 -1.3639 -0.1129 -1.8563
 2124TIP3    H227788   3.064   3.759   3.960  1.0062  0.6449 -0.7861
 2125TIP3   OH227789   1.247   5.600  16.161 -0.0601  0.2540  0.2382
 2125TIP3    H127790   1.307   5.582  16.233 -0.1000 -1.6223 -0.1419
 2125TIP3    H227791   1.294   5.569  16.083 -1.3064 -0.7790 -0.1270
 2126TIP3   OH227792   4.799   1.345  14.977 -0.1521 -0.0434 -0.5368
 2126TIP3    H127793   4.808   1.408  14.906 -2.0823 -0.3827 -1.1388
 2126TIP3    H227794   4.824   1.261  14.939  2.1970  0.2456  0.2030
 2127TIP3   OH227795   3.864   5.557  14.400 -0.3496 -0.6726 -0.0229
 2127TIP3    H127796   3.776   5.596  14.402  0.3340  0.9236  0.7957
 2127TIP3    H227797   3.922   5.631  14.384  0.7399 -1.9923 -3.0363
 2128TIP3   OH227798   0.204   6.232  12.309  0.8077 -0.0010  0.4121
 2128TIP3    H127799   0.278   6.270  12.261  0.3446 -0.0806 -0.3771
 2128TIP3    H227800   0.127   6.271  12.269  0.2360 -2.6648 -1.2926
 2129TIP3   OH227801   6.594   6.070   3.247  0.2598 -1.1111  0.4810
 2129TIP3    H127802   6.568   5.979   3.236 -1.7674 -0.2916 -2.8696
 2129TIP3    H227803   6.622   6.097   3.159 -0.5127  1.8445  1.0528
 2130TIP3   OH227804   1.917   5.757  10.192  0.8622 -0.0986  0.3679
 2130TIP3    H127805   1.863   5.781  10.267 -0.2309 -0.5603 -0.2482
 2130TIP3    H227806   1.983   5.825  10.187 -0.7705  1.5530  0.0601
 2131TIP3   OH227807   2.190   6.326  16.244  0.5593 -0.7501  0.3033
 2131TIP3    H127808   2.225   6.401  16.291  0.3964  0.7141 -1.8054
 2131TIP3    H227809   2.102   6.352  16.219  0.9162 -1.1340 -1.4864
 2132TIP3   OH227810   3.634   5.479   1.817  0.4655 -0.0431 -0.4484
 2132TIP3    H127811   3.559   5.430   1.849  0.2905  0.7444  0.4013
 2132TIP3    H227812   3.710   5.424   1.838  0.4135  0.6757  1.9076
 2133TIP3   OH227813   5.931   5.585  12.484 -0.2923  0.1291 -0.5165
 2133TIP3    H127814   6.025   5.590  12.463 -0.6966  0.6256 -2.4074
 2133TIP3    H227815   5.898   5.672  12.463 -1.2715 -0.1910 -0.3291
 2134TIP3   OH227816   0.149   3.941  15.223 -0.5715 -0.1880  0.1641
 2134TIP3    H127817   0.152   4.000  15.148  0.4929  0.7588  0.9252
 2134TIP3    H227818   0.203   3.983  15.290  0.5851 -2.2354  0.5923
 2135TIP3   OH227819   0.008   6.463  15.601 -0.6385  0.2071 -0.2072
 2135TIP3    H127820   0.070   6.536  15.600 -1.4754  0.9578  0.0873
 2135TIP3    H227821   0.001   6.439  15.693 -1.8304  1.0899 -0.0383
 2136TIP3   OH227822   4.969   2.496   1.519 -0.0987 -0.2805  0.1330
 2136TIP3    H127823   4.878   2.522   1.505 -0.1012  0.4491  1.4034
 2136TIP3    H227824   4.973   2.405   1.488 -1.2520 -0.3141  0.0595
 2137TIP3   OH227825   0.662   1.421   0.245  0.4917 -0.1385  0.2507
 2137TIP3    H127826   0.719   1.359   0.291  0.3537  0.2681  0.9827
 2137TIP3    H227827   0.718   1.457   0.175 -0.1221 -2.8531 -1.8042
 2138TIP3   OH227828   1.851   5.320   0.446 -0.5806 -0.3303  0.9027
 2138TIP3    H127829   1.757   5.302   0.449 -0.9954  1.3277 -0.5535
 2138TIP3    H227830   1.861   5.403   0.492 -0.2458  0.8065 -1.1075
 2139TIP3   OH227831   5.522   2.716   0.985  0.6060  0.2399 -0.0240
 2139TIP3    H127832   5.494   2.686   1.072  0.4137 -1.2728 -0.5717
 2139TIP3    H227833   5.443   2.756   0.947  0.7067  0.9625  0.5010
 2140TIP3   OH227834   1.924   0.586  15.209  0.6323 -0.0234 -0.1845
 2140TIP3    H127835   1.831   0.609  15.200  0.6666  0.4165  0.5070
 2140TIP3    H227836   1.931   0.550  15.297  0.9611 -0.8644 -0.5480
 2141TIP3   OH227837   5.214   6.088  15.899  0.1437  0.0890 -0.3231
 2141TIP3    H127838   5.236   6.079  15.991 -1.1277  1.0653  0.1014
 2141TIP3    H227839   5.147   6.022  15.883  0.8272 -0.5203 -0.7270
 2142TIP3   OH227840   4.569   0.889   5.268 -0.1316  0.0604 -0.0090
 2142TIP3    H127841   4.634   0.820   5.250  2.2628  2.0955  0.3080
 2142TIP3    H227842   4.561   0.936   5.185 -0.9323  0.0849  0.0754
 2143TIP3   OH227843   6.118   4.243  16.037  0.3366  0.0834 -0.1907
 2143TIP3    H127844   6.172   4.203  15.969 -0.9647  1.8809 -2.4474
 2143TIP3    H227845   6.030   4.246  15.999 -0.4891  1.0086  1.6557
 2144TIP3   OH227846   5.938   4.481  14.389  0.2523  0.1529  1.1595
 2144TIP3    H127847   6.006   4.440  14.336 -1.2410  1.4457 -2.0318
 2144TIP3    H227848   5.925   4.421  14.462  1.7128 -2.3725 -0.5001
 2145TIP3   OH227849   1.648   6.285  13.254 -0.0027  0.7707  0.1316
 2145TIP3    H127850   1.698   6.204  13.264  1.4436  1.6647  0.4172
 2145TIP3    H227851   1.570   6.259  13.204 -0.0244 -0.9452  0.9934
 2146TIP3   OH227852   2.862   0.489   4.096 -0.5073 -0.0705 -0.2230
 2146TIP3    H127853   2.874   0.563   4.155  0.0051  1.7812 -2.5080
 2146TIP3    H227854   2.951   0.457   4.080 -0.7958 -2.2270  1.8411
 2147TIP3   OH227855   1.992   6.189   1.310  0.1013  0.1788  0.3871
 2147TIP3    H127856   2.033   6.203   1.395 -1.6604 -0.3742  1.3814
 2147TIP3    H227857   2.040   6.115   1.272 -0.0743 -0.5640  1.5780
 2148TIP3   OH227858   1.487   1.683   0.558  0.3590  0.4133  0.0145
 2148TIP3    H127859   1.471   1.770   0.596  0.2040 -0.6354  2.6077
 2148TIP3    H227860   1.511   1.629   0.634  2.1647 -1.4204 -1.7559
 2149TIP3   OH227861   0.060   4.639  16.777  0.3458 -0.0685  0.1099
 2149TIP3    H127862   0.017   4.576  16.835 -0.5832 -0.0030 -0.4912
 2149TIP3    H227863  -0.007   4.705  16.758  1.5632  1.6980  1.5257
 2150TIP3   OH227864   2.654   0.552  17.200  0.0177 -0.2304  0.2200
 2150TIP3    H127865   2.748   0.569  17.190  0.0230  0.9507  1.7531
 2150TIP3    H227866   2.648   0.458  17.212  1.0799 -0.2580  0.6810
 2151TIP3   OH227867   0.853   0.753   5.219 -0.4550  0.4075  0.1400
 2151TIP3    H127868   0.786   0.820   5.233 -0.8096 -0.0290  0.5933
 2151TIP3    H227869   0.805   0.679   5.183 -0.6227 -0.6819  2.4475
 2152TIP3   OH227870   3.803   3.702  12.981  0.3627  0.2938 -0.0971
 2152TIP3    H127871   3.807   3.639  13.053 -0.3510 -0.6446 -0.8453
 2152TIP3    H227872   3.709   3.720  12.970  0.5081  0.9367 -0.3744
 2153TIP3   OH227873   5.315   1.719  14.382 -0.2607 -0.3624  0.4862
 2153TIP3    H127874   5.249   1.677  14.437  0.4091  0.9501  2.3913
 2153TIP3    H227875   5.265   1.762  14.313 -1.3435 -0.0125  1.4637
 2154TIP3   OH227876   0.131   4.763   1.922  0.4875 -0.2266 -0.1836
 2154TIP3    H127877   0.085   4.832   1.969 -0.9494 -0.2107 -1.5392
 2154TIP3    H227878   0.169   4.709   1.991 -2.3662 -0.7777  1.1364
 2155TIP3   OH227879   2.879   3.175   3.556  0.6128 -0.5875  0.2668
 2155TIP3    H127880   2.842   3.142   3.474  2.1644  1.8514 -1.5486
 2155TIP3    H227881   2.910   3.263   3.535  2.0290 -0.2451  3.2316
 2156TIP3   OH227882   3.095   4.609   4.623  0.9541  0.1487  0.0208
 2156TIP3    H127883   3.085   4.698   4.589  1.6516  0.8579  1.5747
 2156TIP3    H227884   3.005   4.578   4.635  0.6834  0.0822 -1.8194
 2157TIP3   OH227885   1.045   1.073  14.055 -0.1119 -0.3024 -0.1409
 2157TIP3    H127886   1.061   1.082  14.149 -0.7577 -0.5792  0.0038
 2157TIP3    H227887   1.023   1.162  14.026  0.1202 -0.2099 -0.0367
 2158TIP3   OH227888   6.146   1.261   2.655 -0.1073  0.0474 -0.2715
 2158TIP3    H127889   6.063   1.263   2.702  0.4123 -0.7790  0.7239
 2158TIP3    H227890   6.212   1.277   2.722  0.7091 -1.8312 -0.5561
 2159TIP3   OH227891   5.691   0.915   2.277 -0.1949  0.1070 -0.2003
 2159TIP3    H127892   5.665   0.824   2.286  2.4940 -0.6345  1.2581
 2159TIP3    H227893   5.733   0.920   2.191 -0.2847 -0.0421 -0.2531
 2160TIP3   OH227894   0.777   2.027  16.240  0.0351 -0.1233 -0.2191
 2160TIP3    H127895   0.846   2.038  16.305 -0.1218 -2.0822  0.3358
 2160TIP3    H227896   0.704   1.988  16.289 -1.3067  1.4029 -0.9022
 2161TIP3   OH227897   5.596   2.279  13.323  0.3035  0.3376  0.2557
 2161TIP3    H127898   5.611   2.242  13.410  0.4881 -0.5107 -0.1323
 2161TIP3    H227899   5.674   2.256  13.273 -0.8525 -1.3937 -0.8674
 2162TIP3   OH227900   6.772   5.604  11.915  0.2562 -0.2387 -0.3311
 2162TIP3    H127901   6.822   5.628  11.992  0.9088 -0.2968 -0.7293
 2162TIP3    H227902   6.789   5.673  11.851  0.8908 -0.9142 -0.9251
 2163TIP3   OH227903   5.617   0.508  15.098 -0.4698  0.5218  0.5065
 2163TIP3    H127904   5.564   0.466  15.165 -0.7340  0.1938  0.0932
 2163TIP3    H227905   5.560   0.515  15.022 -0.0532  0.5329  0.1876
 2164TIP3   OH227906   6.689   0.466   0.548  0.0503  0.2310 -0.4028
 2164TIP3    H127907   6.675   0.399   0.615  0.9112 -1.0880 -1.4883
 2164TIP3    H227908   6.734   0.537   0.595  1.1431 -0.8948  0.3391
 2165TIP3   OH227909   0.418   4.054  13.317 -0.1146 -0.1986  0.2704
 2165TIP3    H127910   0.341   4.084  13.269  0.5058 -0.6467 -1.0751
 2165TIP3    H227911   0.491   4.097  13.273  0.6580 -2.3106 -0.6587
 2166TIP3   OH227912   3.855   5.327  11.291 -0.4546  0.1851 -0.1145
 2166TIP3    H127913   3.916   5.388  11.250 -1.9585  0.7221 -1.6759
 2166TIP3    H227914   3.900   5.243  11.289  1.3930  1.0773  1.4960
 2167TIP3   OH227915   4.580   3.453   1.989 -0.4786 -0.5534 -0.1308
 2167TIP3    H127916   4.518   3.480   2.056  0.2863  2.9617 -0.6812
 2167TIP3    H227917   4.660   3.433   2.038 -0.0178  1.6937  0.1252
 2168TIP3   OH227918   4.094   2.191  14.214 -0.2424  0.2509 -0.5734
 2168TIP3    H127919   4.122   2.239  14.292 -2.0156  1.2078 -0.4757
 2168TIP3    H227920   4.167   2.131  14.195  0.2992  0.0952  1.7169
 2169TIP3   OH227921   0.870   1.380  13.393  0.3564 -0.1715 -0.6993
 2169TIP3    H127922   0.913   1.302  13.357 -1.9843 -0.8356 -2.3639
 2169TIP3    H227923   0.937   1.448  13.390  2.1508 -1.8221 -0.2253
 2170TIP3   OH227924   0.419   5.436  16.212  0.2658  0.4883  0.2161
 2170TIP3    H127925   0.362   5.360  16.201  0.1975  0.5931 -0.1943
 2170TIP3    H227926   0.495   5.416  16.157  0.2102  0.7508  0.0413
 2171TIP3   OH227927   1.967   6.537  13.614 -0.4277  0.1981  0.3130
 2171TIP3    H127928   1.906   6.576  13.676 -1.1172 -0.1983 -0.1056
 2171TIP3    H227929   2.037   6.501  13.668 -0.1407  1.3732  0.7435
 2172TIP3   OH227930   0.024   6.005   5.875  0.1374  0.6348 -0.4864
 2172TIP3    H127931  -0.032   6.047   5.810 -1.4040  0.6762  0.8221
 2172TIP3    H227932  -0.036   5.952   5.928  1.7520 -1.8409 -0.9482
 2173TIP3   OH227933   3.692   5.578  15.477 -0.5639  0.0161 -0.4084
 2173TIP3    H127934   3.777   5.620  15.462  0.5797 -1.7889  0.6764
 2173TIP3    H227935   3.645   5.640  15.533  1.0997 -0.1152  1.2267
 2174TIP3   OH227936   0.204   3.077  12.647 -0.0393 -0.2683  0.4188
 2174TIP3    H127937   0.192   3.139  12.718  2.3348 -1.0928  1.6688
 2174TIP3    H227938   0.252   3.126  12.580  1.7493 -0.6422  1.3635
 2175TIP3   OH227939   2.154   4.021   1.776  0.2762  0.2579  0.1360
 2175TIP3    H127940   2.232   4.000   1.726 -0.4497 -0.6535 -0.6371
 2175TIP3    H227941   2.159   4.116   1.790  1.3702  0.2433 -0.1256
 2176TIP3   OH227942   4.000   1.962   5.232  0.4629 -0.0730  0.6618
 2176TIP3    H127943   3.935   1.895   5.251  0.3409  0.5041  2.4629
 2176TIP3    H227944   4.082   1.913   5.224  0.4906 -0.4271  2.6153
 2177TIP3   OH227945   1.656   0.923  11.212  0.3399 -0.3432 -0.7965
 2177TIP3    H127946   1.643   0.998  11.154  2.3502 -0.2698 -1.2292
 2177TIP3    H227947   1.614   0.851  11.166 -1.6520  0.4904 -0.3575
 2178TIP3   OH227948   0.255   3.183   1.552  0.2015 -0.3131 -0.2092
 2178TIP3    H127949   0.173   3.139   1.528 -0.3538  1.0615 -0.9764
 2178TIP3    H227950   0.299   3.122   1.611  0.0220 -2.3892 -2.1061
 2179TIP3   OH227951   3.476   5.846   3.941 -0.0089 -0.4784  0.6593
 2179TIP3    H127952   3.526   5.771   3.974  0.3234  0.3564  2.1765
 2179TIP3    H227953   3.407   5.859   4.006 -1.3985 -0.7743 -0.7079
 2180TIP3   OH227954   4.449   1.025  12.404 -0.0230 -0.2333 -0.3738
 2180TIP3    H127955   4.516   0.959  12.391  0.6281  0.4927 -0.7931
 2180TIP3    H227956   4.450   1.042  12.498  1.2653  0.6605 -0.5282
 2181TIP3   OH227957   6.704   3.788   0.057 -0.0874 -0.7141 -0.4866
 2181TIP3    H127958   6.615   3.764   0.084 -0.0599  1.3096  1.7267
 2181TIP3    H227959   6.703   3.781  -0.038 -2.5240 -1.0453 -0.5003
 2182TIP3   OH227960   0.735   5.071   2.028  0.5572 -0.0486 -0.3876
 2182TIP3    H127961   0.666   5.093   1.966  0.3367 -0.3549 -0.2567
 2182TIP3    H227962   0.725   4.977   2.041  1.9976 -0.3888 -1.5662
 2183TIP3   OH227963   5.323   0.273  13.506 -0.1042  0.0622  0.1302
 2183TIP3    H127964   5.388   0.221  13.552 -0.4815 -1.0790 -0.5611
 2183TIP3    H227965   5.314   0.353  13.557  0.8953 -0.3250  0.9325
 2184TIP3   OH227966   4.806   1.083   3.089  0.3426  0.0233  0.4105
 2184TIP3    H127967   4.736   1.113   3.032  1.4373  1.5623 -0.1875
 2184TIP3    H227968   4.813   0.989   3.071 -1.9344 -0.3061  0.9448
 2185TIP3   OH227969   5.184   5.742   0.998 -0.2531  0.4958 -0.1540
 2185TIP3    H127970   5.094   5.769   0.979 -0.1607 -0.9335 -3.2128
 2185TIP3    H227971   5.176   5.681   1.071 -1.7772  0.3294 -0.4185
 2186TIP3   OH227972   4.030   4.438  11.766  0.1688 -0.1263 -0.3474
 2186TIP3    H127973   4.113   4.413  11.807 -0.8582  0.1333  2.0527
 2186TIP3    H227974   4.051   4.518  11.717  1.4922 -0.5334 -0.4966
 2187TIP3   OH227975   6.145   2.397   4.328  0.2716 -0.0334  0.3449
 2187TIP3    H127976   6.111   2.336   4.263  0.7534 -0.1260  0.1770
 2187TIP3    H227977   6.222   2.353   4.364  0.1657  0.1344  0.7845
 2188TIP3   OH227978   5.454   3.026  13.858  0.0931 -0.2005  0.0116
 2188TIP3    H127979   5.363   3.026  13.829  0.6416  0.0967 -1.8588
 2188TIP3    H227980   5.470   3.117  13.885  0.3920  0.3111 -1.7270
 2189TIP3   OH227981   3.646   4.167  11.787 -0.3337 -0.6557  0.1053
 2189TIP3    H127982   3.709   4.100  11.760  2.0772  0.8951  1.4728
 2189TIP3    H227983   3.688   4.250  11.763 -2.0087  0.4344  0.7926
 2190TIP3   OH227984   3.881   0.231  11.136 -0.5972  0.1991 -0.3447
 2190TIP3    H127985   3.855   0.204  11.047 -0.4207 -0.0292 -0.3301
 2190TIP3    H227986   3.855   0.323  11.142  1.6089  0.9728 -1.5323
 2191TIP3   OH227987   4.701   2.515   3.019 -0.1337 -0.1930 -0.3449
 2191TIP3    H127988   4.721   2.607   3.038  2.4927 -1.2074  2.7391
 2191TIP3    H227989   4.775   2.484   2.967 -1.3784 -0.4631 -2.0417
 2192TIP3   OH227990   3.046   5.857  11.629  0.2046 -0.1131 -0.1272
 2192TIP3    H127991   3.035   5.906  11.711 -0.8056  1.3818 -1.1103
 2192TIP3    H227992   3.049   5.765  11.657  0.4529  0.3902  1.6315
 2193TIP3   OH227993   4.444   3.655  12.679  0.5419  0.1449  0.5087
 2193TIP3    H127994   4.500   3.654  12.757  2.0067  1.6356 -0.4464
 2193TIP3    H227995   4.369   3.709  12.703 -0.4553 -1.7010  1.7414
 2194TIP3   OH227996   6.075   0.559   3.443 -0.3699 -0.1191 -0.6472
 2194TIP3    H127997   6.084   0.600   3.357 -0.7263  0.3376 -0.4688
 2194TIP3    H227998   6.078   0.465   3.425 -0.7572 -0.0321 -1.1984
 2195TIP3   OH227999   0.413   1.379  12.341 -0.2662 -0.4511 -0.2690
 2195TIP3    H128000   0.500   1.382  12.301  0.2683  0.3544  0.9040
 2195TIP3    H228001   0.369   1.306  12.298  0.1713  0.5360 -2.5315
 2196TIP3   OH228002   2.182   2.668  13.665 -0.2174  0.3353  0.4465
 2196TIP3    H128003   2.185   2.573  13.656 -1.5767  0.4712 -2.0749
 2196TIP3    H228004   2.207   2.702  13.579  1.4181  2.3477  1.5951
 2197TIP3   OH228005   4.411   0.570   3.643 -0.0975 -0.3466 -0.4248
 2197TIP3    H128006   4.378   0.654   3.611  1.4622  0.8521  0.9379
 2197TIP3    H228007   4.364   0.505   3.590 -1.7527  1.3249 -1.1686
 2198TIP3   OH228008   6.143   0.872  14.820  0.7352 -0.5311  0.0949
 2198TIP3    H128009   6.121   0.947  14.765 -0.8155 -1.4151 -0.5403
 2198TIP3    H228010   6.100   0.890  14.904  0.6617 -0.5520  0.0612
 2199TIP3   OH228011   2.410   5.504   1.250 -0.3798 -0.0209 -0.7344
 2199TIP3    H128012   2.436   5.445   1.321 -2.3721  0.4012  0.4396
 2199TIP3    H228013   2.412   5.449   1.172 -1.2707 -1.4240  0.1762
 2200TIP3   OH228014   6.675   0.936   5.949 -0.6690  0.2736  0.1543
 2200TIP3    H128015   6.649   0.849   5.919 -0.2251  0.1236  0.1927
 2200TIP3    H228016   6.638   0.944   6.037 -0.1679 -0.1352  0.4073
 2201TIP3   OH228017   0.260   6.346  15.219  0.1515 -0.5485  0.5866
 2201TIP3    H128018   0.310   6.425  15.239  0.2628 -0.2060 -0.9497
 2201TIP3    H228019   0.181   6.377  15.175  0.2966 -1.2799 -0.2288
 2202TIP3   OH228020   2.893   0.868  15.223 -0.3239  0.0101 -0.1272
 2202TIP3    H128021   2.965   0.808  15.245  0.2027  0.6348 -0.1067
 2202TIP3    H228022   2.814   0.820  15.248  0.0790 -0.7136 -0.1986
 2203TIP3   OH228023   2.515   3.239   1.826 -0.2852 -0.5598  0.2146
 2203TIP3    H128024   2.437   3.183   1.833  0.3095 -1.2699  1.3870
 2203TIP3    H228025   2.589   3.178   1.831  0.3687  0.1545 -0.4486
 2204TIP3   OH228026   1.194   5.985  16.366 -0.2316 -0.2548  0.1088
 2204TIP3    H128027   1.198   6.079  16.347  0.3709 -0.3443 -0.2367
 2204TIP3    H228028   1.138   5.979  16.444 -1.1513  0.2885 -0.4895
 2205TIP3   OH228029   0.032   0.213  16.319  0.6148  0.1909  0.2211
 2205TIP3    H128030   0.080   0.275  16.264  0.5818 -0.0744 -0.1093
 2205TIP3    H228031   0.052   0.128  16.281  0.1522  0.0527  0.2919
 2206TIP3   OH228032   0.491   3.536  11.940 -0.2361 -0.3632  0.7007
 2206TIP3    H128033   0.545   3.475  11.991 -1.3573 -1.3846  0.7248
 2206TIP3    H228034   0.431   3.479  11.892  0.4545  0.6088 -1.3964
 2207TIP3   OH228035   0.449   6.484  13.415  0.1699  0.0590  0.5352
 2207TIP3    H128036   0.499   6.458  13.338 -0.6295  1.2873 -0.4461
 2207TIP3    H228037   0.390   6.411  13.432  1.0746 -0.6575  0.6220
 2208TIP3   OH228038   3.092   3.480  10.569 -0.8801  0.2918 -0.1763
 2208TIP3    H128039   3.173   3.468  10.618 -1.3879  1.0028  0.8715
 2208TIP3    H228040   3.066   3.391  10.544 -0.3078 -0.0258  0.3426
 2209TIP3   OH228041   6.783   3.954  14.901  0.0875  0.1720 -0.4758
 2209TIP3    H128042   6.862   3.986  14.858  0.3080 -0.7171 -0.7478
 2209TIP3    H228043   6.777   4.007  14.980  1.4221 -0.2703 -0.0321
 2210TIP3   OH228044   6.504   1.193   3.958  0.2214  0.3758 -0.0525
 2210TIP3    H128045   6.464   1.133   3.894  1.5335  0.5775 -1.1083
 2210TIP3    H228046   6.466   1.167   4.042 -0.9538 -0.4258 -0.7950
 2211TIP3   OH228047   6.285   0.269  14.327  0.3147 -0.0793  0.3892
 2211TIP3    H128048   6.249   0.274  14.239  1.1715  1.1233  0.0782
 2211TIP3    H228049   6.230   0.206  14.372 -1.2951  0.6592 -0.4609
 2212TIP3   OH228050   5.145   5.096  14.324 -0.1697 -0.2338 -0.1402
 2212TIP3    H128051   5.144   5.189  14.303 -0.3208 -0.5571 -1.6157
 2212TIP3    H228052   5.225   5.084  14.376 -0.5336  0.8298  0.7206
 2213TIP3   OH228053   2.530   4.528  16.117 -0.7881 -0.1026 -0.3174
 2213TIP3    H128054   2.511   4.615  16.081 -2.4074 -0.7719 -1.2310
 2213TIP3    H228055   2.620   4.510  16.091 -1.2309  0.3123 -2.3199
 2214TIP3   OH228056   4.918   4.295   2.798 -0.4774 -0.3422 -0.5464
 2214TIP3    H128057   4.840   4.350   2.810 -0.9865 -1.5656  2.7739
 2214TIP3    H228058   4.928   4.249   2.881  2.5949 -1.8607 -1.6067
 2215TIP3   OH228059   3.193   1.467  14.846  0.5742  0.6018  0.3617
 2215TIP3    H128060   3.213   1.527  14.774  0.5214 -1.6870 -1.6907
 2215TIP3    H228061   3.266   1.405  14.847 -0.8973 -1.2080  0.2307
 2216TIP3   OH228062   1.438   0.308   3.955 -0.2224  0.5697 -0.0816
 2216TIP3    H128063   1.388   0.246   3.900  0.9778  0.3048 -0.9135
 2216TIP3    H228064   1.456   0.259   4.035 -0.2765  0.2473 -0.2623
 2217TIP3   OH228065   3.986   2.588   1.793 -0.3863 -0.4169  0.7996
 2217TIP3    H128066   3.941   2.639   1.860 -2.2929 -0.6007 -0.2667
 2217TIP3    H228067   4.018   2.653   1.731 -1.0047 -0.4055  0.4950
 2218TIP3   OH228068   0.132   1.891   1.753 -0.1065 -0.0343  0.1336
 2218TIP3    H128069   0.185   1.894   1.673 -0.8547  0.8127 -0.3559
 2218TIP3    H228070   0.167   1.962   1.807 -1.0702  0.9119 -0.4345
 2219TIP3   OH228071   6.451   6.341  12.645 -0.5472  0.0833  0.1129
 2219TIP3    H128072   6.379   6.294  12.604 -0.8456  0.2114  0.4742
 2219TIP3    H228073   6.413   6.426  12.670 -0.1125  0.3814 -0.2240
 2220TIP3   OH228074   6.130   4.449  14.177  0.3257  0.6063  0.8277
 2220TIP3    H128075   6.226   4.445  14.171  0.2837 -0.0545  0.4958
 2220TIP3    H228076   6.109   4.541  14.163  0.9050  0.7333  0.7637
 2221TIP3   OH228077   0.922   4.370   0.060  0.1274 -0.5132  0.1435
 2221TIP3    H128078   0.912   4.287   0.106 -0.6150 -1.3454 -1.4527
 2221TIP3    H228079   0.938   4.434   0.130  1.1342 -2.0332  1.3805
 2222TIP3   OH228080   3.215   0.973   6.203 -0.1512  0.1617  0.6275
 2222TIP3    H128081   3.258   1.058   6.193 -0.0972  0.0321 -0.3575
 2222TIP3    H228082   3.200   0.964   6.297 -0.6705  1.5168  0.6979
 2223TIP3   OH228083   0.315   1.723   6.065  0.5573  0.0669 -0.6118
 2223TIP3    H128084   0.306   1.817   6.049  0.9124  0.5184  1.5275
 2223TIP3    H228085   0.398   1.699   6.024  0.6424  0.7625 -0.8619
 2224TIP3   OH228086   4.537   4.743   0.005 -0.0411  0.2149 -0.8602
 2224TIP3    H128087   4.623   4.784  -0.003  0.6415 -0.8642  0.5353
 2224TIP3    H228088   4.537   4.675  -0.062  0.5612 -0.3512 -0.3049
 2225TIP3   OH228089   2.925   5.344   1.335  0.0650  0.5766 -0.5404
 2225TIP3    H128090   2.968   5.318   1.417 -0.1974 -2.8889 -1.3299
 2225TIP3    H228091   2.834   5.361   1.360  0.2539  0.7272  0.0659
 2226TIP3   OH228092   1.826   5.309   5.543 -0.6983 -0.3187 -0.7264
 2226TIP3    H128093   1.846   5.286   5.634  0.4867 -2.6159 -1.4878
 2226TIP3    H228094   1.863   5.396   5.532 -2.3997  0.7922  1.4199
 2227TIP3   OH228095   0.187   1.009   2.349 -0.2285  0.0379 -0.1994
 2227TIP3    H128096   0.108   1.016   2.403 -0.8408 -0.0607 -1.0647
 2227TIP3    H228097   0.172   1.069   2.276  0.6775  0.3239 -0.1658
 2228TIP3   OH228098   0.262   2.853   3.956  0.3831  0.0369 -0.0936
 2228TIP3    H128099   0.234   2.844   4.048  0.2631  0.2071 -0.1136
 2228TIP3    H228100   0.200   2.915   3.918  0.5966  0.1717 -0.2220
 2229TIP3   OH228101   5.038   0.462  14.541  0.1583  0.8389  0.1137
 2229TIP3    H128102   5.043   0.557  14.535 -1.9716  0.9790 -0.2302
 2229TIP3    H228103   4.945   0.444  14.554  0.4622 -1.2220 -0.2710
 2230TIP3   OH228104   1.421   0.815   4.070 -0.3941 -0.1163  0.0110
 2230TIP3    H128105   1.341   0.847   4.113  0.2729  1.1005  0.3796
 2230TIP3    H228106   1.389   0.759   3.999 -1.5806  0.4015  0.1135
 2231TIP3   OH228107   6.679   5.211   2.623  0.4861 -0.0142  0.5879
 2231TIP3    H128108   6.661   5.301   2.598  3.2066  0.2640 -0.8047
 2231TIP3    H228109   6.666   5.161   2.542 -0.2191 -0.7814  1.1504
 2232TIP3   OH228110   2.214   4.587   1.071 -0.0858 -0.7144 -0.3387
 2232TIP3    H128111   2.180   4.676   1.075  0.1033 -0.6367 -0.4431
 2232TIP3    H228112   2.216   4.567   0.977  1.5179 -0.1855 -0.4529
 2233TIP3   OH228113   0.569   4.143  13.114 -0.3309  0.7456 -0.0845
 2233TIP3    H128114   0.567   4.190  13.031 -1.5968  0.5638 -0.1694
 2233TIP3    H228115   0.662   4.141  13.138 -0.0648  1.6854 -0.9798
 2234TIP3   OH228116   5.005   6.100   1.391 -0.2269  0.5885  0.3098
 2234TIP3    H128117   5.082   6.044   1.391 -0.2213  0.5697  1.4990
 2234TIP3    H228118   4.935   6.045   1.426 -0.6137  0.8342 -0.0599
 2235TIP3   OH228119   5.244   6.513  13.022 -0.2238 -0.4380  0.5544
 2235TIP3    H128120   5.197   6.586  13.061 -0.4520  0.0364 -0.5859
 2235TIP3    H228121   5.199   6.496  12.940  1.2385 -0.3282 -0.3001
 2236TIP3   OH228122   0.822   2.627   1.187  0.4245  0.0476  0.0669
 2236TIP3    H128123   0.730   2.610   1.167  0.7304  0.7675 -2.1293
 2236TIP3    H228124   0.833   2.721   1.176  1.2546  0.1132  1.2192
 2237TIP3   OH228125   2.207   1.808  12.787  0.7643  0.4865 -0.4938
 2237TIP3    H128126   2.297   1.832  12.808  0.4531  0.6325  0.7605
 2237TIP3    H228127   2.164   1.891  12.767  0.0242  0.9476  2.5307
 2238TIP3   OH228128   0.489   5.644   1.571  0.7318  0.3504 -0.4191
 2238TIP3    H128129   0.530   5.689   1.497  1.0108 -0.4803 -0.7779
 2238TIP3    H228130   0.446   5.714   1.621  1.1352  1.0061 -0.9781
 2239TIP3   OH228131   2.461   2.532  12.097  0.1400  0.2488  0.2962
 2239TIP3    H128132   2.398   2.563  12.162 -1.0868 -0.9644 -0.2592
 2239TIP3    H228133   2.531   2.492  12.149 -1.1920 -1.4093  0.9255
 2240TIP3   OH228134   1.642   6.145   1.014  0.4414 -0.1494  0.3451
 2240TIP3    H128135   1.703   6.171   1.082 -0.2950  0.1090  0.9128
 2240TIP3    H228136   1.650   6.214   0.947 -0.4380  0.7857  1.1771
 2241TIP3   OH228137   0.946   0.885  11.296  0.2905 -0.0746  0.2259
 2241TIP3    H128138   1.036   0.913  11.277  0.5826 -0.3743  1.1200
 2241TIP3    H228139   0.912   0.856  11.212  1.4303 -1.0462  0.0675
 2242TIP3   OH228140   0.725   6.726  14.911 -0.5234  0.2736 -0.2678
 2242TIP3    H128141   0.773   6.645  14.930  1.6667  1.3956 -0.6810
 2242TIP3    H228142   0.700   6.718  14.819 -0.9938 -0.2462 -0.1001
 2243TIP3   OH228143   2.341   4.120   6.844 -0.0664  0.0544  0.7594
 2243TIP3    H128144   2.338   4.156   6.755  2.2086 -1.9116 -0.1962
 2243TIP3    H228145   2.276   4.050   6.844  1.6197 -1.5835 -0.2146
 2244TIP3   OH228146   6.003   3.779   3.153 -0.2050 -0.0947 -0.0797
 2244TIP3    H128147   5.986   3.873   3.162  0.0219 -0.1601  1.2509
 2244TIP3    H228148   6.035   3.752   3.239  1.5556 -1.0332 -0.9695
 2245TIP3   OH228149   1.538   2.486  11.919  0.1036  0.4574  0.5729
 2245TIP3    H128150   1.518   2.570  11.962 -1.7909 -0.3503  1.3580
 2245TIP3    H228151   1.485   2.422  11.966  1.7025 -1.2518  0.1555
 2246TIP3   OH228152   1.079   3.782  14.043 -0.3320 -0.2027  0.3168
 2246TIP3    H128153   1.105   3.865  14.003  0.3396 -0.2919  0.5599
 2246TIP3    H228154   1.000   3.757  13.995  0.7624 -0.5912 -1.4042
 2247TIP3   OH228155   0.992   2.010  13.787 -0.7450  0.6812  0.3776
 2247TIP3    H128156   0.950   1.934  13.826 -0.4256  0.4135  0.1999
 2247TIP3    H228157   1.080   2.011  13.825 -0.9320  1.2855  0.8107
 2248TIP3   OH228158   5.497   2.531  13.929  0.1213  0.3975  0.4173
 2248TIP3    H128159   5.546   2.520  14.011 -0.5872 -1.9207  0.5853
 2248TIP3    H228160   5.405   2.520  13.955 -0.3409  2.0901 -0.3357
 2249TIP3   OH228161   5.520   3.195   0.112  0.0495  0.1056 -1.2249
 2249TIP3    H128162   5.594   3.147   0.150 -1.6275 -1.9117 -0.3118
 2249TIP3    H228163   5.508   3.155   0.026  0.4461  0.9432 -1.6811
 2250TIP3   OH228164   2.319   1.026   3.965  0.3899  0.2484 -0.3786
 2250TIP3    H128165   2.296   0.936   3.942  1.0411 -0.2589  0.8950
 2250TIP3    H228166   2.236   1.073   3.965 -0.1265 -0.6361  0.1643
 2251TIP3   OH228167   6.093   3.278   0.709 -0.9090  0.2625  0.1796
 2251TIP3    H128168   6.148   3.211   0.667  0.7736  0.4904  1.8969
 2251TIP3    H228169   6.029   3.228   0.759  1.3893 -0.2419  2.8434
 2252TIP3   OH228170   5.533   1.742  17.104  0.5665 -0.1755 -0.2322
 2252TIP3    H128171   5.624   1.734  17.129  0.7064  0.0059 -0.6600
 2252TIP3    H228172   5.491   1.788  17.177  0.5367 -1.4066  0.5428
 2253TIP3   OH228173   4.866   4.691   5.620 -0.3675 -0.3580 -0.1732
 2253TIP3    H128174   4.883   4.598   5.612 -2.1633 -0.7285 -0.0673
 2253TIP3    H228175   4.935   4.723   5.678  0.4608 -1.5334 -0.4636
 2254TIP3   OH228176   3.264   4.742  16.709  0.1810 -0.8660 -0.0828
 2254TIP3    H128177   3.307   4.772  16.629 -0.5277 -1.1418 -0.5798
 2254TIP3    H228178   3.180   4.708  16.679 -0.3245 -0.4664  0.8456
 2255TIP3   OH228179   0.587   5.791   0.233  0.3041 -0.5676 -0.0426
 2255TIP3    H128180   0.678   5.788   0.202 -0.0365  0.9926 -1.3539
 2255TIP3    H228181   0.538   5.824   0.157 -1.3343 -1.2063  0.7040
 2256TIP3   OH228182   6.409   1.998   0.363 -0.2947  0.1500  0.5202
 2256TIP3    H128183   6.407   2.088   0.330  1.7911  0.2782  0.6135
 2256TIP3    H228184   6.461   2.004   0.443  0.5385 -1.2391  0.1145
 2257TIP3   OH228185   5.342   2.098  13.468 -0.4600  0.1820 -0.2496
 2257TIP3    H128186   5.430   2.134  13.467 -0.3747 -0.0120 -1.5938
 2257TIP3    H228187   5.285   2.172  13.447 -0.9975  1.0436  3.4537
 2258TIP3   OH228188   6.206   3.991  15.578  0.0496  0.0976  0.2015
 2258TIP3    H128189   6.250   4.021  15.657 -1.2011 -0.7162  1.2686
 2258TIP3    H228190   6.246   3.907  15.558 -1.1801 -0.8249  1.3932
 2259TIP3   OH228191   3.931   4.894   5.177 -0.1003 -0.3583  0.1071
 2259TIP3    H128192   4.003   4.844   5.214 -0.9571 -0.5818  1.5419
 2259TIP3    H228193   3.916   4.965   5.239 -0.6245  0.1232 -0.5573
 2260TIP3   OH228194   5.371   0.761   4.005  0.0324  0.0219  0.2637
 2260TIP3    H128195   5.376   0.712   3.923  0.6745  0.7458 -0.1521
 2260TIP3    H228196   5.311   0.833   3.986 -0.8998 -0.5706  0.8671
 2261TIP3   OH228197   5.815   1.170   6.175  0.6037 -0.3182  0.4016
 2261TIP3    H128198   5.908   1.167   6.197  0.8769  2.5712  0.0948
 2261TIP3    H228199   5.789   1.261   6.193 -1.9308 -0.8028 -0.3918
 2262TIP3   OH228200   5.976   3.254  11.169 -0.9569  0.3539  0.7545
 2262TIP3    H128201   5.956   3.211  11.087  2.4020 -3.2415  1.5397
 2262TIP3    H228202   5.979   3.183  11.234  1.3551  2.2394  2.9397
 2263TIP3   OH228203   5.563   2.526  13.046 -0.6079  0.2456 -0.4647
 2263TIP3    H128204   5.531   2.570  13.125  0.8123 -0.6131  0.6446
 2263TIP3    H228205   5.628   2.464  13.078 -1.2679 -1.4098 -2.1559
 2264TIP3   OH228206   0.132   4.418   2.002 -0.0445 -0.4757  0.1265
 2264TIP3    H128207   0.160   4.357   1.934  1.1549  1.0753 -0.8329
 2264TIP3    H228208   0.082   4.364   2.063 -0.6225 -2.0325 -1.6413
 2265TIP3   OH228209   3.788   5.651   1.122  0.3023  0.7080  0.4288
 2265TIP3    H128210   3.760   5.594   1.050  0.2207  1.2340  0.0407
 2265TIP3    H228211   3.881   5.630   1.133 -0.2651 -1.3524  1.9993
 2266TIP3   OH228212   5.722   5.957   5.591  0.1063  0.2386  0.4885
 2266TIP3    H128213   5.713   5.867   5.562 -0.2225  0.7066 -0.9870
 2266TIP3    H228214   5.647   6.002   5.551  2.9800  2.2190 -3.3968
 2267TIP3   OH228215   3.588   2.542  14.000  0.9641 -0.8110  0.0926
 2267TIP3    H128216   3.660   2.603  14.011 -0.1170  0.4400  0.4444
 2267TIP3    H228217   3.540   2.546  14.083 -1.2558  0.7367 -1.1846
 2268TIP3   OH228218   6.263   6.600   2.931  0.1577 -0.1476  0.3048
 2268TIP3    H128219   6.282   6.535   2.863  0.2448 -0.0412  0.2270
 2268TIP3    H228220   6.220   6.672   2.884  1.0324  0.3265  0.2050
 2269TIP3   OH228221   0.931   4.496  16.518  0.3364  0.3070  0.5728
 2269TIP3    H128222   0.866   4.566  16.520 -1.0054 -0.9039  1.2971
 2269TIP3    H228223   1.013   4.539  16.541 -0.2777  1.7924  0.1350
 2270TIP3   OH228224   3.563   5.963  11.724  0.4327 -0.3634  0.0386
 2270TIP3    H128225   3.485   5.921  11.687  0.3202  0.7824 -1.0985
 2270TIP3    H228226   3.627   5.962  11.653  1.2174 -0.6222  0.7250
 2271TIP3   OH228227   6.033   4.473   4.130  0.5734  0.0546 -0.5829
 2271TIP3    H128228   5.960   4.416   4.104 -0.9505  1.2152  0.9087
 2271TIP3    H228229   5.993   4.558   4.145  2.0413  0.4915  1.3054
 2272TIP3   OH228230   1.914   3.404  15.981  0.0491 -0.6280  0.2135
 2272TIP3    H128231   1.939   3.422  16.071 -0.8550 -4.3282  1.3922
 2272TIP3    H228232   1.990   3.362  15.942  0.1856  0.3012 -0.5753
 2273TIP3   OH228233   1.625   2.817   3.567 -0.1886 -0.0375 -0.0865
 2273TIP3    H128234   1.620   2.898   3.618 -0.1211 -1.3608  2.1229
 2273TIP3    H228235   1.576   2.837   3.487  0.7508  2.5193 -0.1392
 2274TIP3   OH228236   4.854   4.831   3.777 -0.2584 -0.2635  0.0282
 2274TIP3    H128237   4.812   4.884   3.709  0.6730  0.0397 -0.3314
 2274TIP3    H228238   4.785   4.774   3.809 -0.2653 -2.0237 -2.7367
 2275TIP3   OH228239   5.742   1.953   2.386 -0.2751 -0.2929 -0.3663
 2275TIP3    H128240   5.721   1.923   2.475  0.1205  0.1192 -0.1280
 2275TIP3    H228241   5.695   1.893   2.329 -1.5264  0.1844  0.1311
 2276TIP3   OH228242   3.506   6.442  15.563 -0.4557  0.0453  0.2613
 2276TIP3    H128243   3.601   6.432  15.566 -0.4772 -2.2310 -2.1519
 2276TIP3    H228244   3.492   6.530  15.529  0.8933 -0.0825 -0.7363
 2277TIP3   OH228245   4.788   5.736   2.658 -0.5776 -0.2950 -0.0812
 2277TIP3    H128246   4.832   5.733   2.574  0.0412 -1.1172  0.2515
 2277TIP3    H228247   4.697   5.759   2.638 -0.6281 -1.2685 -1.0522
 2278TIP3   OH228248   0.725   3.659   4.365 -0.0039 -0.7048 -0.5129
 2278TIP3    H128249   0.778   3.715   4.309 -1.5060  1.1525 -0.1445
 2278TIP3    H228250   0.767   3.573   4.359  2.0238  0.2959 -1.5493
 2279TIP3   OH228251   2.551   5.605  15.239 -0.1563  0.1177  0.2941
 2279TIP3    H128252   2.471   5.553  15.231 -0.0821 -0.0510  0.6238
 2279TIP3    H228253   2.618   5.553  15.194 -0.4594  0.7833 -0.9703
 2280TIP3   OH228254   1.909   2.793   3.392  0.1593  0.1691  0.1399
 2280TIP3    H128255   1.893   2.709   3.434  0.0949  0.4149  0.6144
 2280TIP3    H228256   2.002   2.810   3.407 -0.0801  0.7346  1.0847
 2281TIP3   OH228257   4.511   4.935   1.565  0.1637 -0.2925  0.8551
 2281TIP3    H128258   4.555   4.870   1.510  0.2947  1.0341 -0.6882
 2281TIP3    H228259   4.571   4.950   1.638  1.4090  0.0877 -0.2187
 2282TIP3   OH228260   0.866   4.425   0.420 -0.6163 -0.5863  0.7844
 2282TIP3    H128261   0.792   4.396   0.367  0.1033 -0.5072 -0.2962
 2282TIP3    H228262   0.916   4.483   0.362 -1.0012  1.3401  2.2738
 2283TIP3   OH228263   0.713   5.466  14.384  0.2984 -0.3403  0.0251
 2283TIP3    H128264   0.798   5.488  14.422  0.8888 -1.1861 -0.7511
 2283TIP3    H228265   0.651   5.528  14.424  1.6197  1.7460 -0.9569
 2284TIP3   OH228266   4.030   4.528  14.710 -0.3359  0.5728 -0.1709
 2284TIP3    H128267   4.003   4.503  14.621 -2.0549 -0.3161  0.5549
 2284TIP3    H228268   4.126   4.518  14.710 -0.3951 -0.2210 -1.6726
 2285TIP3   OH228269   4.616   3.322   2.469 -0.5633  0.1168 -0.0688
 2285TIP3    H128270   4.703   3.287   2.447 -0.6766 -1.7722  2.0612
 2285TIP3    H228271   4.634   3.404   2.515  0.1396 -0.3352  0.4951
 2286TIP3   OH228272   0.304   5.970  15.437  0.3823 -0.0581  0.0996
 2286TIP3    H128273   0.358   6.045  15.412 -0.1296  0.4184  0.4126
 2286TIP3    H228274   0.261   5.943  15.356  0.8170 -0.2216 -0.0799
 2287TIP3   OH228275   0.578   2.461  16.199 -0.3681 -0.1596 -0.5069
 2287TIP3    H128276   0.575   2.478  16.105 -1.9725 -0.9240 -0.6235
 2287TIP3    H228277   0.663   2.494  16.226 -0.2059  0.8343 -2.0766
 2288TIP3   OH228278   2.635   5.264   2.679  0.0975 -0.6211 -0.0924
 2288TIP3    H128279   2.567   5.318   2.718  0.1942 -0.3245 -0.3380
 2288TIP3    H228280   2.592   5.219   2.606  0.2434 -0.2005 -0.4373
 2289TIP3   OH228281   1.145   4.288  13.813 -0.5446  0.3665  0.3188
 2289TIP3    H128282   1.237   4.290  13.786  0.0285 -1.1038  1.9327
 2289TIP3    H228283   1.102   4.353  13.758  1.3806  0.8021 -0.7627
 2290TIP3   OH228284   2.988   2.811  11.743 -0.0603  0.6634  0.0533
 2290TIP3    H128285   2.944   2.887  11.781 -3.3478 -1.3102  0.5968
 2290TIP3    H228286   2.995   2.749  11.816  0.8962 -0.2389 -0.7716
 2291TIP3   OH228287   0.569   2.754   5.050  0.0944 -0.1332 -0.0919
 2291TIP3    H128288   0.538   2.768   5.140 -2.1346 -0.9873 -0.6507
 2291TIP3    H228289   0.526   2.823   5.000  1.6813  0.6198 -0.4785
 2292TIP3   OH228290   2.146   0.736  16.609  0.5964 -0.1575  0.2822
 2292TIP3    H128291   2.151   0.828  16.636 -0.6310 -0.3420  1.2294
 2292TIP3    H228292   2.121   0.689  16.689 -0.8490 -1.0401 -0.6423
 2293TIP3   OH228293   3.884   4.951  15.629  0.2001 -0.1452  0.1041
 2293TIP3    H128294   3.855   5.038  15.656 -0.0337 -0.0586 -0.4179
 2293TIP3    H228295   3.942   4.922  15.699  2.6532  1.6492 -1.0488
 2294TIP3   OH228296   5.774   0.053  17.135 -0.0520 -0.2101  0.2360
 2294TIP3    H128297   5.866   0.041  17.112 -0.2126 -1.6662  0.2606
 2294TIP3    H228298   5.730   0.072  17.052 -0.0679 -1.8011 -0.1404
 2295TIP3   OH228299   1.427   6.527  13.580  0.0057 -0.3889 -0.3246
 2295TIP3    H128300   1.385   6.452  13.622 -0.0193 -1.9733 -2.9721
 2295TIP3    H228301   1.516   6.498  13.561  0.9576  1.3398  1.1171
 2296TIP3   OH228302   1.168   2.810  11.826  0.1182 -0.4121  0.4152
 2296TIP3    H128303   1.257   2.792  11.797  0.6877  0.5969  1.4683
 2296TIP3    H228304   1.170   2.796  11.920 -0.1964  1.9113  0.8227
 2297TIP3   OH228305   5.865   6.559  14.262  0.3289  0.1628 -0.1873
 2297TIP3    H128306   5.828   6.508  14.190 -0.8157  2.3313 -1.2393
 2297TIP3    H228307   5.945   6.597  14.225 -0.3192  1.3674 -0.3976
 2298TIP3   OH228308   6.031   5.369   2.344  0.3017  0.1948 -0.2432
 2298TIP3    H128309   6.039   5.281   2.379  0.7367  0.4839  0.3985
 2298TIP3    H228310   6.043   5.427   2.420 -1.4267  0.7895 -0.3630
 2299TIP3   OH228311   1.623   1.492  13.394 -0.5915  0.3973 -0.1908
 2299TIP3    H128312   1.616   1.482  13.489 -0.3168  2.1053  0.0304
 2299TIP3    H228313   1.569   1.421  13.359  0.1799 -0.9394  1.2089
 2300TIP3   OH228314   3.874   0.069   1.419 -0.0455  0.1231  0.5388
 2300TIP3    H128315   3.915   0.104   1.340 -0.1822  2.5283  1.4362
 2300TIP3    H228316   3.946   0.029   1.467  0.4349  0.4479  0.1087
 2301TIP3   OH228317   3.311   0.936   5.683 -0.6164 -0.0737 -0.1553
 2301TIP3    H128318   3.380   0.932   5.749 -0.1934  0.0732 -0.5872
 2301TIP3    H228319   3.345   0.996   5.616 -0.4793 -1.2470 -1.1639
 2302TIP3   OH228320   2.005   1.724   3.673  0.0310  0.1553 -0.1532
 2302TIP3    H128321   2.047   1.775   3.603 -1.1906  1.2716 -0.1273
 2302TIP3    H228322   2.010   1.780   3.750 -2.1349  0.7198 -0.3361
 2303TIP3   OH228323   1.526   3.687   4.428 -0.0110  0.0537 -0.2350
 2303TIP3    H128324   1.600   3.657   4.482  0.3793  0.5067 -0.5126
 2303TIP3    H228325   1.472   3.739   4.488 -0.1542 -0.3451 -0.0103
 2304TIP3   OH228326   1.863   4.044  15.724 -0.2226  0.0360 -0.2582
 2304TIP3    H128327   1.834   4.051  15.815  0.3852  1.5410 -0.1519
 2304TIP3    H228328   1.805   4.102  15.676  1.0035  1.1824 -0.4182
 2305TIP3   OH228329   0.905   2.479  12.173 -0.6009 -0.2291 -0.5504
 2305TIP3    H128330   0.856   2.412  12.222 -1.3130  1.2953  0.9299
 2305TIP3    H228331   0.865   2.478  12.086 -1.1918 -1.1372 -0.2909
 2306TIP3   OH228332   1.332   1.299   4.578 -0.6380  0.0269 -0.2476
 2306TIP3    H128333   1.385   1.257   4.510  0.7459  1.4920 -0.1262
 2306TIP3    H228334   1.320   1.389   4.547 -0.1262  0.6748  1.3441
 2307TIP3   OH228335   5.486   3.048   1.059 -0.1666 -0.6799  0.3605
 2307TIP3    H128336   5.400   3.019   1.030 -0.0331 -1.2051  0.4691
 2307TIP3    H228337   5.468   3.102   1.136 -0.3152 -2.0933  1.3503
 2308TIP3   OH228338   6.535   0.504  11.112  0.5096 -0.0303  0.1348
 2308TIP3    H128339   6.615   0.519  11.062  0.0980  0.7029 -0.3137
 2308TIP3    H228340   6.508   0.592  11.142 -1.0816 -0.0214 -1.1941
 2309TIP3   OH228341   5.108   1.910   3.355 -0.8892 -0.1826  0.2023
 2309TIP3    H128342   5.131   1.976   3.420  1.6878 -2.2566  1.5756
 2309TIP3    H228343   5.048   1.851   3.401  0.3548 -1.2441  0.5073
 2310TIP3   OH228344   4.859   1.056   2.524 -0.4057  0.2098  0.2777
 2310TIP3    H128345   4.773   1.071   2.563  0.1065  0.9516  1.1722
 2310TIP3    H228346   4.862   0.961   2.509 -0.6065 -0.1251  2.1269
 2311TIP3   OH228347   4.285   5.848   6.092 -0.2233  0.0558 -0.1228
 2311TIP3    H128348   4.328   5.924   6.131 -1.1969  1.2891 -1.3592
 2311TIP3    H228349   4.322   5.773   6.139  1.7613  1.1806  0.2376
 2312TIP3   OH228350   1.714   5.525  15.472  0.4718 -0.1368 -0.1033
 2312TIP3    H128351   1.620   5.513  15.486  0.5053  0.1309  0.3748
 2312TIP3    H228352   1.720   5.569  15.388  0.1481  0.1820  0.0387
 2313TIP3   OH228353   1.523   5.211   5.891  0.1957 -0.6712 -0.3481
 2313TIP3    H128354   1.427   5.206   5.893  0.2433 -1.8335  1.8316
 2313TIP3    H228355   1.541   5.292   5.843 -1.8894 -0.0245 -0.1652
 2314TIP3   OH228356   5.521   5.475  12.077  0.1757 -0.1498  0.1438
 2314TIP3    H128357   5.490   5.437  11.994  0.0939  0.4860 -0.1268
 2314TIP3    H228358   5.441   5.487  12.129  0.0149  0.9092 -0.3099
 2315TIP3   OH228359   0.246   2.272  13.200  0.3815 -0.1191 -0.1550
 2315TIP3    H128360   0.196   2.195  13.174 -1.0956  1.0996 -1.1040
 2315TIP3    H228361   0.189   2.318  13.261  0.9323  0.5866 -0.1584
 2316TIP3   OH228362   3.815   1.623   2.015 -0.1419  0.7479 -0.1351
 2316TIP3    H128363   3.770   1.540   2.001  1.8146 -0.4466  0.2528
 2316TIP3    H228364   3.748   1.681   2.051 -2.0690  0.0022 -2.2504
 2317TIP3   OH228365   6.748   0.154  15.101 -0.0728  0.3180 -0.4485
 2317TIP3    H128366   6.745   0.248  15.117 -1.5328  0.2496 -0.1755
 2317TIP3    H228367   6.690   0.140  15.027 -0.4162 -0.4534 -0.0457
 2318TIP3   OH228368   1.576   3.178  16.159 -0.1224  0.1620 -0.9916
 2318TIP3    H128369   1.481   3.188  16.164 -0.1167 -0.0532 -0.3715
 2318TIP3    H228370   1.609   3.225  16.236  0.1501 -1.3017 -0.1678
 2319TIP3   OH228371   0.755   1.188   5.452 -0.6542 -0.3268 -0.1214
 2319TIP3    H128372   0.786   1.193   5.362  1.4609  1.0146  0.6145
 2319TIP3    H228373   0.833   1.204   5.506 -2.0493 -0.0233  1.9361
 2320TIP3   OH228374   2.926   5.835   4.629  0.2700  0.3139  0.4977
 2320TIP3    H128375   2.901   5.822   4.537  0.6815  0.2049  0.4003
 2320TIP3    H228376   3.009   5.788   4.638  0.5529  0.8519  0.7580
 2321TIP3   OH228377   4.505   6.311   0.301  0.5911 -0.0310  0.1859
 2321TIP3    H128378   4.512   6.398   0.341 -1.0527  0.1922  0.0749
 2321TIP3    H228379   4.479   6.254   0.373  1.3115 -0.3615  0.1834
 2322TIP3   OH228380   5.061   0.682   5.864  0.0403 -0.0005 -0.1420
 2322TIP3    H128381   5.019   0.753   5.912 -0.2416  1.0111 -1.7933
 2322TIP3    H228382   5.014   0.678   5.781 -0.8178 -3.0395  0.3714
 2323TIP3   OH228383   3.944   2.010  15.643 -0.1204 -0.2711 -0.2090
 2323TIP3    H128384   3.975   2.067  15.714 -0.3096  1.5541 -1.5210
 2323TIP3    H228385   4.015   2.012  15.578 -0.6040 -0.6273 -0.7527
 2324TIP3   OH228386   0.335   1.299   1.472 -0.8378  0.3162  0.5562
 2324TIP3    H128387   0.360   1.365   1.536  0.9703  0.1628  0.0849
 2324TIP3    H228388   0.371   1.217   1.507 -0.6266  0.0800 -0.1868
 2325TIP3   OH228389   5.694   6.184  13.203  0.5325 -0.4152 -0.2203
 2325TIP3    H128390   5.700   6.271  13.242 -0.3324 -0.5535  0.2533
 2325TIP3    H228391   5.693   6.200  13.109 -1.4678  0.2654 -0.1428
 2326TIP3   OH228392   3.407   2.518  14.219 -0.5429 -0.7643  0.2437
 2326TIP3    H128393   3.470   2.534  14.289 -0.4435 -1.1792  0.2515
 2326TIP3    H228394   3.325   2.501  14.264 -0.6944 -0.0981  0.2298
 2327TIP3   OH228395   5.128   4.538   2.463  0.6542  0.5752 -0.0787
 2327TIP3    H128396   5.054   4.591   2.492  1.0720  0.9820  0.2611
 2327TIP3    H228397   5.195   4.552   2.530  0.9716  0.0639 -0.2860
 2328TIP3   OH228398   5.432   5.406   3.197  0.6222 -0.6988  0.6439
 2328TIP3    H128399   5.413   5.427   3.288  2.1473  0.8840  0.6541
 2328TIP3    H228400   5.364   5.450   3.147  0.2834 -0.8393  0.9824
 2329TIP3   OH228401   0.158   3.328   4.237  0.2275 -0.2878  0.1308
 2329TIP3    H128402   0.205   3.411   4.245  1.6474 -1.0566  0.0786
 2329TIP3    H228403   0.107   3.337   4.157 -1.2100  1.2501  1.1391
 2330TIP3   OH228404   1.941   4.031   4.698  0.2648  0.0737  0.5853
 2330TIP3    H128405   1.935   4.077   4.781  5.8748 -0.6404  1.7827
 2330TIP3    H228406   1.985   4.093   4.639  1.4729 -1.2818 -0.0035
 2331TIP3   OH228407   4.734   1.900   2.808 -0.2962  0.0327  0.5484
 2331TIP3    H128408   4.704   1.870   2.722 -0.7730 -2.9388  1.6169
 2331TIP3    H228409   4.659   1.884   2.866  0.5543  0.4301  1.7859
 2332TIP3   OH228410   0.484   3.341   1.468  0.3898  0.0086 -0.0332
 2332TIP3    H128411   0.408   3.288   1.492 -0.0105  1.0836  1.2683
 2332TIP3    H228412   0.556   3.303   1.518  0.9046 -1.4214 -1.7710
 2333TIP3   OH228413   3.023   0.424   6.424 -0.2061 -0.1346  0.4724
 2333TIP3    H128414   2.930   0.438   6.409 -0.6041 -0.2380  2.5467
 2333TIP3    H228415   3.028   0.340   6.470  0.9460 -0.2961  0.0966
 2334TIP3   OH228416   3.950   4.991   1.215 -0.0248  0.8645 -0.4598
 2334TIP3    H128417   3.881   4.978   1.280 -1.0473  3.4208 -0.9097
 2334TIP3    H228418   4.029   4.956   1.256 -0.9156  1.0791  1.5576
 2335TIP3   OH228419   1.580   0.678  15.773 -0.3343 -0.2980  0.1973
 2335TIP3    H128420   1.540   0.608  15.825  0.9413 -1.0847  0.1771
 2335TIP3    H228421   1.595   0.749  15.835 -0.4420 -0.5491  0.5156
 2336TIP3   OH228422   6.174   4.926   3.946  0.0170  0.8022 -0.3578
 2336TIP3    H128423   6.130   5.009   3.929 -0.2536  0.9922  1.1086
 2336TIP3    H228424   6.201   4.932   4.038  1.7584  0.0696 -0.7763
 2337TIP3   OH228425   4.979   3.805  14.317  0.0284 -0.0759  0.2143
 2337TIP3    H128426   4.976   3.712  14.338 -0.8092  0.0498  0.6811
 2337TIP3    H228427   4.889   3.827  14.293  0.2434  0.5899 -0.0131
 2338TIP3   OH228428   5.292   3.310   3.474  0.4101  0.2608 -0.6080
 2338TIP3    H128429   5.311   3.403   3.477  0.0311  0.2999  1.4755
 2338TIP3    H228430   5.201   3.302   3.500  0.5739 -0.7287 -0.2631
 2339TIP3   OH228431   5.242   6.598   0.701 -0.1007  0.6206  0.6288
 2339TIP3    H128432   5.292   6.680   0.706  4.3085 -1.6838 -1.0111
 2339TIP3    H228433   5.170   6.619   0.641  1.1171  3.1882 -0.1087
 2340TIP3   OH228434   3.116   3.704  11.061 -0.0661 -0.1708 -0.3845
 2340TIP3    H128435   3.063   3.670  10.989  0.6013 -1.5579 -0.2674
 2340TIP3    H228436   3.169   3.629  11.089 -0.8198  0.1092  2.0429
 2341TIP3   OH228437   2.513   1.991   3.162 -0.4262  0.1870  0.0220
 2341TIP3    H128438   2.546   1.913   3.119 -0.1641  0.2353  0.1367
 2341TIP3    H228439   2.511   2.058   3.093  0.2818  0.3479  0.1565
 2342TIP3   OH228440   2.437   3.745   2.568 -0.5667 -0.2679  0.7290
 2342TIP3    H128441   2.502   3.815   2.579  0.7509 -1.6919  2.5317
 2342TIP3    H228442   2.388   3.771   2.490 -0.2258  2.7212  1.3729
 2343TIP3   OH228443   3.383   6.759   1.295 -0.0622  0.2190 -0.5623
 2343TIP3    H128444   3.394   6.779   1.202 -1.0767 -0.1215 -0.7666
 2343TIP3    H228445   3.335   6.676   1.296 -3.4218  1.9916  0.2020
 2344TIP3   OH228446   0.909   1.443  14.570 -0.5415  0.3926  0.1413
 2344TIP3    H128447   0.863   1.497  14.506 -0.2072  0.2493 -0.2191
 2344TIP3    H228448   0.999   1.475  14.569 -0.6063  0.6178  0.7877
 2345TIP3   OH228449   3.244   0.641   5.694  0.0580 -0.4580  0.6652
 2345TIP3    H128450   3.245   0.674   5.784  0.4847 -0.2702  0.5963
 2345TIP3    H228451   3.320   0.683   5.653  0.0573 -0.8013  0.3118
 2346TIP3   OH228452   4.775   4.046   0.594  0.2702  0.5817 -0.0400
 2346TIP3    H128453   4.690   4.003   0.582 -0.0337  0.4607  2.0711
 2346TIP3    H228454   4.812   4.052   0.506 -1.1265 -1.0142 -0.7966
 2347TIP3   OH228455   2.537   6.170   3.826  0.7387 -0.4060  0.2636
 2347TIP3    H128456   2.518   6.260   3.853  1.0646 -0.3922  0.4551
 2347TIP3    H228457   2.540   6.121   3.908 -2.8351 -1.2956  0.0117
 2348TIP3   OH228458   3.882   2.527  12.574 -0.4326  0.5021  0.5151
 2348TIP3    H128459   3.975   2.507  12.563 -0.4224  0.1768  1.1351
 2348TIP3    H228460   3.856   2.570  12.492  0.2197  0.4374  0.2721
 2349TIP3   OH228461   3.381   3.023   3.083  0.3593 -0.3274  0.4229
 2349TIP3    H128462   3.294   2.985   3.096  0.3884 -0.5551 -0.0452
 2349TIP3    H228463   3.403   3.005   2.992  1.4046 -1.3426  0.8379
 2350TIP3   OH228464   1.492   6.696   2.496 -0.0169 -0.0858  0.2586
 2350TIP3    H128465   1.451   6.610   2.510  2.7365 -1.5175  0.2566
 2350TIP3    H228466   1.470   6.718   2.405 -0.2152 -1.1337  0.0384
 2351TIP3   OH228467   3.091   4.685  16.299 -0.5582  0.1856  0.3885
 2351TIP3    H128468   3.079   4.591  16.283  0.7842 -0.2820  1.8457
 2351TIP3    H228469   3.065   4.697  16.390 -0.8773  1.2819  0.1661
 2352TIP3   OH228470   5.037   0.684  17.086 -0.3382 -0.0355 -0.5630
 2352TIP3    H128471   5.018   0.667  17.178 -0.8058 -1.3732 -0.8762
 2352TIP3    H228472   5.047   0.779  17.080 -0.9084  0.1282  0.7456
 2353TIP3   OH228473   0.814   2.575  15.784 -0.2606  0.4045  0.3536
 2353TIP3    H128474   0.846   2.617  15.704 -0.7234 -0.8715 -0.5351
 2353TIP3    H228475   0.788   2.647  15.841  0.2922  1.3437 -0.5511
 2354TIP3   OH228476   2.851   3.325   4.720  0.5464 -0.0563 -0.0655
 2354TIP3    H128477   2.881   3.356   4.806  0.7890 -0.3568 -0.0425
 2354TIP3    H228478   2.776   3.268   4.741  1.2491 -0.9670  0.0273
 2355TIP3   OH228479   3.869   1.389  16.448  0.3847  0.7782 -0.2574
 2355TIP3    H128480   3.869   1.303  16.489  0.4515  0.7406 -0.3353
 2355TIP3    H228481   3.932   1.382  16.377  0.1128  0.7764 -0.5035
 2356TIP3   OH228482   5.177   0.396  12.797 -0.1382  0.0845 -0.0171
 2356TIP3    H128483   5.253   0.358  12.841 -0.9957 -0.5946  0.9154
 2356TIP3    H228484   5.135   0.451  12.864 -0.4286  0.5203 -0.5466
 2357TIP3   OH228485   1.738   1.997   5.675  0.4614 -0.2261 -0.0281
 2357TIP3    H128486   1.689   2.018   5.755  0.9476  0.6377  0.0491
 2357TIP3    H228487   1.769   2.081   5.642  1.8650 -0.7374 -0.0965
 2358TIP3   OH228488   2.375   1.993   5.178 -0.1734  0.1787  0.0108
 2358TIP3    H128489   2.450   2.035   5.135  0.4451 -1.3377 -0.4448
 2358TIP3    H228490   2.403   1.980   5.268 -0.3276  0.6408  0.1272
 2359TIP3   OH228491   2.311   2.873   3.741 -0.1856  0.3207  0.1910
 2359TIP3    H128492   2.391   2.914   3.708  0.0070 -0.7394 -0.7275
 2359TIP3    H228493   2.282   2.930   3.811  0.3137  1.7760 -0.7476
 2360TIP3   OH228494   5.652   6.292   4.624 -0.2226  0.2900 -0.6408
 2360TIP3    H128495   5.573   6.307   4.676  0.7632 -0.1454  1.0476
 2360TIP3    H228496   5.636   6.208   4.581  0.1062 -0.8768  1.3675
 2361TIP3   OH228497   2.840   2.008   0.222 -1.0082 -0.2847  0.2904
 2361TIP3    H128498   2.800   2.091   0.195 -1.6564 -0.7501 -0.2268
 2361TIP3    H228499   2.825   2.004   0.317 -1.2268  0.0558  0.2736
 2362TIP3   OH228500   3.462   0.259   3.962  0.1880 -0.4533 -0.1163
 2362TIP3    H128501   3.509   0.184   3.998  0.6480 -0.6327 -1.0501
 2362TIP3    H228502   3.430   0.228   3.877  1.6821  0.8537 -1.2198
 2363TIP3   OH228503   4.008   1.467  11.378  0.1689 -0.3718 -0.3224
 2363TIP3    H128504   3.926   1.516  11.369  0.8358  0.7652 -0.4302
 2363TIP3    H228505   4.043   1.462  11.290  1.3119  1.1516  0.0081
 2364TIP3   OH228506   5.379   3.713   5.676  0.3421 -0.3078  0.2448
 2364TIP3    H128507   5.375   3.767   5.597 -2.8118 -2.4943 -1.2771
 2364TIP3    H228508   5.345   3.770   5.745 -0.1883  0.5696 -0.7011
 2365TIP3   OH228509   2.962   6.778  11.797  0.1264  0.1801 -0.2288
 2365TIP3    H128510   3.028   6.809  11.858  0.8833 -4.0897  1.5017
 2365TIP3    H228511   2.882   6.825  11.821  1.1778  1.0173  1.8258
 2366TIP3   OH228512   6.061   0.718   6.008  0.4738  0.2279  0.6862
 2366TIP3    H128513   6.092   0.641   6.054 -0.3461 -0.2064  0.5389
 2366TIP3    H228514   6.118   0.726   5.932 -0.7176 -1.4831 -0.4544
 2367TIP3   OH228515   3.792   1.684  11.677 -0.8587  0.5054 -0.1661
 2367TIP3    H128516   3.725   1.651  11.616 -2.3710  3.4175 -0.2484
 2367TIP3    H228517   3.852   1.733  11.622 -0.6165  0.7784  0.3412
 2368TIP3   OH228518   4.090   2.090  14.600 -0.7797  0.1226  0.0986
 2368TIP3    H128519   4.062   2.004  14.569 -0.0360 -0.0699 -0.0477
 2368TIP3    H228520   4.179   2.100  14.568 -1.0699  1.2256 -0.4451
 2369TIP3   OH228521   3.860   4.942  10.712 -0.5003  0.4153 -0.3110
 2369TIP3    H128522   3.826   4.899  10.634  0.9320  0.6839 -1.1191
 2369TIP3    H228523   3.943   4.980  10.684  1.0464 -1.1808  1.8298
 2370TIP3   OH228524   4.718   1.182   0.068  0.4307 -0.2582  0.2255
 2370TIP3    H128525   4.736   1.124  -0.005 -0.1480  1.4330 -1.3325
 2370TIP3    H228526   4.722   1.126   0.145  1.6467 -1.9778 -1.0268
 2371TIP3   OH228527   5.521   4.723  17.080  0.1309 -0.2641  0.4132
 2371TIP3    H128528   5.460   4.720  17.006 -0.0388 -2.3987  0.5838
 2371TIP3    H228529   5.607   4.707  17.041  0.8649  3.5581  0.0456
 2372TIP3   OH228530   4.178   0.131  12.657  0.3369 -0.2003 -0.6194
 2372TIP3    H128531   4.124   0.167  12.586  0.8212 -1.7034 -1.8017
 2372TIP3    H228532   4.252   0.091  12.612  0.0733 -2.2144  0.6330
 2373TIP3   OH228533   0.527   4.693  12.174  0.0066 -0.7369 -0.6465
 2373TIP3    H128534   0.473   4.771  12.190 -3.1051 -2.8131 -0.2542
 2373TIP3    H228535   0.617   4.727  12.172 -1.0971  2.7070  0.4235
 2374TIP3   OH228536   3.276   5.715   3.520 -0.1532 -0.4821 -0.1017
 2374TIP3    H128537   3.239   5.800   3.496  1.1580 -0.1014 -0.8736
 2374TIP3    H228538   3.211   5.676   3.578 -1.1971  0.6535 -0.4750
 2375TIP3   OH228539   2.995   1.033  15.556 -0.2571 -0.3006  0.5354
 2375TIP3    H128540   2.993   1.125  15.529 -0.1018 -0.1759  0.9298
 2375TIP3    H228541   3.084   1.004  15.539 -0.4276 -0.5127 -0.0109
 2376TIP3   OH228542   6.081   2.324   5.441  0.0704 -0.1843 -0.3208
 2376TIP3    H128543   6.057   2.329   5.533  1.9573  0.8741  0.1546
 2376TIP3    H228544   6.007   2.364   5.395 -0.1574  0.8305  0.8807
 2377TIP3   OH228545   6.094   1.168   5.277 -0.3368  0.3525 -0.0916
 2377TIP3    H128546   6.190   1.167   5.277 -0.2471  0.7430 -2.5891
 2377TIP3    H228547   6.071   1.237   5.214 -2.2713  0.5577  0.7812
 2378TIP3   OH228548   2.164   1.072  11.590 -0.0762 -0.0910 -0.1116
 2378TIP3    H128549   2.129   1.019  11.518 -0.9934  0.1546  0.1388
 2378TIP3    H228550   2.117   1.155  11.584  2.3134  1.2870 -1.3541
 2379TIP3   OH228551   0.020   3.549  14.722  0.1711 -0.1494 -0.4654
 2379TIP3    H128552  -0.031   3.520  14.799  0.4972 -1.3472 -0.6698
 2379TIP3    H228553  -0.001   3.484  14.655 -0.6357  1.2686 -1.6269
 2380TIP3   OH228554   2.880   6.322  15.817 -0.0791 -0.1901 -0.2980
 2380TIP3    H128555   2.896   6.402  15.767  0.0579 -0.1318 -0.1616
 2380TIP3    H228556   2.960   6.271  15.808 -0.3222 -0.4974 -0.7276
 2381TIP3   OH228557   5.051   3.841   4.513  0.0330  0.0513 -0.2316
 2381TIP3    H128558   5.071   3.835   4.607  0.6953 -0.6738 -0.4090
 2381TIP3    H228559   4.960   3.813   4.506  0.0176 -0.0115  0.1849
 2382TIP3   OH228560   5.361   3.310  16.245 -0.7789  0.3645  0.2020
 2382TIP3    H128561   5.348   3.289  16.337 -0.9468  0.6666  0.2479
 2382TIP3    H228562   5.297   3.379  16.227 -0.3712  0.6899 -0.0032
 2383TIP3   OH228563   4.308   1.516  16.345 -0.4024 -0.4124  0.1774
 2383TIP3    H128564   4.372   1.447  16.331 -1.3767 -1.2591 -0.1629
 2383TIP3    H228565   4.291   1.514  16.439 -1.3315 -1.4652  0.0001
 2384TIP3   OH228566   4.755   1.668   3.787  0.0372  0.2168 -0.1111
 2384TIP3    H128567   4.807   1.598   3.749 -2.2452 -1.4351 -0.4329
 2384TIP3    H228568   4.672   1.665   3.738 -0.7251  2.0823  0.9567
 2385TIP3   OH228569   2.374   0.828  11.352 -0.3252  0.8274  0.3543
 2385TIP3    H128570   2.467   0.848  11.344  0.1493 -1.2844 -0.1747
 2385TIP3    H228571   2.363   0.799  11.443  0.3782 -2.2749 -0.4134
 2386TIP3   OH228572   2.267   0.592   0.333 -0.3139 -0.3748 -0.0513
 2386TIP3    H128573   2.307   0.659   0.278 -2.0155  0.5695 -0.2150
 2386TIP3    H228574   2.323   0.515   0.322  0.2705  0.2546 -1.8792
 2387TIP3   OH228575   6.074   5.083   0.411  0.3994 -0.0964  0.6420
 2387TIP3    H128576   6.072   5.007   0.353  0.9076 -0.6499  1.3244
 2387TIP3    H228577   6.020   5.149   0.367 -2.1506 -1.6699  1.1834
 2388TIP3   OH228578   0.514   4.024  14.137 -0.3393 -0.3492 -0.3860
 2388TIP3    H128579   0.572   3.956  14.104  0.5274  0.0606  0.2240
 2388TIP3    H228580   0.573   4.087  14.180 -1.3246 -0.4933  1.2717
 2389TIP3   OH228581   1.671   1.943  14.732 -0.0986 -0.1349 -0.1734
 2389TIP3    H128582   1.736   1.889  14.688 -0.6119 -0.0447 -1.0675
 2389TIP3    H228583   1.677   2.028  14.689  0.9376  0.6551  1.4461
 2390TIP3   OH228584   4.934   1.470  16.112 -0.0894 -0.1173 -0.0578
 2390TIP3    H128585   4.843   1.502  16.111 -0.5376 -1.3068 -2.0754
 2390TIP3    H228586   4.934   1.395  16.053  2.3382  0.1135 -0.4478
 2391TIP3   OH228587   6.051   5.289   1.161  0.2012 -0.0351 -0.0852
 2391TIP3    H128588   6.073   5.221   1.098 -0.4084  0.5707 -0.9678
 2391TIP3    H228589   5.964   5.318   1.136  0.7001  1.5195 -0.1300
 2392TIP3   OH228590   5.533   4.484   0.994 -0.2758  0.1134 -0.2655
 2392TIP3    H128591   5.531   4.574   0.962 -1.4354  0.8005  1.5730
 2392TIP3    H228592   5.447   4.470   1.033 -0.1640 -1.8611 -0.6008
 2393TIP3   OH228593   6.775   4.284   2.945 -0.0383 -0.1709 -0.3249
 2393TIP3    H128594   6.744   4.300   3.034  1.0210 -1.5106  0.3064
 2393TIP3    H228595   6.761   4.191   2.931 -0.0394 -0.0040 -1.5207
 2394TIP3   OH228596   3.240   1.444  16.891  0.1034  0.5024  0.1891
 2394TIP3    H128597   3.334   1.439  16.875  0.4668  1.7184  1.6818
 2394TIP3    H228598   3.201   1.453  16.804  1.2492 -1.1227 -0.5310
 2395TIP3   OH228599   3.662   1.581  15.524 -0.4054  0.2180 -0.1698
 2395TIP3    H128600   3.636   1.555  15.436 -0.3943  1.1803 -0.4669
 2395TIP3    H228601   3.722   1.654  15.511 -1.0521  0.9253  0.6577
 2396TIP3   OH228602   4.634   1.404   0.624  0.1237  0.2187 -0.2153
 2396TIP3    H128603   4.559   1.460   0.604  0.9618  1.4923  0.0662
 2396TIP3    H228604   4.708   1.447   0.580  0.6257 -1.2864 -0.9156
 2397TIP3   OH228605   4.668   1.472  12.698 -0.5026  0.3141  0.0270
 2397TIP3    H128606   4.610   1.533  12.654 -0.8361 -1.3440 -1.9837
 2397TIP3    H228607   4.610   1.411  12.743 -0.2055  0.6665  0.9117
 2398TIP3   OH228608   5.198   0.578  13.917  0.1104  0.2361  0.4536
 2398TIP3    H128609   5.285   0.619  13.915  0.3746 -0.3515 -0.7603
 2398TIP3    H228610   5.148   0.624  13.849  0.1959 -0.9613 -0.4372
 2399TIP3   OH228611   0.999   3.911   6.148 -0.1356  0.2457  0.0111
 2399TIP3    H128612   1.035   3.999   6.154  0.6632 -0.1515  1.3692
 2399TIP3    H228613   0.992   3.881   6.239 -0.2419 -1.1459 -0.4262
 2400TIP3   OH228614   5.514   4.152   4.682 -0.5886 -0.3362 -0.0493
 2400TIP3    H128615   5.461   4.230   4.664  0.4809  0.5955  0.7181
 2400TIP3    H228616   5.481   4.119   4.766 -0.4386 -0.1787  0.0717
 2401TIP3   OH228617   0.449   4.459  12.283 -0.0145  0.0133 -0.0925
 2401TIP3    H128618   0.492   4.538  12.250 -1.6170  0.7189 -0.5913
 2401TIP3    H228619   0.423   4.482  12.372  1.7223 -0.8741  0.7013
 2402TIP3   OH228620   0.453   1.191  13.191 -0.5814  0.0270 -0.2748
 2402TIP3    H128621   0.436   1.284  13.175  0.7030  0.2904 -0.1662
 2402TIP3    H228622   0.430   1.179  13.283  0.9312  0.6760  0.2241
 2403TIP3   OH228623   1.210   1.835   3.181  0.0963 -0.1977 -0.2401
 2403TIP3    H128624   1.293   1.878   3.198 -1.5150  2.9800  0.3665
 2403TIP3    H228625   1.151   1.906   3.154 -2.4123 -2.2960 -0.7381
 2404TIP3   OH228626   4.494   4.999   5.568  0.2788  0.0458 -0.2050
 2404TIP3    H128627   4.546   5.047   5.503  0.1517  0.7229  0.1856
 2404TIP3    H228628   4.524   4.908   5.560  1.5021  0.4139 -0.0112
 2405TIP3   OH228629   2.563   6.152  14.986  0.3483 -0.3561  0.1511
 2405TIP3    H128630   2.542   6.082  15.047  1.6551 -1.3894 -0.5435
 2405TIP3    H228631   2.644   6.191  15.020 -0.6184  1.2066  0.8135
 2406TIP3   OH228632   6.167   6.219  16.754 -0.1155  0.7338  0.3392
 2406TIP3    H128633   6.114   6.222  16.834  0.9881 -1.8268  1.2747
 2406TIP3    H228634   6.256   6.200  16.784 -0.0712 -2.8230 -1.4604
 2407TIP3   OH228635   0.939   1.070   5.781 -0.0656 -0.2863  0.0840
 2407TIP3    H128636   0.877   0.998   5.785  1.1060 -1.2837  3.3375
 2407TIP3    H228637   1.013   1.035   5.732  0.5061 -1.4121  1.6597
 2408TIP3   OH228638   2.947   6.340   0.768 -0.4330 -0.1902 -0.4765
 2408TIP3    H128639   3.042   6.347   0.770 -0.3710 -0.8740 -0.8582
 2408TIP3    H228640   2.929   6.271   0.704 -1.0811 -2.1581  1.7042
 2409TIP3   OH228641   2.460   4.389  12.896  0.3729  0.4698  0.2917
 2409TIP3    H128642   2.530   4.419  12.839 -0.1948 -0.4738 -0.9327
 2409TIP3    H228643   2.503   4.332  12.959  0.6626 -0.3980 -0.6832
 2410TIP3   OH228644   4.097   2.350   3.496  0.4210 -0.2153  0.4617
 2410TIP3    H128645   4.071   2.276   3.442  2.9127 -1.2138  0.5366
 2410TIP3    H228646   4.113   2.312   3.583  0.5643  0.6383  0.8227
 2411TIP3   OH228647   3.690   4.003  15.514 -0.0183  0.0871  0.1130
 2411TIP3    H128648   3.616   4.040  15.562 -0.1868 -1.2032  0.9058
 2411TIP3    H228649   3.650   3.954  15.442  0.1309  0.2282 -0.0692
 2412TIP3   OH228650   6.155   3.272   0.338  0.1803 -0.6441 -0.2899
 2412TIP3    H128651   6.217   3.335   0.301  0.9489 -0.0351  1.9159
 2412TIP3    H228652   6.074   3.322   0.350  0.6536 -0.1703  1.0364
 2413TIP3   OH228653   6.469   1.434  16.871  0.3936  0.2552  0.1560
 2413TIP3    H128654   6.535   1.458  16.936  1.8378 -0.9379 -0.8037
 2413TIP3    H228655   6.406   1.380  16.919  1.1260 -0.1349  0.6906
 2414TIP3   OH228656   4.599   6.592  14.167  0.1152  0.4186  0.0151
 2414TIP3    H128657   4.569   6.527  14.230 -1.9040  1.5412  0.2821
 2414TIP3    H228658   4.633   6.540  14.094 -3.5976 -1.1544 -0.8620
 2415TIP3   OH228659   3.766   0.756  15.954  0.3948 -1.1676 -0.3723
 2415TIP3    H128660   3.808   0.819  15.895 -0.9436 -1.6515 -1.9187
 2415TIP3    H228661   3.823   0.680  15.953  1.8442 -0.1706  1.2347
 2416TIP3   OH228662   2.301   4.838  14.733 -0.6146  0.1628  0.4805
 2416TIP3    H128663   2.263   4.836  14.645  2.8287 -1.0067 -1.1703
 2416TIP3    H228664   2.263   4.762  14.777  0.7783 -1.9123 -1.6321
 2417TIP3   OH228665   0.157   2.251  16.086 -0.7395  0.2102  0.0937
 2417TIP3    H128666   0.223   2.319  16.098 -0.9168  0.4342 -0.1695
 2417TIP3    H228667   0.168   2.193  16.161 -0.3922  0.3693  0.1679
 2418TIP3   OH228668   6.567   5.628  12.283  0.2445  0.6511 -0.0708
 2418TIP3    H128669   6.590   5.713  12.320 -0.0053  0.4952  0.4373
 2418TIP3    H228670   6.537   5.649  12.194 -2.4595  1.4157  0.9288
 2419TIP3   OH228671   5.531   3.415   3.913  0.6986 -0.4534  0.2509
 2419TIP3    H128672   5.482   3.333   3.915  0.4407 -0.2969  0.3411
 2419TIP3    H228673   5.472   3.480   3.951 -0.1318  0.3223 -2.1999
 2420TIP3   OH228674   0.066   4.426   4.122 -0.6418  0.1422  0.0113
 2420TIP3    H128675  -0.017   4.440   4.077 -0.7766 -2.1077 -0.5813
 2420TIP3    H228676   0.042   4.404   4.212 -0.9938 -3.1723 -0.7640
 2421TIP3   OH228677   5.446   6.698   6.016 -0.5900  0.0456 -0.3935
 2421TIP3    H128678   5.383   6.673   6.084 -0.9181 -0.4012 -0.8596
 2421TIP3    H228679   5.531   6.694   6.060 -0.4443 -3.1350 -0.7222
 2422TIP3   OH228680   3.871   5.067   0.066 -0.0812  0.4111 -0.1011
 2422TIP3    H128681   3.966   5.078   0.064 -0.1159  0.9570 -2.6272
 2422TIP3    H228682   3.837   5.153   0.089  0.0394  0.6438 -0.7568
 2423TIP3   OH228683   0.564   6.060  15.791 -0.3216  0.4612  0.1532
 2423TIP3    H128684   0.473   6.031  15.797 -0.3581  0.6279  0.3733
 2423TIP3    H228685   0.585   6.051  15.697  0.6135 -3.1811  0.5422
 2424TIP3   OH228686   1.241   3.208   5.437 -0.5832  0.2866  0.0998
 2424TIP3    H128687   1.287   3.259   5.504 -1.4778  1.3391 -0.0672
 2424TIP3    H228688   1.248   3.118   5.468  0.8797  0.5004  0.4905
 2425TIP3   OH228689   1.100   3.904   3.578 -0.0217  0.2591  0.0897
 2425TIP3    H128690   1.053   3.973   3.531  1.8373  1.2031 -0.4783
 2425TIP3    H228691   1.078   3.824   3.531 -0.1624  0.8357 -0.8460
 2426TIP3   OH228692   2.272   4.361  13.650 -0.1574 -0.1979  0.2262
 2426TIP3    H128693   2.246   4.318  13.732 -0.0286 -1.2117 -0.2441
 2426TIP3    H228694   2.277   4.290  13.586  1.6113  0.2782 -0.2257
 2427TIP3   OH228695   0.402   6.778  13.326 -0.1559 -0.6877 -0.4350
 2427TIP3    H128696   0.326   6.772  13.383  0.0877 -1.4328 -0.1848
 2427TIP3    H228697   0.466   6.719  13.365  0.4008 -0.3910 -0.8820
 2428TIP3   OH228698   2.043   0.673  12.478 -0.4247  0.1026  0.1322
 2428TIP3    H128699   2.019   0.748  12.423  0.2742 -0.1351 -0.5323
 2428TIP3    H228700   2.085   0.712  12.554 -0.2628  0.4018 -0.1037
 2429TIP3   OH228701   4.116   1.542  12.988  0.1092  0.7374 -0.0813
 2429TIP3    H128702   4.027   1.544  13.022 -0.1550  0.9388 -0.7710
 2429TIP3    H228703   4.130   1.452  12.959  0.2278  0.6391  0.2809
 2430TIP3   OH228704   3.142   4.280   1.596  0.4694  0.4341 -0.1114
 2430TIP3    H128705   3.218   4.224   1.610 -0.7668 -1.0350  0.9856
 2430TIP3    H228706   3.117   4.310   1.684 -0.3237  0.7568 -0.4332
 2431TIP3   OH228707   0.669   1.861   6.448  0.0517 -0.6124 -0.4574
 2431TIP3    H128708   0.644   1.779   6.406 -1.2812 -0.3621 -0.1910
 2431TIP3    H228709   0.613   1.866   6.526 -0.0352  0.6413 -0.5775
 2432TIP3   OH228710   3.475   6.192   3.415  0.0934 -0.1168 -0.2544
 2432TIP3    H128711   3.405   6.144   3.371  0.8028  1.1688 -2.9666
 2432TIP3    H228712   3.551   6.183   3.357  1.0393  1.8661  0.5720
 2433TIP3   OH228713   0.642   0.796   6.129 -0.1211 -0.0652 -0.5347
 2433TIP3    H128714   0.570   0.733   6.121  0.1258 -0.4860  0.3788
 2433TIP3    H228715   0.717   0.743   6.156  0.8938  0.1615 -2.7050
 2434TIP3   OH228716   0.351   6.113   0.167 -0.1561 -0.6232 -0.2105
 2434TIP3    H128717   0.316   6.171   0.100 -1.9543 -1.3027  0.0776
 2434TIP3    H228718   0.387   6.039   0.119  2.2426  0.6916 -0.5861
 2435TIP3   OH228719   6.006   0.478  16.936 -0.0907 -0.0896  0.2644
 2435TIP3    H128720   5.955   0.460  17.015  0.3349  0.1190  0.5968
 2435TIP3    H228721   6.091   0.436  16.953 -0.1078 -0.3217 -0.2214
 2436TIP3   OH228722   1.525   5.663   3.479 -0.0411  0.1901 -0.2808
 2436TIP3    H128723   1.463   5.635   3.412 -1.4987  0.3452  0.9478
 2436TIP3    H228724   1.548   5.583   3.525 -1.0879  0.4101  0.6704
 2437TIP3   OH228725   2.089   3.515   4.694  0.4728  0.4157  0.2386
 2437TIP3    H128726   2.162   3.553   4.645  1.5663 -0.4501  1.1173
 2437TIP3    H228727   2.121   3.429   4.722 -0.8811  0.0294  0.6886
 2438TIP3   OH228728   0.169   3.369   2.864  0.4696  0.0515 -0.1314
 2438TIP3    H128729   0.201   3.320   2.939  1.6675 -0.3265 -0.8626
 2438TIP3    H228730   0.209   3.327   2.788 -0.3878  0.6739 -0.9563
 2439TIP3   OH228731   3.635   0.356  14.423  0.4861  0.2028  0.0190
 2439TIP3    H128732   3.619   0.388  14.334  5.0013  3.4289  0.0330
 2439TIP3    H228733   3.687   0.277  14.411  0.1852  0.0314 -0.1751
 2440TIP3   OH228734   3.289   3.493  10.780 -0.1739  0.4492  0.1479
 2440TIP3    H128735   3.381   3.479  10.761 -0.4678 -1.0389 -0.3427
 2440TIP3    H228736   3.279   3.467  10.872 -0.6548 -2.6641 -0.6701
 2441TIP3   OH228737   5.035   5.974   1.093  0.1043  0.5079  0.3876
 2441TIP3    H128738   4.970   6.041   1.115  1.2149  1.3138  1.3142
 2441TIP3    H228739   5.085   6.012   1.021  1.5897  1.3051  1.7701
 2442TIP3   OH228740   0.732   2.198   1.331 -0.2346  0.0910  0.5641
 2442TIP3    H128741   0.789   2.274   1.316  1.9065 -1.4998  0.1565
 2442TIP3    H228742   0.741   2.179   1.424  1.5042 -1.2943  0.1621
 2443TIP3   OH228743   2.245   3.749  10.477  0.0427 -0.0694  0.3304
 2443TIP3    H128744   2.217   3.696  10.551  0.2351 -0.0719  0.4005
 2443TIP3    H228745   2.164   3.789  10.445 -0.2202 -1.0007 -0.1999
 2444TIP3   OH228746   5.028   5.615   1.589 -0.2837  0.2199  0.0351
 2444TIP3    H128747   4.971   5.663   1.649 -1.1424  0.5119 -0.9781
 2444TIP3    H228748   4.974   5.543   1.557  0.1887  0.0178 -0.3211
 2445TIP3   OH228749   1.756   0.948   4.607 -0.3652 -0.4059  0.1506
 2445TIP3    H128750   1.665   0.978   4.611  0.0182  1.4692 -2.4801
 2445TIP3    H228751   1.772   0.935   4.513  2.1993 -0.3521  0.5193
 2446TIP3   OH228752   2.360   1.428  12.043 -0.5034  0.2358 -0.0298
 2446TIP3    H128753   2.444   1.382  12.051 -0.5377  0.1606 -0.0934
 2446TIP3    H228754   2.296   1.364  12.074 -0.5497  0.2482 -0.1016
 2447TIP3   OH228755   2.806   4.435   3.384  0.3304 -0.2599  0.0437
 2447TIP3    H128756   2.872   4.466   3.322  1.2023  1.1710  1.5857
 2447TIP3    H228757   2.826   4.482   3.465 -1.0455 -1.6951  1.2828
 2448TIP3   OH228758   3.508   4.180   3.466  0.3502 -0.1237 -0.6239
 2448TIP3    H128759   3.447   4.194   3.539  0.2031 -1.6662 -0.4096
 2448TIP3    H228760   3.532   4.087   3.474  2.9397  0.4992 -0.5587
 2449TIP3   OH228761   0.964   6.613   5.454 -0.6260  0.0011 -0.5709
 2449TIP3    H128762   0.938   6.540   5.510  0.2173 -0.8441 -1.2683
 2449TIP3    H228763   0.993   6.573   5.373 -0.8570  1.1605 -1.2466
 2450TIP3   OH228764   3.363   4.496   4.238 -0.6375 -0.1724 -0.0910
 2450TIP3    H128765   3.395   4.460   4.320  0.2725  0.6906 -0.0509
 2450TIP3    H228766   3.315   4.575   4.264 -0.1074  0.2584 -0.3946
 2451TIP3   OH228767   5.560   5.553  11.285 -0.2759  0.2040 -0.0947
 2451TIP3    H128768   5.580   5.623  11.347 -0.4883 -1.0147  1.3956
 2451TIP3    H228769   5.464   5.549  11.284 -0.2559 -0.9739  0.9171
 2452TIP3   OH228770   2.509   6.499  12.990 -0.2251  0.2267  0.6156
 2452TIP3    H128771   2.594   6.465  12.962  1.3095  1.1855  3.6054
 2452TIP3    H228772   2.531   6.569  13.052 -3.2363  1.9157 -0.0270
 2453TIP3   OH228773   1.807   2.469  11.814  0.2137 -0.1341  0.2142
 2453TIP3    H128774   1.723   2.457  11.860 -0.5485 -2.5469 -1.5455
 2453TIP3    H228775   1.788   2.533  11.746  0.0903  0.1060  0.4732
 2454TIP3   OH228776   6.772   3.291   1.623  0.2807 -0.3405 -0.1044
 2454TIP3    H128777   6.825   3.369   1.639 -0.6489  0.3790 -0.4405
 2454TIP3    H228778   6.784   3.237   1.701 -1.2435  1.4133  1.4592
 2455TIP3   OH228779   1.496   6.486  16.751  0.2980  0.2239 -0.1091
 2455TIP3    H128780   1.527   6.409  16.799 -1.7486 -0.8432 -0.3963
 2455TIP3    H228781   1.448   6.537  16.816  0.0736  0.3132 -0.3441
 2456TIP3   OH228782   4.823   2.580  13.235  0.3410 -0.5133 -0.3437
 2456TIP3    H128783   4.839   2.659  13.287  0.1523 -0.0858 -0.9356
 2456TIP3    H228784   4.744   2.542  13.273 -1.3292  1.1815 -1.9135
 2457TIP3   OH228785   2.632   2.300  13.515  0.3168 -0.3126 -0.1112
 2457TIP3    H128786   2.651   2.371  13.454 -0.1144  0.2719  0.4183
 2457TIP3    H228787   2.710   2.245  13.513  1.1895  0.8681  0.4141
 2458TIP3   OH228788   5.413   4.254   5.844  1.1951  0.1731 -0.0535
 2458TIP3    H128789   5.319   4.239   5.852  1.1745 -0.3917 -1.1014
 2458TIP3    H228790   5.442   4.276   5.932  0.0219  0.7018  0.2158
 2459TIP3   OH228791   3.480   6.361  11.063 -0.8158  0.4530 -0.8393
 2459TIP3    H128792   3.529   6.443  11.073  1.3410 -0.6723 -1.5208
 2459TIP3    H228793   3.537   6.306  11.009 -2.6578 -1.1451 -1.2442
 2460TIP3   OH228794   0.719   6.349  14.791  0.2543 -0.0360 -0.1434
 2460TIP3    H128795   0.787   6.406  14.829 -0.8877  2.0169 -1.0019
 2460TIP3    H228796   0.665   6.324  14.866  1.3416 -0.8566  0.3943
 2461TIP3   OH228797   4.540   1.473   1.152  0.2120 -0.0827  0.4476
 2461TIP3    H128798   4.495   1.470   1.237 -1.1233 -0.6446 -0.2636
 2461TIP3    H228799   4.473   1.448   1.088  1.8096 -2.0648 -0.5514
 2462TIP3   OH228800   3.827   1.891   4.999 -0.1814 -0.3142  0.3097
 2462TIP3    H128801   3.868   1.805   5.003 -0.6548 -0.5560  0.1143
 2462TIP3    H228802   3.872   1.943   5.065  0.4232 -0.5723  0.1037
 2463TIP3   OH228803   3.002   1.195  16.870  0.6572 -0.2714 -0.0783
 2463TIP3    H128804   3.000   1.261  16.800  0.3526  0.2203  0.3846
 2463TIP3    H228805   3.064   1.129  16.839  0.8205  0.1365 -0.6393
 2464TIP3   OH228806   0.781   1.129   3.008 -0.1689  0.3040  0.1816
 2464TIP3    H128807   0.716   1.124   2.938  0.0166  0.5186 -0.0095
 2464TIP3    H228808   0.790   1.223   3.025 -1.1052  0.1987  1.3403
 2465TIP3   OH228809   0.561   4.959  14.058 -0.1637 -0.5353 -0.3961
 2465TIP3    H128810   0.567   5.028  13.992 -2.5513 -0.6251 -0.8249
 2465TIP3    H228811   0.475   4.973  14.099  0.9009 -0.9754  2.1682
 2466TIP3   OH228812   5.584   4.567  12.281 -0.2522 -0.2775  0.0377
 2466TIP3    H128813   5.582   4.611  12.196  1.1350 -0.5244 -0.1430
 2466TIP3    H228814   5.651   4.499  12.272 -0.5084 -0.7025  1.1439
 2467TIP3   OH228815   3.956   6.522  15.811  0.5091  0.0136  0.2451
 2467TIP3    H128816   4.018   6.450  15.818 -1.2637 -1.8033 -1.4040
 2467TIP3    H228817   4.007   6.593  15.770  2.3345 -0.1577  2.0720
 2468TIP3   OH228818   0.014   5.379   1.192 -0.3809 -0.1753 -0.4065
 2468TIP3    H128819   0.046   5.463   1.225 -0.1118 -0.9755  1.5171
 2468TIP3    H228820  -0.008   5.329   1.271 -1.1622 -1.6721 -1.5202
 2469TIP3   OH228821   1.897   2.899  11.885 -0.4857  0.0717 -0.1281
 2469TIP3    H128822   1.859   2.974  11.839  1.3249  0.9355 -0.2970
 2469TIP3    H228823   1.842   2.889  11.963 -0.9865  1.3440 -0.2891
 2470TIP3   OH228824   0.487   4.178  12.792  0.5324  0.7888  0.0313
 2470TIP3    H128825   0.514   4.263  12.757 -0.0388  1.0463  0.2038
 2470TIP3    H228826   0.550   4.116  12.755 -0.7227  0.8619 -2.4175
 2471TIP3   OH228827   6.647   1.407  11.456  0.0919 -0.2635  0.6841
 2471TIP3    H128828   6.725   1.452  11.424 -0.5999 -0.4069 -1.3422
 2471TIP3    H228829   6.659   1.316  11.426 -0.9717 -0.2134  0.0653
 2472TIP3   OH228830   4.778   3.974   2.874  0.2430  0.2326 -0.1860
 2472TIP3    H128831   4.817   3.943   2.956 -0.7125 -1.9860 -0.5005
 2472TIP3    H228832   4.833   3.936   2.805  0.0425  0.6860 -0.6051
 2473TIP3   OH228833   4.354   2.671   0.037  0.0726 -0.1197  0.5868
 2473TIP3    H128834   4.374   2.591  -0.012  0.9519 -0.7348  1.8896
 2473TIP3    H228835   4.440   2.705   0.064 -0.3304  0.8485  0.7103
 2474TIP3   OH228836   3.122   6.771  14.176 -0.4549  0.9017 -0.6483
 2474TIP3    H128837   3.058   6.818  14.122 -1.8714 -0.5527 -0.3037
 2474TIP3    H228838   3.197   6.758  14.117 -0.7482  1.9916 -1.2984
 2475TIP3   OH228839   5.894   5.030   6.213  0.4938 -0.3277 -0.1554
 2475TIP3    H128840   5.963   5.049   6.277  0.6938 -0.2840 -0.3825
 2475TIP3    H228841   5.855   4.948   6.244  0.0059  0.1487  0.5066
 2476TIP3   OH228842   3.764   2.841   0.512 -0.7296 -0.0202  0.0501
 2476TIP3    H128843   3.694   2.856   0.575 -1.5098  2.6283 -1.2891
 2476TIP3    H228844   3.837   2.894   0.545 -0.7961  0.5542 -0.7071
 2477TIP3   OH228845   4.211   1.727  15.241  0.0413 -0.6305  0.3088
 2477TIP3    H128846   4.211   1.639  15.280  1.0223 -0.9720 -0.4245
 2477TIP3    H228847   4.206   1.786  15.316 -2.1540 -1.2844  0.7791
 2478TIP3   OH228848   0.538   1.601  12.033 -0.4126  0.1171 -0.3893
 2478TIP3    H128849   0.578   1.602  11.945 -1.3075 -2.8034 -0.9505
 2478TIP3    H228850   0.456   1.553  12.021 -0.2251 -1.0021  2.1443
 2479TIP3   OH228851   2.191   4.865   0.761  0.2993 -0.3381  0.0817
 2479TIP3    H128852   2.281   4.857   0.731  0.2848 -0.0510 -0.0345
 2479TIP3    H228853   2.174   4.959   0.763 -0.0564 -0.3987 -0.0717
 2480TIP3   OH228854   6.430   5.724   6.711 -0.2431 -0.1586 -0.6176
 2480TIP3    H128855   6.445   5.631   6.694 -1.9519 -0.4475 -0.7811
 2480TIP3    H228856   6.343   5.741   6.675 -0.4101  1.2571  0.3716
 2481TIP3   OH228857   6.225   2.339   2.028  0.7037 -0.2523  0.0161
 2481TIP3    H128858   6.295   2.396   1.997 -1.0335  1.1144 -1.6811
 2481TIP3    H228859   6.197   2.379   2.111  0.2589  0.7689 -0.5939
 2482TIP3   OH228860   4.695   3.796  15.322  0.0669  0.4911 -0.6315
 2482TIP3    H128861   4.653   3.820  15.240 -1.3132 -1.0679 -0.4308
 2482TIP3    H228862   4.626   3.754  15.373  1.2522  0.1488  0.7664
 2483TIP3   OH228863   0.277   2.912   0.185 -0.5347 -0.1574  0.4181
 2483TIP3    H128864   0.265   3.007   0.186  0.7065  0.0336 -0.2890
 2483TIP3    H228865   0.245   2.883   0.270 -1.9302  0.7461  0.2449
 2484TIP3   OH228866   4.833   6.556  13.754  0.3727 -0.5589 -0.1286
 2484TIP3    H128867   4.923   6.538  13.726 -0.3166 -2.7082 -1.1052
 2484TIP3    H228868   4.784   6.567  13.673 -0.0641  2.0096  0.3908
 2485TIP3   OH228869   4.395   2.745   4.513  0.6328  0.1366  0.4754
 2485TIP3    H128870   4.477   2.788   4.489  0.5127  0.5452  0.7833
 2485TIP3    H228871   4.358   2.715   4.430 -0.3321  2.5182 -0.0274
 2486TIP3   OH228872   1.699   1.608   5.120  0.3231  0.0640  0.4328
 2486TIP3    H128873   1.765   1.624   5.187 -0.1103  0.1824  0.8377
 2486TIP3    H228874   1.747   1.564   5.049  0.4347 -1.8117  1.6091
 2487TIP3   OH228875   4.157   3.579  10.490 -0.1610 -0.2558 -0.3547
 2487TIP3    H128876   4.159   3.486  10.514 -1.2245 -0.3170 -0.4745
 2487TIP3    H228877   4.127   3.624  10.570  1.5838  0.1572  0.1290
 2488TIP3   OH228878   3.016   0.986   2.657 -0.0232 -0.2604  0.0042
 2488TIP3    H128879   2.950   1.019   2.719  0.5605  1.0448 -0.0315
 2488TIP3    H228880   3.085   0.951   2.713  0.0875  0.0729  0.0790
 2489TIP3   OH228881   0.003   2.519  11.827 -0.2553  0.8460 -0.1225
 2489TIP3    H128882  -0.047   2.441  11.850  2.2879 -0.7402  0.5061
 2489TIP3    H228883  -0.003   2.524  11.732 -0.3075 -0.2387 -0.1890
 2490TIP3   OH228884   5.682   1.642   2.317  0.0880 -0.9375  0.0200
 2490TIP3    H128885   5.744   1.664   2.248  0.3624 -0.3923  0.4331
 2490TIP3    H228886   5.609   1.599   2.271  0.3365 -0.7224 -0.5835
 2491TIP3   OH228887   4.549   4.386  13.508  0.2621 -0.0541  0.2159
 2491TIP3    H128888   4.596   4.429  13.436 -2.3652  0.9222 -1.0481
 2491TIP3    H228889   4.551   4.450  13.579  1.5092 -0.3800  0.5093
 2492TIP3   OH228890   4.559   0.811   4.341 -0.2384  0.1895  0.7070
 2492TIP3    H128891   4.569   0.717   4.358 -2.9223 -0.1497  0.7546
 2492TIP3    H228892   4.485   0.838   4.394 -1.5849  1.6009 -1.7262
 2493TIP3   OH228893   6.509   5.404  15.970 -0.2814 -0.6537 -0.4004
 2493TIP3    H128894   6.421   5.381  15.939 -0.8398 -0.2485  0.8400
 2493TIP3    H228895   6.524   5.492  15.935 -0.7318 -0.3720  0.0950
 2494TIP3   OH228896   5.116   2.195  17.117  0.0981 -0.4568 -0.2801
 2494TIP3    H128897   5.051   2.235  17.175  0.1898  1.1494 -1.2197
 2494TIP3    H228898   5.193   2.252  17.124  0.4602 -0.8086 -1.2004
 2495TIP3   OH228899   0.132   1.720  16.496 -0.2719 -0.7333 -0.0488
 2495TIP3    H128900   0.205   1.665  16.469  0.3440 -0.4644  0.9953
 2495TIP3    H228901   0.152   1.744  16.587 -0.3068  1.5024 -0.5670
 2496TIP3   OH228902   0.684   4.087  15.040  0.6615 -0.1130 -0.6557
 2496TIP3    H128903   0.713   4.058  15.126 -0.0663  1.5140  0.1658
 2496TIP3    H228904   0.621   4.157  15.057  1.8628  1.5220 -2.5423
 2497TIP3   OH228905   2.107   5.884   0.506  0.3830 -0.6013 -0.0608
 2497TIP3    H128906   2.032   5.918   0.554  0.9740 -1.7803  1.8250
 2497TIP3    H228907   2.169   5.957   0.503 -0.4873  0.1291 -0.9304
 2498TIP3   OH228908   6.506   3.940  13.650  0.1429  0.2354  0.2267
 2498TIP3    H128909   6.539   3.997  13.580  0.2216 -1.2574 -1.0026
 2498TIP3    H228910   6.411   3.937  13.635  0.1647 -0.1251  0.1584
 2499TIP3   OH228911   4.287   3.116   1.741  0.5776  0.2249 -0.3289
 2499TIP3    H128912   4.215   3.114   1.804  0.1102 -1.8434 -0.8280
 2499TIP3    H228913   4.349   3.178   1.777 -0.9946  1.3118  0.6408
 2500TIP3   OH228914   3.397   2.282   3.500  0.0705  0.4900 -0.0691
 2500TIP3    H128915   3.328   2.343   3.476  1.0757  1.0188 -1.7642
 2500TIP3    H228916   3.403   2.221   3.426 -0.8722 -1.7154  1.5404
 2501TIP3   OH228917   0.526   6.357  12.694 -0.0428 -0.5047  0.1423
 2501TIP3    H128918   0.613   6.351  12.655 -0.3887  0.7503 -0.8763
 2501TIP3    H228919   0.524   6.442  12.737 -1.0650 -0.1002 -0.6576
 2502TIP3   OH228920   4.076   1.903   3.174 -0.0557 -0.0472 -0.4537
 2502TIP3    H128921   4.044   1.816   3.151  1.1606 -0.2559 -1.4820
 2502TIP3    H228922   4.060   1.911   3.268  0.9953 -1.9086 -0.0902
 2503TIP3   OH228923   3.184   1.860  13.557 -0.2606 -0.2471 -0.4756
 2503TIP3    H128924   3.176   1.824  13.469  1.6301 -1.5386 -0.1740
 2503TIP3    H228925   3.100   1.902  13.573 -0.7309 -0.1667 -2.7977
 2504TIP3   OH228926   4.186   0.303   4.408  0.1356  0.2164  0.0697
 2504TIP3    H128927   4.190   0.393   4.440  2.7247  0.2687 -0.2519
 2504TIP3    H228928   4.153   0.253   4.482  3.4159  0.7310  2.0505
 2505TIP3   OH228929   5.276   1.332  15.270 -0.0408 -0.3065  0.2747
 2505TIP3    H128930   5.191   1.325  15.225  0.7824  0.8659 -1.6267
 2505TIP3    H228931   5.258   1.387  15.346 -1.1001 -0.5968  0.2585
 2506TIP3   OH228932   2.404   6.180   2.444  0.1489 -0.7722  0.5346
 2506TIP3    H128933   2.436   6.149   2.359 -1.0907  1.2528 -0.7313
 2506TIP3    H228934   2.449   6.263   2.457 -2.3602  0.7472  0.0442
 2507TIP3   OH228935   3.305   3.893  11.163 -0.2136 -0.5318 -0.3314
 2507TIP3    H128936   3.294   3.861  11.253  0.3396 -0.8298 -0.3655
 2507TIP3    H228937   3.243   3.841  11.112 -0.5360 -0.3567 -0.1284
 2508TIP3   OH228938   0.533   6.013  13.964 -0.4282  0.2510  0.8519
 2508TIP3    H128939   0.483   6.070  13.905  1.1883 -0.5651 -1.4484
 2508TIP3    H228940   0.617   6.057  13.974 -0.3014 -0.1680  1.7125
 2509TIP3   OH228941   4.605   4.921  13.263 -0.0020 -0.1987 -0.8749
 2509TIP3    H128942   4.541   4.911  13.334 -2.0528 -1.5266 -2.8026
 2509TIP3    H228943   4.689   4.906  13.306 -1.1628 -1.2835  1.2353
 2510TIP3   OH228944   6.350   0.090  13.495  0.1503 -0.5451  0.1400
 2510TIP3    H128945   6.432   0.076  13.449  0.1709 -0.2795  0.0916
 2510TIP3    H228946   6.307   0.005  13.495 -0.1785 -0.3988 -1.0059
 2511TIP3   OH228947   5.740   6.600   3.793  0.3891  0.5251 -0.4930
 2511TIP3    H128948   5.796   6.582   3.717  0.3906 -1.7969 -0.0067
 2511TIP3    H228949   5.668   6.538   3.786  0.1481  0.5597  1.1648
 2512TIP3   OH228950   0.229   0.247   2.803 -0.0926 -0.0756 -0.3229
 2512TIP3    H128951   0.245   0.155   2.824 -1.0268 -0.3235 -0.6546
 2512TIP3    H228952   0.134   0.254   2.799 -0.0221  0.8746 -0.4456
 2513TIP3   OH228953   1.962   0.736   0.278  0.5958  0.0725 -0.1825
 2513TIP3    H128954   1.982   0.703   0.191 -2.1052  0.9018 -1.2034
 2513TIP3    H228955   1.926   0.660   0.324 -0.8351  0.3234 -0.8426
 2514TIP3   OH228956   6.751   5.314   1.960 -0.4057 -0.7170 -0.1562
 2514TIP3    H128957   6.695   5.308   2.037  0.2370 -1.0163  0.2969
 2514TIP3    H228958   6.794   5.399   1.968 -1.8276  0.1406 -1.2370
 2515TIP3   OH228959   0.004   3.493  11.576  0.5321 -0.2851  0.0654
 2515TIP3    H128960   0.063   3.426  11.612  2.7390  1.8179  0.6150
 2515TIP3    H228961  -0.043   3.527  11.652  0.2882 -0.3773 -0.0417
 2516TIP3   OH228962   2.353   3.006  12.358 -0.6663  0.1277  0.4437
 2516TIP3    H128963   2.439   3.041  12.381 -1.0954  0.7760  1.1063
 2516TIP3    H228964   2.337   3.039  12.269  0.5519 -1.5403 -0.4663
 2517TIP3   OH228965   1.028   0.339   2.500 -0.2474 -0.1962  0.3644
 2517TIP3    H128966   1.006   0.423   2.540 -0.7008 -0.7748  1.3759
 2517TIP3    H228967   1.058   0.285   2.573  1.5667 -0.4399 -0.4967
 2518TIP3   OH228968   3.941   2.132  12.689 -0.1936 -0.3869 -0.3168
 2518TIP3    H128969   4.036   2.122  12.697 -0.0775 -0.0688 -1.2140
 2518TIP3    H228970   3.919   2.198  12.754  0.1827 -0.5404 -0.0269
 2519TIP3   OH228971   5.336   3.231   1.938 -0.4145 -0.3068  0.1372
 2519TIP3    H128972   5.386   3.180   2.001  0.6851  0.0945 -0.3864
 2519TIP3    H228973   5.268   3.274   1.990  1.9272  1.9886  1.5555
 2520TIP3   OH228974   6.169   4.397  11.239 -0.4573 -0.1163 -0.2222
 2520TIP3    H128975   6.173   4.491  11.219 -2.7007  0.3163  1.0593
 2520TIP3    H228976   6.197   4.391  11.330  3.7823 -1.3322 -1.3627
 2521TIP3   OH228977   5.939   2.827  11.051 -0.2529  0.0363  0.0323
 2521TIP3    H128978   6.016   2.770  11.058 -1.4827 -1.5822  0.8549
 2521TIP3    H228979   5.895   2.800  10.971 -1.4157 -0.9548  0.9736
 2522TIP3   OH228980   1.068   1.947  13.499 -0.0972 -0.1094 -0.0932
 2522TIP3    H128981   1.015   1.960  13.577 -0.7933 -1.2784 -0.3541
 2522TIP3    H228982   1.083   1.852  13.495 -1.4784 -0.2991 -2.2742
 2523TIP3   OH228983   3.080   0.226  15.617  0.2665  0.1161 -0.1819
 2523TIP3    H128984   2.995   0.229  15.661 -0.4675  0.3750 -1.5746
 2523TIP3    H228985   3.073   0.289  15.545  1.8638  0.6070  0.0539
 2524TIP3   OH228986   4.415   4.234  14.627  0.0574  0.0599 -0.3171
 2524TIP3    H128987   4.500   4.225  14.584 -0.3668  1.1744 -1.4543
 2524TIP3    H228988   4.352   4.231  14.556 -0.6402  2.6226  0.0937
 2525TIP3   OH228989   3.851   3.444   5.359  0.1871  0.1484 -0.2526
 2525TIP3    H128990   3.929   3.391   5.346  2.4364  3.1838 -0.4612
 2525TIP3    H228991   3.858   3.514   5.294 -1.6965  1.6010  0.9772
 2526TIP3   OH228992   5.804   2.778  15.977  0.0679 -0.1537 -0.0686
 2526TIP3    H128993   5.876   2.836  16.002 -0.4535  0.2330  0.5714
 2526TIP3    H228994   5.830   2.742  15.892  1.4276 -0.7240  0.5719
 2527TIP3   OH228995   6.572   1.732  15.042 -0.2794  0.4354  0.2108
 2527TIP3    H128996   6.480   1.751  15.058 -0.5464 -0.8267  0.2783
 2527TIP3    H228997   6.579   1.726  14.947 -1.0601 -2.9017  0.2533
 2528TIP3   OH228998   1.721   1.656   2.724 -0.2713  0.3896  0.0006
 2528TIP3    H128999   1.742   1.731   2.670 -1.6048  0.3438 -0.6189
 2528TIP3    H229000   1.664   1.602   2.669 -0.0082 -0.6626  0.7301
 2529TIP3   OH229001   1.369   4.909   5.432  0.9809 -0.2352 -0.1409
 2529TIP3    H129002   1.384   4.939   5.521  1.0062 -2.5140  0.6822
 2529TIP3    H229003   1.456   4.884   5.400  1.1287  1.4313 -1.2125
 2530TIP3   OH229004   5.140   5.980   4.048 -0.1370  0.4508  0.3038
 2530TIP3    H129005   5.151   5.933   4.131  0.1107  1.4926  0.8702
 2530TIP3    H229006   5.112   5.912   3.987 -2.1616 -0.0393  1.6599
 2531TIP3   OH229007   6.638   4.101   0.443 -0.3762  0.6392  0.5235
 2531TIP3    H129008   6.574   4.136   0.504  0.1784  1.9938  0.3548
 2531TIP3    H229009   6.719   4.094   0.494 -0.5810 -0.9327  0.7007
 2532TIP3   OH229010   0.246   0.833   3.959 -0.0824  0.1534 -0.2154
 2532TIP3    H129011   0.255   0.740   3.937  1.0657  0.2045  0.0094
 2532TIP3    H229012   0.198   0.833   4.042  0.2919 -0.2664  0.0053
 2533TIP3   OH229013   2.365   6.228   5.803  0.1204 -0.1279 -0.0136
 2533TIP3    H129014   2.372   6.266   5.891  0.3674 -0.1721 -0.0129
 2533TIP3    H229015   2.380   6.134   5.816  1.0167 -0.0185 -0.2145
 2534TIP3   OH229016   0.946   3.415   3.433 -0.3540  0.1365  0.1055
 2534TIP3    H129017   0.971   3.400   3.342 -0.2038 -0.4550  0.2393
 2534TIP3    H229018   1.029   3.414   3.481 -0.2215  2.2842  0.0270
 2535TIP3   OH229019   3.717   2.297  11.066 -0.5087 -0.3085  0.4385
 2535TIP3    H129020   3.704   2.385  11.031  0.2381 -0.3769 -0.0428
 2535TIP3    H229021   3.630   2.267  11.090 -0.7576  0.6095  0.7209
 2536TIP3   OH229022   2.553   3.937  14.292 -0.2954  0.2400  0.5387
 2536TIP3    H129023   2.486   3.875  14.266 -1.3222  1.1253  1.0165
 2536TIP3    H229024   2.543   3.948  14.386 -1.7914  2.9280  0.1827
 2537TIP3   OH229025   1.602   2.882  15.119  0.1144 -0.2586  0.4628
 2537TIP3    H129026   1.610   2.957  15.059  2.9864  0.7554  1.9573
 2537TIP3    H229027   1.635   2.808  15.070  1.6380  0.4043  0.4229
 2538TIP3   OH229028   6.735   0.998  11.636  0.5357  0.0619 -0.0612
 2538TIP3    H129029   6.657   0.993  11.691  0.5480 -1.8057 -0.1253
 2538TIP3    H229030   6.729   1.082  11.591 -0.8972  0.3955  0.7140
 2539TIP3   OH229031   5.477   3.580   4.870 -0.1151  0.0773 -0.0365
 2539TIP3    H129032   5.536   3.648   4.902 -1.5458  0.4752  1.9593
 2539TIP3    H229033   5.440   3.617   4.790  2.8047 -0.5130 -1.8207
 2540TIP3   OH229034   2.344   1.109   0.074 -0.3417 -0.6156  0.1061
 2540TIP3    H129035   2.437   1.132   0.065 -0.1373 -1.2564  0.5764
 2540TIP3    H229036   2.338   1.021   0.037 -0.3768 -1.3946  1.9154
 2541TIP3   OH229037   3.541   6.460  13.358 -0.5965  0.0987 -0.7278
 2541TIP3    H129038   3.478   6.516  13.314 -0.6726  1.0188  0.5194
 2541TIP3    H229039   3.604   6.521  13.397 -0.0546 -0.7294 -0.2874
 2542TIP3   OH229040   4.114   6.582  12.504  0.0767  0.4790  0.4006
 2542TIP3    H129041   4.131   6.488  12.502 -0.0660  0.4501  0.6693
 2542TIP3    H229042   4.034   6.592  12.554 -0.0998  0.7176  0.0788
 2543TIP3   OH229043   0.074   2.496  12.205 -0.2698  0.2397 -0.3058
 2543TIP3    H129044   0.078   2.505  12.109  0.9026 -0.6866 -0.3734
 2543TIP3    H229045   0.082   2.402  12.221  2.3723  0.5489  0.7531
 2544TIP3   OH229046   4.052   2.591   0.708  0.0980 -0.3966  0.4377
 2544TIP3    H129047   4.033   2.664   0.766 -1.8923  0.1492 -0.7977
 2544TIP3    H229048   3.967   2.551   0.692  0.6910 -1.0057 -1.4717
 2545TIP3   OH229049   4.186   1.380  13.673  0.0878  0.7777  0.7541
 2545TIP3    H129050   4.171   1.404  13.765 -0.6686 -0.7521  1.0614
 2545TIP3    H229051   4.244   1.449  13.640  0.3570  1.3801  2.3613
 2546TIP3   OH229052   3.509   1.570   3.536 -0.3436 -0.0330 -0.1870
 2546TIP3    H129053   3.509   1.627   3.459 -2.6359  0.7510  0.3226
 2546TIP3    H229054   3.435   1.600   3.588  0.7360 -1.0124  2.0114
 2547TIP3   OH229055   3.707   5.470  13.377 -0.1987 -0.2275  0.0025
 2547TIP3    H129056   3.690   5.562  13.395  0.7096 -0.0466  0.0093
 2547TIP3    H229057   3.686   5.425  13.459  1.8691  0.3210  0.8999
 2548TIP3   OH229058   2.291   0.766   4.912 -0.3346 -0.0556  0.7008
 2548TIP3    H129059   2.325   0.842   4.865 -0.7632  1.1887  2.3379
 2548TIP3    H229060   2.253   0.711   4.843 -0.4590  1.4351 -0.4705
 2549TIP3   OH229061   0.073   2.610   6.079 -0.5276  0.6775  0.2564
 2549TIP3    H129062   0.100   2.570   5.996 -1.5116 -0.7149  0.5696
 2549TIP3    H229063   0.058   2.536   6.138  0.6799  1.6356  1.8897
 2550TIP3   OH229064   0.212   6.770   2.916  0.1454  0.2965  0.1211
 2550TIP3    H129065   0.168   6.687   2.934  0.8674 -0.2428 -0.4991
 2550TIP3    H229066   0.304   6.753   2.936  0.4883  0.5793 -1.1175
 2551TIP3   OH229067   1.215   0.382   1.575  0.4441 -0.0804 -0.1181
 2551TIP3    H129068   1.132   0.417   1.541 -0.6154 -1.4964  0.9235
 2551TIP3    H229069   1.274   0.384   1.499 -0.3212  1.5499 -0.7224
 2552TIP3   OH229070   1.533   3.302   5.271 -0.4070  0.3186 -0.3153
 2552TIP3    H129071   1.602   3.293   5.336  1.0314 -0.0380 -1.8249
 2552TIP3    H229072   1.479   3.375   5.303  1.5452  1.6195  0.1834
 2553TIP3   OH229073   5.925   3.124   2.603 -0.5188 -0.4574 -0.3063
 2553TIP3    H129074   5.957   3.171   2.526  1.7225  0.2499  0.9744
 2553TIP3    H229075   5.950   3.179   2.677 -1.7922 -1.5625  1.0103
 2554TIP3   OH229076   4.911   5.391   1.864 -0.5773 -0.6894 -0.1522
 2554TIP3    H129077   4.930   5.324   1.930 -2.1934 -1.0051  0.0512
 2554TIP3    H229078   4.953   5.359   1.784 -1.1615 -1.8774 -0.0079
 2555TIP3   OH229079   4.962   6.525   0.485 -0.2771  0.1011 -0.3502
 2555TIP3    H129080   4.920   6.604   0.520  0.2044  0.3047 -0.2205
 2555TIP3    H229081   5.005   6.555   0.404  0.8699  0.2446  0.2847
 2556TIP3   OH229082   1.136   3.092  11.294  0.1053 -0.4264 -0.5061
 2556TIP3    H129083   1.081   3.169  11.283  1.0263  0.0975 -1.7221
 2556TIP3    H229084   1.078   3.018  11.277 -0.4319  0.0711 -0.8535
 2557TIP3   OH229085   5.459   5.697   1.438 -0.9093  0.7495 -0.1128
 2557TIP3    H129086   5.497   5.781   1.412 -0.2637  0.4885 -0.0186
 2557TIP3    H229087   5.484   5.687   1.530 -1.9734  0.9929  0.2215
 2558TIP3   OH229088   5.737   1.940   1.813  0.2871  0.4599 -0.1545
 2558TIP3    H129089   5.809   1.901   1.863 -1.1561  0.7640  2.3684
 2558TIP3    H229090   5.691   1.865   1.774  0.1057 -0.0541  0.9817
 2559TIP3   OH229091   1.872   6.584   1.448  0.0613 -0.5604 -0.2535
 2559TIP3    H129092   1.938   6.581   1.379 -0.2942 -0.0116 -0.6255
 2559TIP3    H229093   1.895   6.661   1.500 -0.8993  0.2609 -1.0184
 2560TIP3   OH229094   1.512   5.463   5.000 -0.1756  0.8921 -0.2687
 2560TIP3    H129095   1.607   5.462   5.017  0.2126  0.3992 -2.2362
 2560TIP3    H229096   1.501   5.526   4.929 -1.4905  1.6861  0.5877
 2561TIP3   OH229097   1.926   3.597  12.478 -0.3571 -0.3937  0.3031
 2561TIP3    H129098   1.880   3.539  12.539 -0.7503  0.2840  0.6658
 2561TIP3    H229099   1.873   3.595  12.398 -1.0827  0.4533  0.7502
 2562TIP3   OH229100   2.244   5.024  13.535  0.7490 -0.3483 -0.0014
 2562TIP3    H129101   2.190   5.041  13.612  2.7403  2.1120  1.0106
 2562TIP3    H229102   2.185   4.982  13.472 -1.2030 -1.5598  2.4732
 2563TIP3   OH229103   4.869   5.746  14.775 -0.4361 -0.4947  0.0775
 2563TIP3    H129104   4.790   5.761  14.723 -1.4801 -3.2052  0.7213
 2563TIP3    H229105   4.837   5.731  14.864  0.4461 -3.8040 -0.0146
 2564TIP3   OH229106   5.945   4.889   3.734  0.6348  0.5112 -0.0649
 2564TIP3    H129107   5.924   4.811   3.684  0.6324  0.8355 -0.5719
 2564TIP3    H229108   5.941   4.861   3.826  0.4075 -0.0225 -0.2388
 2565TIP3   OH229109   3.173   5.718  15.545  0.0341 -0.3046 -0.4177
 2565TIP3    H129110   3.162   5.812  15.534 -0.6539 -0.5948 -2.7440
 2565TIP3    H229111   3.086   5.687  15.572  0.7438 -0.0999  2.3998
 2566TIP3   OH229112   1.476   3.087   5.639  0.0727  0.0281 -0.0916
 2566TIP3    H129113   1.468   3.047   5.725 -1.2444  0.8711  0.2060
 2566TIP3    H229114   1.497   3.179   5.656 -0.2313  0.2122 -0.6627
 2567TIP3   OH229115   0.936   0.227  11.910  0.4829  0.5248 -0.0852
 2567TIP3    H129116   0.900   0.312  11.885  0.3042  0.7692  0.9961
 2567TIP3    H229117   0.860   0.170  11.919  0.6365  0.0627 -1.4013
 2568TIP3   OH229118   1.786   2.827   1.965  0.3841 -0.3368 -0.2983
 2568TIP3    H129119   1.747   2.863   1.885 -0.5062  1.8719  1.0332
 2568TIP3    H229120   1.715   2.782   2.009  0.1061  0.9214  0.5865
 2569TIP3   OH229121   3.875   4.016   3.660  0.3320  0.2524 -0.4155
 2569TIP3    H129122   3.799   4.066   3.692 -0.3237  0.4893 -2.2077
 2569TIP3    H229123   3.842   3.926   3.650  0.8531 -0.0651  0.6151
 2570TIP3   OH229124   5.570   6.590   4.706 -0.0513 -0.4342  0.2970
 2570TIP3    H129125   5.525   6.668   4.739 -0.0532 -0.7598  1.0833
 2570TIP3    H229126   5.509   6.518   4.723 -0.3125 -0.5282 -1.0013
 2571TIP3   OH229127   0.706   3.178   4.653  0.2462  0.1931 -0.1772
 2571TIP3    H129128   0.755   3.134   4.722 -0.0195  1.9493  1.2045
 2571TIP3    H229129   0.624   3.130   4.647  0.3552 -0.1006  0.6082
 2572TIP3   OH229130   6.691   3.902  13.074  0.4165 -0.2843 -0.4080
 2572TIP3    H129131   6.681   3.851  13.154  1.4081 -0.6498 -0.4980
 2572TIP3    H229132   6.605   3.941  13.059  0.0697 -0.6629  0.5230
 2573TIP3   OH229133   1.204   0.984  11.309 -0.6721 -0.2152  0.0342
 2573TIP3    H129134   1.250   0.915  11.260  0.2820 -0.4529  1.2063
 2573TIP3    H229135   1.221   0.963  11.401 -1.6038  0.7700  0.4503
 2574TIP3   OH229136   5.852   5.462   3.523 -0.1790  0.3862 -0.4752
 2574TIP3    H129137   5.802   5.493   3.448  0.6872  1.1069 -0.7647
 2574TIP3    H229138   5.935   5.432   3.486  0.4969  1.2993  0.2456
 2575TIP3   OH229139   6.107   4.565   5.516  0.2510 -0.0347  0.2616
 2575TIP3    H129140   6.073   4.486   5.559 -0.6102  0.2367  0.0904
 2575TIP3    H229141   6.199   4.568   5.542  0.3821 -1.2801  0.0106
 2576TIP3   OH229142   5.591   5.370   0.413  0.5492 -0.0267 -0.0090
 2576TIP3    H129143   5.526   5.304   0.385  1.4324 -1.2386  0.6832
 2576TIP3    H229144   5.541   5.431   0.466  0.0050 -1.1474  0.8143
 2577TIP3   OH229145   4.699   4.697   2.330 -0.2947 -0.1969 -0.2715
 2577TIP3    H129146   4.771   4.684   2.269  0.1203 -1.2921  0.4343
 2577TIP3    H229147   4.658   4.611   2.339 -0.5472  0.0106  0.7275
 2578TIP3   OH229148   6.138   2.070  13.702  0.4181  0.1885  0.3359
 2578TIP3    H129149   6.097   2.042  13.784  1.5664  1.7577  1.5048
 2578TIP3    H229150   6.071   2.120  13.657 -0.5700 -1.5716 -0.2270
 2579TIP3   OH229151   3.738   2.900   3.933 -0.4572  0.4135 -0.0989
 2579TIP3    H129152   3.653   2.859   3.918 -1.5478  2.1031  1.1785
 2579TIP3    H229153   3.757   2.948   3.852 -0.4864 -0.3302 -0.5524
 2580TIP3   OH229154   5.412   1.332  14.679  0.1448  0.0577 -0.0786
 2580TIP3    H129155   5.392   1.276  14.604 -0.3958 -0.8168  0.7039
 2580TIP3    H229156   5.412   1.273  14.754  0.5849  0.9394  0.6345
 2581TIP3   OH229157   2.678   4.670   1.214 -0.3198  0.1960  0.2659
 2581TIP3    H129158   2.741   4.606   1.181  0.6538  1.1850  0.1302
 2581TIP3    H229159   2.609   4.673   1.147  1.0073  1.2780 -1.1436
 2582TIP3   OH229160   5.316   2.525  15.768 -0.1527  0.0527  0.1658
 2582TIP3    H129161   5.262   2.514  15.690 -1.8878 -1.0007  1.4458
 2582TIP3    H229162   5.253   2.538  15.839  1.2889 -0.7005  1.6484
 2583TIP3   OH229163   5.311   4.455  12.330 -0.4584 -0.0986  0.0865
 2583TIP3    H129164   5.360   4.505  12.395  0.7195 -0.6274 -0.3783
 2583TIP3    H229165   5.338   4.491  12.246 -0.0127 -1.1257 -0.2294
 2584TIP3   OH229166   6.370   4.238   3.175  0.2740 -0.5112 -0.4772
 2584TIP3    H129167   6.347   4.329   3.155  1.9974 -0.2817 -1.5994
 2584TIP3    H229168   6.332   4.223   3.262 -0.8942  0.9387 -0.6765
 2585TIP3   OH229169   6.158   5.937  11.156  0.4122  0.2965 -0.1229
 2585TIP3    H129170   6.134   5.991  11.232 -0.7828 -0.0094 -0.2611
 2585TIP3    H229171   6.217   5.992  11.106 -0.8037  1.5242 -0.2747
 2586TIP3   OH229172   2.233   5.606   0.497 -0.4015  0.1518 -0.1323
 2586TIP3    H129173   2.325   5.615   0.470  0.2991 -0.2393  1.9346
 2586TIP3    H229174   2.188   5.676   0.451  1.1053  0.9226 -0.5240
 2587TIP3   OH229175   1.600   0.174  12.449 -0.1312 -0.4933 -0.3192
 2587TIP3    H129176   1.634   0.257  12.484 -0.6762  0.2157 -1.4103
 2587TIP3    H229177   1.521   0.157  12.499 -0.2271 -0.1504 -0.3530
 2588TIP3   OH229178   4.559   0.747   3.802  0.2513  0.1198  0.4492
 2588TIP3    H129179   4.555   0.715   3.892 -0.4095  1.2979  0.8509
 2588TIP3    H229180   4.518   0.677   3.750 -0.5746  0.0132  1.2272
 2589TIP3   OH229181   3.441   3.298   4.040 -0.0094 -0.4583 -0.1746
 2589TIP3    H129182   3.416   3.288   3.948 -0.0248  0.9373 -0.3472
 2589TIP3    H229183   3.411   3.217   4.082 -0.1978 -1.0245 -1.3471
 2590TIP3   OH229184   2.061   0.807   3.138  0.4020 -0.1060  0.1720
 2590TIP3    H129185   1.999   0.873   3.170 -0.9540 -0.2561 -1.9445
 2590TIP3    H229186   2.133   0.857   3.102 -0.9050  0.3507 -1.9907
 2591TIP3   OH229187   4.043   6.423  15.307  0.0176  0.7670  0.3492
 2591TIP3    H129188   3.954   6.404  15.277  1.2313 -2.2886 -1.7588
 2591TIP3    H229189   4.060   6.358  15.376  1.4746 -0.6120 -1.2150
 2592TIP3   OH229190   5.964   0.737  14.296  0.7324 -0.6484 -0.9184
 2592TIP3    H129191   6.046   0.729  14.345  1.3033 -0.8555 -1.8729
 2592TIP3    H229192   5.965   0.663  14.235  0.0716 -0.3687 -1.2774
 2593TIP3   OH229193   3.703   3.139   5.209 -0.2685  0.6196 -0.5659
 2593TIP3    H129194   3.703   3.228   5.174 -0.2687  1.8100  2.1869
 2593TIP3    H229195   3.616   3.128   5.246  0.7429  0.8135  2.0641
 2594TIP3   OH229196   5.664   4.653   2.017  0.2368  0.2942 -0.0200
 2594TIP3    H129197   5.662   4.749   2.013  0.4740  0.3512  0.9373
 2594TIP3    H229198   5.580   4.626   1.980  0.9136  0.7740 -2.0493
 2595TIP3   OH229199   3.923   4.648   2.717  0.6927  0.7444 -0.5200
 2595TIP3    H129200   3.992   4.605   2.769  1.1963  1.9201 -0.1839
 2595TIP3    H229201   3.846   4.644   2.773  1.2832  2.1840  0.4382
 2596TIP3   OH229202   1.822   3.863  13.498 -0.8140 -0.4183 -0.1903
 2596TIP3    H129203   1.732   3.830  13.491 -1.3146  0.5579  1.3079
 2596TIP3    H229204   1.813   3.954  13.524  0.6270 -0.3829  0.2897
 2597TIP3   OH229205   3.897   0.171  15.590  0.1392  0.1416  0.1567
 2597TIP3    H129206   3.822   0.229  15.603 -0.3024 -0.1426 -0.9739
 2597TIP3    H229207   3.972   0.220  15.624 -0.3608  1.0190  0.0149
 2598TIP3   OH229208   5.084   5.947  11.315 -0.2760 -0.4504 -0.1854
 2598TIP3    H129209   5.172   5.914  11.296 -0.1580 -0.2693  0.0451
 2598TIP3    H229210   5.035   5.869  11.343  0.3015 -0.2716  1.4334
 2599TIP3   OH229211   1.613   6.643   5.882  0.4955 -0.3889 -0.1187
 2599TIP3    H129212   1.594   6.707   5.950  0.5206 -2.2906  1.7659
 2599TIP3    H229213   1.705   6.658   5.859  0.4865  0.2518  0.2513
 2600TIP3   OH229214   0.010   6.787   0.221 -0.1004  0.3099  0.4585
 2600TIP3    H129215   0.069   6.858   0.195  1.3204 -0.1852  2.1037
 2600TIP3    H229216  -0.030   6.819   0.303 -0.8166 -0.0612  0.2565
 2601TIP3   OH229217   0.548   2.509  15.278 -0.2103 -0.0526 -0.2105
 2601TIP3    H129218   0.467   2.504  15.330  0.8148  0.8766  1.5538
 2601TIP3    H229219   0.617   2.480  15.338  1.2841  2.9159 -0.3383
 2602TIP3   OH229220   2.208   4.035   5.294 -0.3875  0.1200  0.3823
 2602TIP3    H129221   2.277   4.031   5.227 -0.4553  1.8349  0.1644
 2602TIP3    H229222   2.169   3.948   5.293 -1.2393  0.4197 -2.7490
 2603TIP3   OH229223   4.729   2.954   0.921  0.3614  0.1769  0.1030
 2603TIP3    H129224   4.816   2.958   0.960 -0.3391 -0.3229  1.8010
 2603TIP3    H229225   4.722   3.033   0.869  1.7293  0.3531  0.1568
 2604TIP3   OH229226   1.308   6.120  11.437  0.1327 -0.4662  0.1082
 2604TIP3    H129227   1.283   6.130  11.345 -1.6720 -1.6128  0.4278
 2604TIP3    H229228   1.302   6.208  11.474 -0.6351 -0.2490 -0.5240
 2605TIP3   OH229229   2.892   0.827   2.358 -0.5885  0.0852 -0.4100
 2605TIP3    H129230   2.987   0.828   2.370 -0.4647 -2.3631 -0.6555
 2605TIP3    H229231   2.865   0.917   2.376  1.7778  0.8993 -0.5060
 2606TIP3   OH229232   5.087   3.931  12.075  0.0887 -0.3741  0.3571
 2606TIP3    H129233   5.018   3.867  12.090 -0.0672  0.4013  3.5099
 2606TIP3    H229234   5.160   3.903  12.130  0.3057  1.6747  1.2006
 2607TIP3   OH229235   6.471   0.200  15.733  0.0533  0.0218 -0.1191
 2607TIP3    H129236   6.401   0.192  15.798  0.2937 -0.0357  0.1347
 2607TIP3    H229237   6.527   0.270  15.767 -0.3923  0.7180 -0.7918
 2608TIP3   OH229238   4.383   2.287  14.234  0.3108 -0.4233  0.0969
 2608TIP3    H129239   4.340   2.215  14.189  0.4710 -0.0766 -0.6311
 2608TIP3    H229240   4.350   2.283  14.324 -0.0085 -1.1335 -0.0476
 2609TIP3   OH229241   6.596   4.678  14.574 -0.4407 -0.1713 -0.6350
 2609TIP3    H129242   6.575   4.724  14.492  2.4571 -1.0448 -2.0122
 2609TIP3    H229243   6.683   4.710  14.597 -0.9674 -0.3507  1.8834
 2610TIP3   OH229244   3.401   5.920   3.677  0.5547 -0.0627 -0.3829
 2610TIP3    H129245   3.331   5.913   3.613 -0.1245  1.5441  0.1254
 2610TIP3    H229246   3.415   5.831   3.709 -0.8876 -0.4790 -0.8754
 2611TIP3   OH229247   2.268   4.154   6.306  0.1417 -0.2711  0.0992
 2611TIP3    H129248   2.257   4.061   6.287 -1.6669  0.2153 -1.6371
 2611TIP3    H229249   2.361   4.170   6.292  0.3363 -1.6557 -0.3867
 2612TIP3   OH229250   5.544   1.979   3.971  0.2869 -0.1740 -0.1652
 2612TIP3    H129251   5.597   1.925   4.029 -2.5425 -0.9099  1.9837
 2612TIP3    H229252   5.569   2.069   3.992  0.3244 -0.4874  1.2414
 2613TIP3   OH229253   4.740   1.992  15.643 -0.0007  0.0279 -0.4637
 2613TIP3    H129254   4.709   1.968  15.731  1.7688 -0.1111  0.1556
 2613TIP3    H229255   4.731   2.087  15.640 -1.8757 -0.1176 -0.8893
 2614TIP3   OH229256   1.409   1.221  12.246 -0.4863 -0.1654 -0.3369
 2614TIP3    H129257   1.435   1.170  12.323  0.5260  0.0513 -0.5176
 2614TIP3    H229258   1.358   1.160  12.193  1.7339 -1.4425 -1.1462
 2615TIP3   OH229259   6.083   4.942   1.366 -0.0713 -0.4775  0.0684
 2615TIP3    H129260   6.108   5.031   1.392 -0.5425 -0.3966  0.2473
 2615TIP3    H229261   5.989   4.948   1.349 -0.0340 -0.8605 -0.2696
 2616TIP3   OH229262   6.643   4.928   6.369 -0.2278  0.3074 -0.0157
 2616TIP3    H129263   6.601   5.008   6.339 -2.0118 -0.6410 -0.1506
 2616TIP3    H229264   6.718   4.959   6.421 -0.3042  2.0230 -0.8593
 2617TIP3   OH229265   4.877   1.999   0.178  0.1116  0.2395  0.3564
 2617TIP3    H129266   4.819   1.949   0.236 -0.9503  1.0456  0.0226
 2617TIP3    H229267   4.943   1.936   0.149  0.1504 -0.3933  1.7386
 2618TIP3   OH229268   2.033   4.675  16.876  0.3182 -0.4954 -0.4021
 2618TIP3    H129269   2.067   4.619  16.806  0.3606  1.0966 -1.7152
 2618TIP3    H229270   1.941   4.651  16.884  0.3799 -0.8810 -0.8244
 2619TIP3   OH229271   5.070   2.029  12.747 -0.3821 -0.2314  0.2439
 2619TIP3    H129272   4.989   2.028  12.798 -0.0720 -0.1902  0.7453
 2619TIP3    H229273   5.045   2.064  12.662 -0.9486 -0.4998  0.2981
 2620TIP3   OH229274   4.953   4.333  16.930  0.7056 -0.3605 -0.1414
 2620TIP3    H129275   4.903   4.414  16.929  0.3445 -0.5507 -1.8535
 2620TIP3    H229276   4.930   4.290  17.012  0.7287  1.1514  0.6730
 2621TIP3   OH229277   2.311   1.222   1.900  0.3594 -0.2596 -0.2788
 2621TIP3    H129278   2.318   1.257   1.989 -0.6287 -3.3434  1.1632
 2621TIP3    H229279   2.299   1.299   1.845 -0.1168  1.7242  2.3651
 2622TIP3   OH229280   3.387   5.366   1.502 -0.2817 -0.0924  0.2535
 2622TIP3    H129281   3.350   5.385   1.588  0.2721 -0.2053  0.5193
 2622TIP3    H229282   3.330   5.297   1.466  0.8495 -1.7334  1.5102
 2623TIP3   OH229283   4.344   2.347  10.978 -0.6760  0.4731  0.2612
 2623TIP3    H129284   4.300   2.432  10.976  0.9612  1.6240  4.0791
 2623TIP3    H229285   4.413   2.354  10.912 -0.2637  2.3451  0.8388
 2624TIP3   OH229286   4.223   2.863  13.856 -0.7188  0.4673  0.2812
 2624TIP3    H129287   4.252   2.876  13.947  1.1561  0.0106 -0.2028
 2624TIP3    H229288   4.232   2.949  13.816  0.7212  0.1863 -0.0424
 2625TIP3   OH229289   5.947   5.065   0.678  0.2210  0.1926  0.4061
 2625TIP3    H129290   5.878   5.127   0.653 -0.2123  0.0367  1.1795
 2625TIP3    H229291   6.007   5.064   0.603 -1.7854 -1.3711 -1.3232
 2626TIP3   OH229292   4.033   6.099   1.195 -0.6026  0.0934 -0.0409
 2626TIP3    H129293   4.034   6.097   1.290  0.9326  1.3500 -0.0006
 2626TIP3    H229294   3.951   6.143   1.172 -0.9055 -0.0812  0.6812
 2627TIP3   OH229295   5.565   2.531   2.445 -0.3641  0.2701  0.0363
 2627TIP3    H129296   5.529   2.588   2.513  0.3135 -2.0601  2.4884
 2627TIP3    H229297   5.499   2.463   2.433 -0.0835  0.1652 -1.0548
 2628TIP3   OH229298   2.558   2.324  16.977 -0.2854  0.2716 -0.0705
 2628TIP3    H129299   2.595   2.341  17.063  0.0003 -0.7787  0.0262
 2628TIP3    H229300   2.520   2.408  16.950  0.2796  0.8040  0.7452
 2629TIP3   OH229301   4.706   6.443  13.960  0.2529 -0.4353 -0.0040
 2629TIP3    H129302   4.763   6.366  13.967  0.9418 -0.0354 -0.8721
 2629TIP3    H229303   4.749   6.498  13.894  0.6413  1.4481  1.7331
 2630TIP3   OH229304   4.551   1.229   4.934  0.6670 -0.3639 -0.0762
 2630TIP3    H129305   4.476   1.170   4.944  1.8869 -2.0187 -0.2949
 2630TIP3    H229306   4.627   1.171   4.934  2.0212  1.3264  0.8331
 2631TIP3   OH229307   5.578   0.954   4.603  0.7235 -0.2143  0.1315
 2631TIP3    H129308   5.534   0.899   4.668  1.0149  0.3100  0.7830
 2631TIP3    H229309   5.618   0.891   4.542 -0.4306 -0.6973 -0.1535
 2632TIP3   OH229310   4.461   1.709   3.317  0.3203  0.6903  0.7407
 2632TIP3    H129311   4.385   1.673   3.363  1.0168 -1.3994  0.3960
 2632TIP3    H229312   4.425   1.758   3.244 -0.7584 -2.3354 -0.9107
 2633TIP3   OH229313   3.015   2.962   4.513 -0.3668  0.5435 -0.8676
 2633TIP3    H129314   3.087   2.979   4.574 -1.7240 -1.7347  1.5580
 2633TIP3    H229315   2.958   3.038   4.522  0.7732  1.4932 -1.4025
 2634TIP3   OH229316   6.724   4.252  17.201  0.2129 -0.3584  0.4355
 2634TIP3    H129317   6.658   4.209  17.255 -0.4234 -0.3329 -0.2946
 2634TIP3    H229318   6.711   4.346  17.218 -0.1569 -0.3382  0.0549
 2635TIP3   OH229319   1.639   5.348   5.232 -0.1779 -0.4621 -0.4672
 2635TIP3    H129320   1.547   5.331   5.212 -0.0067 -1.7982 -0.2291
 2635TIP3    H229321   1.648   5.328   5.325  0.1613  0.6149 -0.2486
 2636TIP3   OH229322   6.087   5.604  13.997  0.0431  0.4611  0.1252
 2636TIP3    H129323   6.015   5.578  14.056  1.6670 -1.2278  1.4737
 2636TIP3    H229324   6.138   5.666  14.049  1.2986 -0.7749  0.4191
 2637TIP3   OH229325   0.030   1.015  16.157 -0.2658 -0.2318 -0.5447
 2637TIP3    H129326   0.054   1.079  16.090 -0.7926 -0.9799 -1.4786
 2637TIP3    H229327  -0.059   1.040  16.182  0.3893  0.8329  0.8581
 2638TIP3   OH229328   3.641   6.008  12.417 -0.0557 -0.0504 -0.1642
 2638TIP3    H129329   3.671   5.962  12.495 -3.1540  0.1902  1.3255
 2638TIP3    H229330   3.687   6.092  12.418  0.7772 -0.5085  0.7826
 2639TIP3   OH229331   3.246   2.334   4.175  0.3429  0.3584 -0.3941
 2639TIP3    H129332   3.194   2.318   4.254  0.2182 -0.9986 -0.7246
 2639TIP3    H229333   3.194   2.295   4.104  0.5303  1.4050 -1.1380
 2640TIP3   OH229334   5.011   6.153   0.453 -0.1948 -0.2369  0.2953
 2640TIP3    H129335   4.982   6.200   0.532  0.9661  0.0664  0.5543
 2640TIP3    H229336   4.944   6.173   0.388  0.2648  1.8359  0.3864
 2641TIP3   OH229337   6.502   1.780   1.320 -0.0246  0.6585 -0.1615
 2641TIP3    H129338   6.578   1.784   1.378  0.2383  0.0222 -0.4561
 2641TIP3    H229339   6.440   1.723   1.365 -0.3564  1.2356  0.1122
 2642TIP3   OH229340   0.384   3.796  12.934 -0.2765 -0.1603  0.4140
 2642TIP3    H129341   0.340   3.738  12.996 -1.0758 -1.7063 -1.4696
 2642TIP3    H229342   0.318   3.862  12.913 -0.3672 -0.2357  0.4572
 2643TIP3   OH229343   1.476   3.871   0.876 -0.1645  0.0540  0.1831
 2643TIP3    H129344   1.461   3.858   0.782  1.0080  2.4311 -0.4203
 2643TIP3    H229345   1.472   3.966   0.888 -0.8167 -0.2132  2.6765
 2644TIP3   OH229346   4.685   4.950  12.573  0.4953  0.3639  0.1708
 2644TIP3    H129347   4.625   4.987  12.509  0.2615 -1.3602 -0.6436
 2644TIP3    H229348   4.769   4.945  12.527  0.7981  0.8671  0.6453
 2645TIP3   OH229349   2.051   0.475   6.119 -0.1846 -0.2898  0.1128
 2645TIP3    H129350   2.125   0.441   6.169  0.5422 -0.5933 -1.1048
 2645TIP3    H229351   2.078   0.465   6.027 -0.8788  1.5023 -0.3305
 2646TIP3   OH229352   2.743   1.499   1.050  0.1143 -0.0860  0.3216
 2646TIP3    H129353   2.773   1.547   0.973 -0.5765 -0.1320  0.0205
 2646TIP3    H229354   2.657   1.536   1.069 -0.0931 -0.6840  0.5500
 2647TIP3   OH229355   4.957   6.117  10.844 -0.5794  0.4065 -0.2798
 2647TIP3    H129356   4.886   6.054  10.857 -0.4050  0.5131  1.4090
 2647TIP3    H229357   4.922   6.200  10.876 -1.4525  1.7142 -4.0749
 2648TIP3   OH229358   1.527   2.244  14.747  0.1878  0.6082  0.3651
 2648TIP3    H129359   1.604   2.254  14.803 -1.2704  0.2369  2.6186
 2648TIP3    H229360   1.471   2.183  14.795 -0.7050 -0.6794 -2.1338
 2649TIP3   OH229361   5.587   0.342  13.149 -0.5287  0.2218 -0.1330
 2649TIP3    H129362   5.561   0.434  13.162  1.0514  0.6688  0.0083
 2649TIP3    H229363   5.632   0.318  13.230 -0.4832 -0.5287 -0.3739
 2650TIP3   OH229364   2.080   3.356  12.124 -0.5784 -0.3713  0.0846
 2650TIP3    H129365   2.154   3.416  12.133 -1.4652  0.8856 -0.6951
 2650TIP3    H229366   2.066   3.351  12.030  0.8151 -3.5548 -0.0709
 2651TIP3   OH229367   1.681   4.275   3.238 -0.3651 -0.6343 -0.5320
 2651TIP3    H129368   1.603   4.258   3.291 -0.8288 -1.1780 -1.3790
 2651TIP3    H229369   1.754   4.241   3.291 -0.8969 -1.8710 -0.5666
 2652TIP3   OH229370   2.862   6.608   4.062  0.3336 -0.5029  0.0580
 2652TIP3    H129371   2.910   6.683   4.098 -3.1217  2.4786 -0.9071
 2652TIP3    H229372   2.777   6.610   4.106 -1.1528 -1.6092 -2.5033
 2653TIP3   OH229373   3.093   2.152  14.853 -0.5213 -0.3297 -0.2802
 2653TIP3    H129374   3.161   2.090  14.825  0.0400 -0.7796  1.9257
 2653TIP3    H229375   3.011   2.105  14.843 -0.4580 -0.1411 -1.9885
 2654TIP3   OH229376   5.097   0.433   5.938  0.1230 -0.6471  0.1162
 2654TIP3    H129377   5.075   0.521   5.908 -1.1303 -1.3128 -1.0033
 2654TIP3    H229378   5.129   0.447   6.028 -0.9569  0.8566  0.3230
 2655TIP3   OH229379   2.553   2.058   5.861 -0.2373  0.0623 -0.2222
 2655TIP3    H129380   2.521   2.108   5.936  3.2718  2.2004  0.1225
 2655TIP3    H229381   2.500   2.089   5.788 -1.3482  0.6638  0.7873
 2656TIP3   OH229382   6.594   3.303  13.839  0.5469 -0.1635  0.3616
 2656TIP3    H129383   6.638   3.329  13.757  3.1758 -0.4869  1.5543
 2656TIP3    H229384   6.596   3.208  13.838  2.6768 -0.2121  1.7123
 2657TIP3   OH229385   5.948   2.399  14.519 -0.3964  0.2494 -0.6646
 2657TIP3    H129386   6.041   2.380  14.508  0.3188  1.0253  2.8365
 2657TIP3    H229387   5.909   2.315  14.546 -0.0626  0.5383  0.7995
 2658TIP3   OH229388   0.572   6.531   3.443  0.4983  0.7793 -0.6155
 2658TIP3    H129389   0.644   6.487   3.399  2.4842  2.9305  0.3343
 2658TIP3    H229390   0.528   6.581   3.375  0.3124  0.0560 -1.0463
 2659TIP3   OH229391   4.187   3.283  13.039  0.9119  0.2417  0.7683
 2659TIP3    H129392   4.194   3.271  13.134  1.5387  1.9116  0.9697
 2659TIP3    H229393   4.277   3.275  13.007  0.4722 -2.8063 -0.1055
 2660TIP3   OH229394   6.696   1.856  10.754  0.4053  0.4085 -0.1412
 2660TIP3    H129395   6.636   1.787  10.729  0.3219 -0.2146  1.5961
 2660TIP3    H229396   6.649   1.907  10.821  0.6623  1.8344 -0.9989
 2661TIP3   OH229397   1.978   1.875   5.627  0.0925  0.1294  0.5292
 2661TIP3    H129398   1.892   1.916   5.642 -1.1034 -1.9873 -0.1288
 2661TIP3    H229399   1.990   1.818   5.703  0.9747  0.4576  0.6425
 2662TIP3   OH229400   6.223   6.545  10.562  0.4431  0.2425  0.4693
 2662TIP3    H129401   6.172   6.532  10.642 -0.5282 -0.1567 -0.1881
 2662TIP3    H229402   6.249   6.457  10.535 -1.3422  0.0729 -0.9471
 2663TIP3   OH229403   1.371   0.715  14.540  0.3647 -0.0530  0.0418
 2663TIP3    H129404   1.398   0.660  14.613  2.0357  2.6019  1.5836
 2663TIP3    H229405   1.318   0.784  14.580  0.5380  0.9608 -1.3936
 2664TIP3   OH229406   1.336   5.101  14.985 -0.3273  0.5538 -0.2515
 2664TIP3    H129407   1.372   5.168  14.927  0.9805  0.3501  0.2950
 2664TIP3    H229408   1.246   5.130  15.002 -0.3480  1.2416 -1.4037
 2665TIP3   OH229409   2.020   1.156   3.397  0.3353 -0.4419  0.0248
 2665TIP3    H129410   2.093   1.190   3.346  0.8096  0.4826  1.2614
 2665TIP3    H229411   1.989   1.080   3.348  2.3886 -1.0976 -0.3536
 2666TIP3   OH229412   2.788   5.732   0.998 -0.2123  0.0753 -0.3343
 2666TIP3    H129413   2.795   5.659   0.937  1.5381  1.2944 -1.7042
 2666TIP3    H229414   2.704   5.773   0.977  0.3355  0.4352 -1.9231
 2667TIP3   OH229415   4.211   6.654  15.349 -0.2765 -0.1978  0.2751
 2667TIP3    H129416   4.216   6.734  15.295 -1.3183  0.1741  0.7203
 2667TIP3    H229417   4.185   6.586  15.287  0.8325 -0.2516 -0.1541
 2668TIP3   OH229418   5.450   3.462   0.068  0.6505 -0.0969  0.4606
 2668TIP3    H129419   5.519   3.466   0.002  0.2727 -0.2654  0.0465
 2668TIP3    H229420   5.441   3.369   0.087  0.0747 -0.1405  0.0091
 2669TIP3   OH229421   6.552   0.654   2.667  0.2560 -0.2534 -0.3494
 2669TIP3    H129422   6.595   0.594   2.605  1.0820 -0.5438  0.4788
 2669TIP3    H229423   6.459   0.643   2.649  0.4745  0.6608 -2.4468
 2670TIP3   OH229424   4.485   0.413   4.112  0.2696 -0.6174  0.0196
 2670TIP3    H129425   4.447   0.342   4.163 -1.4654 -0.2359 -0.6557
 2670TIP3    H229426   4.558   0.374   4.065  0.9527 -1.3208  1.6229
 2671TIP3   OH229427   3.597   5.995   5.951  0.5589 -0.2250 -0.0799
 2671TIP3    H129428   3.521   6.052   5.960  0.3810 -0.5166  0.3277
 2671TIP3    H229429   3.672   6.054   5.956  0.3589  0.0669 -0.5057
 2672TIP3   OH229430   4.358   0.938   0.423 -0.3450 -0.3387  0.0721
 2672TIP3    H129431   4.430   0.924   0.361  0.8230 -0.6119  1.4503
 2672TIP3    H229432   4.376   1.024   0.462 -1.5162  0.1954 -0.5083
 2673TIP3   OH229433   5.425   5.146   4.891 -0.1964 -0.0645 -0.4738
 2673TIP3    H129434   5.409   5.140   4.986 -0.0284  1.1109 -0.3515
 2673TIP3    H229435   5.337   5.151   4.853 -0.2817  1.8891 -0.1561
 2674TIP3   OH229436   2.955   1.115   2.356 -0.3559  0.2736 -0.0712
 2674TIP3    H129437   3.027   1.064   2.394  0.3295 -0.8906 -2.7286
 2674TIP3    H229438   2.989   1.205   2.353  0.8831 -0.1924 -0.9417
 2675TIP3   OH229439   3.244   2.020  17.100  0.2061 -0.0761  0.3691
 2675TIP3    H129440   3.313   2.001  17.165 -0.4769 -0.3711  1.0206
 2675TIP3    H229441   3.166   2.038  17.153 -0.6264 -1.3661 -0.3985
 2676TIP3   OH229442   1.186   0.364  13.698 -0.5623 -0.2469 -0.4018
 2676TIP3    H129443   1.195   0.459  13.710 -0.2032 -0.2436 -0.6573
 2676TIP3    H229444   1.108   0.340  13.747  0.2795 -0.0786  1.0779
 2677TIP3   OH229445   1.900   0.592   5.627  0.9590  0.0988  0.3548
 2677TIP3    H129446   1.943   0.678   5.631  0.4246  0.3735  0.3515
 2677TIP3    H229447   1.844   0.591   5.705  1.0101 -0.2721  0.3849
 2678TIP3   OH229448   0.823   0.636   6.740  0.2377 -0.1693  0.2854
 2678TIP3    H129449   0.878   0.677   6.807  0.6711 -0.2031 -0.0432
 2678TIP3    H229450   0.774   0.708   6.701  2.1923  0.3302 -1.4207
 2679TIP3   OH229451   6.340   2.564   1.936  0.2087 -0.1045  0.5460
 2679TIP3    H129452   6.390   2.642   1.960  1.0927 -0.2689 -0.6198
 2679TIP3    H229453   6.261   2.598   1.894  0.6219  0.1917 -0.0219
 2680TIP3   OH229454   5.838   5.473  12.715 -0.4264 -0.0546  0.6985
 2680TIP3    H129455   5.807   5.386  12.690  0.2302 -0.0870 -0.0445
 2680TIP3    H229456   5.884   5.505  12.637 -0.7452  0.9996  0.9267
 2681TIP3   OH229457   1.408   1.251   5.263 -0.1836  0.6353  0.4719
 2681TIP3    H129458   1.360   1.334   5.263  2.8627  2.5420  1.1479
 2681TIP3    H229459   1.409   1.224   5.354 -0.7845  0.0266  0.3125
 2682TIP3   OH229460   6.379   2.113   4.713 -0.0280 -0.0294 -0.2747
 2682TIP3    H129461   6.391   2.108   4.807  0.2692  0.4422 -0.2866
 2682TIP3    H229462   6.356   2.024   4.687  0.8987 -0.3881  0.0945
 2683TIP3   OH229463   2.289   2.201   2.295  0.2312  0.1087 -0.1603
 2683TIP3    H129464   2.342   2.242   2.226 -0.5029 -0.2596 -0.9703
 2683TIP3    H229465   2.342   2.128   2.326  1.0144  0.9052  0.4200
 2684TIP3   OH229466   4.309   5.690  11.464 -0.2071  0.1457 -0.5967
 2684TIP3    H129467   4.257   5.643  11.529 -0.4745  1.0606 -0.1326
 2684TIP3    H229468   4.327   5.625  11.396 -1.6775 -0.2773 -0.6103
 2685TIP3   OH229469   4.860   3.884  17.047  0.4128  0.2310  0.5862
 2685TIP3    H129470   4.847   3.789  17.041 -2.3460  0.3563  2.6370
 2685TIP3    H229471   4.936   3.894  17.104  2.3022 -0.6375 -1.5980
 2686TIP3   OH229472   4.902   5.311   2.319 -0.6617  0.8177  0.0908
 2686TIP3    H129473   4.989   5.272   2.322 -1.0246  0.0153  0.5402
 2686TIP3    H229474   4.845   5.241   2.287 -1.2352  1.1450  0.3694
 2687TIP3   OH229475   4.268   3.464   4.749 -0.0586  0.1989 -0.3024
 2687TIP3    H129476   4.353   3.434   4.781  1.9342  0.1628 -4.8435
 2687TIP3    H229477   4.244   3.401   4.681 -2.1301  1.9265 -1.3076
 2688TIP3   OH229478   2.253   2.573  11.513  0.3504  0.1430 -0.6265
 2688TIP3    H129479   2.280   2.612  11.430  1.2683  0.1407 -0.3336
 2688TIP3    H229480   2.201   2.640  11.556 -0.3057  0.0735 -1.2830
 2689TIP3   OH229481   3.208   1.857   1.883  0.0452 -0.0579 -0.3384
 2689TIP3    H129482   3.161   1.827   1.805  0.0490 -2.0384  0.3792
 2689TIP3    H229483   3.234   1.947   1.861 -1.2769 -0.0198 -2.0005
 2690TIP3   OH229484   3.687   2.464  11.849 -0.0631 -0.5395  0.2604
 2690TIP3    H129485   3.737   2.545  11.857  1.0976 -1.0446 -1.4679
 2690TIP3    H229486   3.750   2.394  11.866 -1.0253 -1.1214  1.6228
 2691TIP3   OH229487   3.497   0.204   1.410  0.0975  0.3052  0.1615
 2691TIP3    H129488   3.470   0.116   1.383 -1.6421  1.0726 -0.7002
 2691TIP3    H229489   3.418   0.243   1.447  0.8226  1.5580  0.4357
 2692TIP3   OH229490   3.827   5.562   4.581  0.3213 -0.1920 -0.2702
 2692TIP3    H129491   3.861   5.589   4.667 -0.5075  1.9008 -0.5483
 2692TIP3    H229492   3.903   5.568   4.523  1.0182 -2.1203  0.3497
 2693TIP3   OH229493   4.660   1.165   5.348  0.5166  0.4065 -0.2103
 2693TIP3    H129494   4.688   1.154   5.439  1.3822  0.7761 -0.4252
 2693TIP3    H229495   4.602   1.090   5.332 -1.0530  1.2430  1.1619
 2694TIP3   OH229496   6.723   1.452   4.837  0.0290 -0.0472  0.0420
 2694TIP3    H129497   6.684   1.537   4.858  1.1858  0.4910  0.0413
 2694TIP3    H229498   6.796   1.472   4.779  0.3205 -1.0490  0.0454
 2695TIP3   OH229499   1.708   2.351   1.662  0.3231 -0.0028  0.4372
 2695TIP3    H129500   1.718   2.446   1.663  0.2258  0.0162 -0.3216
 2695TIP3    H229501   1.781   2.320   1.609  0.7278 -0.4080  1.2032
 2696TIP3   OH229502   6.304   2.009   0.892  0.2447 -0.0755 -0.7933
 2696TIP3    H129503   6.378   2.057   0.928  0.3941 -1.3413  0.6801
 2696TIP3    H229504   6.319   1.918   0.918 -1.9300 -0.3319 -0.2275
 2697TIP3   OH229505   5.454   0.941   5.128  0.1598 -0.5089 -0.1895
 2697TIP3    H129506   5.468   0.855   5.089 -1.1175 -0.7728 -0.1055
 2697TIP3    H229507   5.504   1.001   5.073  2.5344 -1.4708  0.7656
 2698TIP3   OH229508   0.723   1.116  12.057 -0.0118  0.3935  0.8735
 2698TIP3    H129509   0.645   1.066  12.031  0.8135 -0.0825 -0.7928
 2698TIP3    H229510   0.772   1.057  12.113 -0.5912  0.5221  1.5358
 2699TIP3   OH229511   4.554   0.608  11.391 -0.3146  0.1319  0.2017
 2699TIP3    H129512   4.514   0.692  11.372  0.0619 -0.0470 -1.5519
 2699TIP3    H229513   4.560   0.564  11.306  3.9393  0.3243  0.1546
 2700TIP3   OH229514   5.692   4.038   4.931  0.1693  0.1290  0.2425
 2700TIP3    H129515   5.702   4.075   4.844  0.4143 -2.2048 -0.8036
 2700TIP3    H229516   5.722   4.107   4.991  1.9902  1.0645 -1.6317
 2701TIP3   OH229517   4.213   6.394  16.284 -0.1801  0.0807  0.4257
 2701TIP3    H129518   4.260   6.459  16.335  0.2932  0.2115 -0.1649
 2701TIP3    H229519   4.280   6.330  16.258 -0.0752  0.8651 -1.3777
 2702TIP3   OH229520   2.299   1.968   1.628  0.1542 -0.2871 -0.1418
 2702TIP3    H129521   2.328   2.052   1.664 -1.2399  0.1649 -0.0316
 2702TIP3    H229522   2.380   1.925   1.601  0.8474  1.3917 -0.8808
 2703TIP3   OH229523   2.969   1.693  16.723  0.6763 -0.4861  0.2908
 2703TIP3    H129524   2.978   1.655  16.810 -0.1618 -0.0635  0.5815
 2703TIP3    H229525   2.880   1.669  16.696 -0.7646  2.9567  1.3950
 2704TIP3   OH229526   5.445   1.799   6.704 -0.2095  0.0795 -0.2652
 2704TIP3    H129527   5.438   1.704   6.716 -1.3137  0.3633  1.7029
 2704TIP3    H229528   5.538   1.814   6.687  0.9777 -0.9586  4.1666
 2705TIP3   OH229529   2.011   0.406  12.379  0.4535  0.2746 -0.2800
 2705TIP3    H129530   2.021   0.412  12.284  1.6179  0.8013 -0.1445
 2705TIP3    H229531   2.032   0.494  12.411 -2.4426  0.8601  0.3051
 2706TIP3   OH229532   1.197   3.078  13.317 -0.0931  0.3542 -0.5210
 2706TIP3    H129533   1.121   3.130  13.342 -1.0609 -1.8583  1.5344
 2706TIP3    H229534   1.216   3.105  13.227 -4.6641 -0.4089 -1.9954
 2707TIP3   OH229535   3.606   0.679  12.256  0.0206 -0.4619  0.2278
 2707TIP3    H129536   3.602   0.730  12.175 -1.4949 -0.2591  0.3971
 2707TIP3    H229537   3.621   0.745  12.325 -1.2364 -0.3030  0.3697
 2708TIP3   OH229538   0.210   6.025  10.790 -0.2471 -0.2546  0.2371
 2708TIP3    H129539   0.186   6.109  10.829  2.1840  0.2787  0.7950
 2708TIP3    H229540   0.192   6.036  10.697  0.8912  1.2944  0.1513
 2709TIP3   OH229541   6.197   3.764  14.283 -0.0498 -0.3221  0.0089
 2709TIP3    H129542   6.175   3.855  14.264  0.2475 -0.6234 -1.9979
 2709TIP3    H229543   6.268   3.769  14.347  0.1205  0.8592 -0.2530
 2710TIP3   OH229544   1.484   4.913  15.681  0.3797 -0.1014 -0.1800
 2710TIP3    H129545   1.494   4.863  15.600  1.6239 -0.2464  0.0381
 2710TIP3    H229546   1.391   4.907  15.701  0.2352 -1.0021 -1.0042
 2711TIP3   OH229547   1.817   2.943   2.402  0.2336  0.1890  0.2566
 2711TIP3    H129548   1.830   2.951   2.497  0.7435  1.1423  0.1164
 2711TIP3    H229549   1.723   2.928   2.392  0.0799  0.6832  0.8831
 2712TIP3   OH229550   3.397   5.724   6.316  0.1117  0.2313  0.1462
 2712TIP3    H129551   3.329   5.762   6.259 -1.7384 -2.3041  0.4847
 2712TIP3    H229552   3.379   5.761   6.402  1.8307  2.7110 -0.4233
 2713TIP3   OH229553   3.678   3.604  11.050  0.3154  0.1936 -0.8425
 2713TIP3    H129554   3.624   3.562  10.983  0.0884  0.9321 -1.1294
 2713TIP3    H229555   3.752   3.642  11.002  1.7001 -1.6908 -0.3486
 2714TIP3   OH229556   1.319   2.220   4.307  0.7586 -0.3235  0.3511
 2714TIP3    H129557   1.398   2.255   4.266  1.8430 -2.6271  0.2702
 2714TIP3    H229558   1.349   2.186   4.391  0.2093 -2.3855 -0.2165
 2715TIP3   OH229559   1.357   5.772   2.552 -0.1190  0.1552  0.4195
 2715TIP3    H129560   1.370   5.839   2.620  2.3105  1.0885 -0.8392
 2715TIP3    H229561   1.350   5.822   2.471 -2.1296 -0.9824 -0.1632
 2716TIP3   OH229562   6.069   5.242   2.767 -0.1712 -0.4667  0.0686
 2716TIP3    H129563   6.122   5.311   2.727 -0.0197 -0.3267  0.5127
 2716TIP3    H229564   6.083   5.166   2.710 -0.2280 -0.1740 -0.3423
 2717TIP3   OH229565   2.058   2.043  12.785 -0.1590 -0.4987 -0.3722
 2717TIP3    H129566   2.104   2.089  12.856 -0.1617 -0.4265 -0.4182
 2717TIP3    H229567   1.996   2.106  12.751  0.1388 -0.3912 -0.7263
 2718TIP3   OH229568   3.619   1.813   5.821 -0.3298  0.2783  0.0429
 2718TIP3    H129569   3.589   1.794   5.732 -0.1144  2.7609 -0.6233
 2718TIP3    H229570   3.552   1.871   5.857  1.0696  1.7260  0.3992
 2719TIP3   OH229571   3.525   6.219   0.963 -0.0070 -0.2399 -0.0970
 2719TIP3    H129572   3.492   6.165   0.891 -0.4169 -0.6817  0.4161
 2719TIP3    H229573   3.450   6.273   0.988 -0.2658 -0.9945  0.8373
 2720TIP3   OH229574   6.534   6.602   0.438  0.5204  0.5542  0.4959
 2720TIP3    H129575   6.558   6.557   0.357  0.9795  0.3447  0.7458
 2720TIP3    H229576   6.445   6.571   0.456 -0.4478  2.2084 -1.0429
 2721TIP3   OH229577   0.499   3.627   0.706  0.0700  0.0161 -0.3614
 2721TIP3    H129578   0.472   3.615   0.797  0.6542 -0.7742 -0.2826
 2721TIP3    H229579   0.544   3.711   0.706  0.2416 -0.0701  0.1224
 2722TIP3   OH229580   3.821   6.611   0.248  0.2882  0.1721  0.5464
 2722TIP3    H129581   3.847   6.688   0.298 -1.4502  1.1462  0.0370
 2722TIP3    H229582   3.725   6.612   0.251  0.2196 -1.7174  0.1270
 2723TIP3   OH229583   2.731   3.156   4.071  0.9597 -0.1831 -0.2068
 2723TIP3    H129584   2.771   3.189   3.990  0.9231  0.6057  0.0909
 2723TIP3    H229585   2.683   3.078   4.044 -0.9090  1.2919 -1.3793
 2724TIP3   OH229586   0.096   5.991   0.388 -0.4430  0.1345  0.1686
 2724TIP3    H129587   0.106   5.896   0.382 -0.8363  0.1381 -0.8958
 2724TIP3    H229588   0.047   6.015   0.309 -0.7834  1.1659  0.6687
 2725TIP3   OH229589   1.340   3.680  13.919  0.6106  0.1456  0.5775
 2725TIP3    H129590   1.273   3.709  13.980 -1.2567  0.8715 -1.6957
 2725TIP3    H229591   1.376   3.760  13.882  1.8085 -0.2786  0.7543
 2726TIP3   OH229592   6.123   1.000   5.668  0.0500 -0.2611  0.4041
 2726TIP3    H129593   6.081   0.969   5.588  1.3494 -0.6198 -0.1698
 2726TIP3    H229594   6.053   1.040   5.718 -0.7506  0.2088 -1.0378
 2727TIP3   OH229595   4.464   0.947  11.791 -0.5065 -0.3347  0.6231
 2727TIP3    H129596   4.460   0.854  11.768  0.9614  0.2714 -2.6294
 2727TIP3    H229597   4.501   0.949  11.879 -1.0263 -2.8020  0.9726
 2728TIP3   OH229598   1.222   2.358  15.418  0.3795 -0.2602  0.9907
 2728TIP3    H129599   1.163   2.356  15.493  0.0610 -1.9476  0.7496
 2728TIP3    H229600   1.299   2.308  15.446  0.1671 -1.0945  0.1542
 2729TIP3   OH229601   1.490   4.118  15.953  0.1687  0.0010  0.1707
 2729TIP3    H129602   1.519   4.026  15.953 -0.6230 -0.3567  3.0794
 2729TIP3    H229603   1.569   4.168  15.934  1.1089 -1.2312  0.6963
 2730TIP3   OH229604   6.244   4.204  16.321 -0.0298  0.2608  0.0755
 2730TIP3    H129605   6.202   4.256  16.252  0.1413  1.5519  0.9162
 2730TIP3    H229606   6.178   4.195  16.389  0.3061  0.3383  0.4179
 2731TIP3   OH229607   4.819   5.162  13.770 -0.5612 -0.2259 -0.5332
 2731TIP3    H129608   4.761   5.217  13.823 -1.1210 -0.5715 -0.7683
 2731TIP3    H229609   4.900   5.157  13.820 -0.5650  0.6576 -0.4197
 2732TIP3   OH229610   4.942   2.789   4.337 -0.7384 -0.6724  0.3081
 2732TIP3    H129611   4.969   2.707   4.377  3.6668 -0.7387 -2.1047
 2732TIP3    H229612   4.975   2.857   4.396  1.3777 -0.7757 -0.6574
 2733TIP3   OH229613   5.206   0.313  12.261 -0.1733  0.1634  0.3319
 2733TIP3    H129614   5.289   0.288  12.220 -0.5887  0.4457 -0.7144
 2733TIP3    H229615   5.184   0.239  12.318 -0.3282 -0.9601 -1.1299
 2734TIP3   OH229616   3.720   1.944  12.563 -0.1472 -0.5789 -0.0971
 2734TIP3    H129617   3.792   1.992  12.604  1.5622 -0.2868 -3.1763
 2734TIP3    H229618   3.655   2.012  12.542  0.6577 -0.1165 -1.1847
 2735TIP3   OH229619   2.926   5.565  15.982  0.6853 -0.4887  0.8903
 2735TIP3    H129620   2.877   5.643  16.010 -1.4467 -1.5098  0.2565
 2735TIP3    H229621   2.859   5.497  15.978  2.1926 -1.9442 -0.2185
 2736TIP3   OH229622   4.839   4.893  15.128  0.0371  0.5739 -0.5423
 2736TIP3    H129623   4.759   4.924  15.085 -0.5420 -0.3441 -0.1648
 2736TIP3    H229624   4.860   4.961  15.192  0.3796  1.5050 -1.6228
 2737TIP3   OH229625   5.784   3.413  11.337  0.2246 -0.0109 -0.0313
 2737TIP3    H129626   5.866   3.394  11.292  0.1490  0.4366 -0.3633
 2737TIP3    H229627   5.733   3.333  11.330 -0.1239  0.3174 -1.4750
 2738TIP3   OH229628   5.476   0.048   0.404  0.4578 -0.0403 -0.5235
 2738TIP3    H129629   5.569   0.038   0.424  0.7139  2.0057 -0.5184
 2738TIP3    H229630   5.461  -0.014   0.331  1.7491 -0.5487 -0.3867
 2739TIP3   OH229631   4.629   1.543  14.092  0.1615 -0.2616  0.2086
 2739TIP3    H129632   4.670   1.477  14.036  1.1789  0.1408  0.4559
 2739TIP3    H229633   4.611   1.617  14.033  0.4050 -0.1835  0.2319
 2740TIP3   OH229634   6.210   2.859   4.835  0.1248 -0.4905  0.2262
 2740TIP3    H129635   6.295   2.831   4.802 -0.2331 -1.7602  0.3231
 2740TIP3    H229636   6.184   2.932   4.778  0.9194 -0.5946 -0.2837
 2741TIP3   OH229637   0.021   0.277   4.666 -0.6459  0.2012 -0.1154
 2741TIP3    H129638   0.028   0.291   4.760 -0.2656 -0.5234 -0.0253
 2741TIP3    H229639  -0.008   0.186   4.657 -1.2026  0.4305 -0.6888
 2742TIP3   OH229640   5.027   4.916   1.842  0.9756 -0.9494  0.1336
 2742TIP3    H129641   5.035   4.823   1.863 -0.7354 -0.7199  2.2248
 2742TIP3    H229642   5.048   4.960   1.925 -1.5516  0.3133  0.2013
 2743TIP3   OH229643   4.476   3.849   1.321  0.3594  0.1386 -0.2638
 2743TIP3    H129644   4.484   3.892   1.236  0.1268 -1.6787 -1.2681
 2743TIP3    H229645   4.382   3.847   1.337  0.4829  2.7213  1.3260
 2744TIP3   OH229646   5.407   1.068  15.846 -0.4204 -0.5671  0.3317
 2744TIP3    H129647   5.492   1.026  15.857 -0.6585 -0.5928  2.5967
 2744TIP3    H229648   5.350   1.023  15.909 -1.0094  2.2358  1.9437
 2745TIP3   OH229649   5.184   5.179   5.934 -0.3275  0.3432 -0.2018
 2745TIP3    H129650   5.243   5.105   5.950  0.0031  0.7244  0.3716
 2745TIP3    H229651   5.112   5.166   5.995  0.3802  1.1941  0.8374
 2746TIP3   OH229652   6.403   4.453  14.190 -0.2626 -0.3990 -0.0674
 2746TIP3    H129653   6.454   4.415  14.261 -0.7823 -2.6350 -0.8278
 2746TIP3    H229654   6.434   4.410  14.111 -1.2641  0.3890 -0.9289
 2747TIP3   OH229655   5.196   3.460  13.367  0.2586  0.2153 -0.0772
 2747TIP3    H129656   5.203   3.535  13.426  0.5733  0.6482 -0.6547
 2747TIP3    H229657   5.135   3.400  13.411  0.1107  0.7448  0.4480
 2748TIP3   OH229658   1.488   5.995  15.178 -0.0073  0.3097 -0.4304
 2748TIP3    H129659   1.518   5.920  15.127 -0.0139 -0.2486  0.3770
 2748TIP3    H229660   1.566   6.025  15.225  0.0393  0.9308 -0.8860
 2749TIP3   OH229661   0.159   4.078   0.012 -0.1090  0.2776  0.3533
 2749TIP3    H129662   0.235   4.135   0.020 -0.2057  0.1876  2.3419
 2749TIP3    H229663   0.087   4.138  -0.008  0.5470  0.2721 -2.4505
 2750TIP3   OH229664   1.574   4.682   0.518  0.2474  0.5526  0.0659
 2750TIP3    H129665   1.527   4.601   0.497  0.1809  0.5144  0.3523
 2750TIP3    H229666   1.659   4.653   0.551  0.2078  0.5939  0.2094
 2751TIP3   OH229667   5.914   3.880  17.044  0.4420  0.1620 -0.1096
 2751TIP3    H129668   5.833   3.917  17.079  1.1663 -0.6580  2.7812
 2751TIP3    H229669   5.969   3.956  17.025 -0.1762  0.6790  0.1239
 2752TIP3   OH229670   2.141   5.199   2.382 -0.1331  0.0417 -0.3892
 2752TIP3    H129671   2.212   5.136   2.378 -0.2781 -0.1016 -0.6733
 2752TIP3    H229672   2.181   5.277   2.421 -0.7634 -1.3529  3.5382
 2753TIP3   OH229673   3.022   0.159   3.012  0.6357 -0.6566 -0.2195
 2753TIP3    H129674   2.932   0.174   3.042  0.4551 -2.2191  0.1225
 2753TIP3    H229675   3.015   0.085   2.952  1.3899  0.7146 -2.0751
 2754TIP3   OH229676   5.867   6.651  13.036 -0.7576 -0.5688  0.8899
 2754TIP3    H129677   5.842   6.656  12.944 -1.5867 -1.2981  1.0598
 2754TIP3    H229678   5.898   6.561  13.048 -2.8455 -1.2335  1.8127
 2755TIP3   OH229679   0.729   1.181   0.435  0.3959  0.9030 -0.0527
 2755TIP3    H129680   0.791   1.108   0.443 -2.3664 -1.4660  1.1042
 2755TIP3    H229681   0.735   1.227   0.519 -1.2103 -0.9388  1.1432
 2756TIP3   OH229682   3.377   5.822  16.939 -0.7207  0.0949 -0.4646
 2756TIP3    H129683   3.348   5.911  16.957 -3.7915  0.0255 -3.9138
 2756TIP3    H229684   3.451   5.832  16.879 -1.5188  0.3669 -1.4176
 2757TIP3   OH229685   1.299   6.337  11.603 -0.1059  0.1683 -0.2233
 2757TIP3    H129686   1.317   6.428  11.577 -0.5908  0.8371  1.6312
 2757TIP3    H229687   1.227   6.344  11.665  0.6392 -1.3649  0.8686
 2758TIP3   OH229688   2.562   5.419   0.566 -0.0662  0.4704 -0.0041
 2758TIP3    H129689   2.470   5.392   0.575 -0.3446  1.6184  0.8040
 2758TIP3    H229690   2.557   5.504   0.523  0.6101  0.7106  0.3907
 2759TIP3   OH229691   1.752   6.688  16.779  0.2062  0.3554  0.6157
 2759TIP3    H129692   1.704   6.691  16.696 -1.2663 -0.9390  1.3597
 2759TIP3    H229693   1.739   6.774  16.817 -0.0416  0.6026 -0.0071
 2760TIP3   OH229694   0.984   4.930  12.250 -0.4302  0.2469  0.6009
 2760TIP3    H129695   1.068   4.938  12.295  1.0460 -2.4074 -1.3733
 2760TIP3    H229696   1.002   4.955  12.160 -1.7205 -0.5102  0.0962
 2761TIP3   OH229697   4.860   4.359  12.138  0.5507  0.0775 -0.1206
 2761TIP3    H129698   4.847   4.264  12.132 -2.8492  0.4883 -1.3032
 2761TIP3    H229699   4.917   4.370  12.215  0.5418 -2.8478  0.4439
 2762TIP3   OH229700   1.606   0.203  16.194 -0.7292  0.4987  0.0387
 2762TIP3    H129701   1.542   0.222  16.126 -0.4554 -0.8015 -0.6140
 2762TIP3    H229702   1.690   0.202  16.149 -0.5026  0.0192  0.4567
 2763TIP3   OH229703   3.284   1.372   5.696 -0.3399 -0.2700 -0.5156
 2763TIP3    H129704   3.219   1.304   5.715 -0.8709  0.6921  1.3624
 2763TIP3    H229705   3.265   1.442   5.758  2.3844  0.1593 -0.0308
 2764TIP3   OH229706   6.416   4.864  15.886 -0.2663  0.0452 -0.4629
 2764TIP3    H129707   6.334   4.877  15.934  0.1963 -0.2692  0.4325
 2764TIP3    H229708   6.477   4.927  15.926 -0.0408  0.1939 -1.0401
 2765TIP3   OH229709   0.193   1.529   3.151  0.1770 -0.5619 -0.8214
 2765TIP3    H129710   0.164   1.584   3.079  2.0419  0.0768 -1.1418
 2765TIP3    H229711   0.149   1.445   3.137 -0.5175 -0.0336 -1.9249
 2766TIP3   OH229712   1.285   2.978  14.944 -0.2192 -0.2725  0.6389
 2766TIP3    H129713   1.380   2.967  14.948  0.0452  0.2342 -2.0167
 2766TIP3    H229714   1.252   2.891  14.924  0.2771  0.2787 -3.4551
 2767TIP3   OH229715   0.845   3.584   3.948  0.8848 -0.2468  0.0377
 2767TIP3    H129716   0.837   3.671   3.907 -0.5469 -1.0495 -1.4907
 2767TIP3    H229717   0.936   3.581   3.979  0.8922  1.8954  0.4092
 2768TIP3   OH229718   6.423   6.483  16.788  0.1795 -0.6653 -0.3230
 2768TIP3    H129719   6.403   6.395  16.823 -0.0934 -0.7881 -0.7763
 2768TIP3    H229720   6.372   6.488  16.707 -0.7310  0.3508  0.2925
 2769TIP3   OH229721   6.548   3.089  15.390 -0.4940 -0.3996 -0.1130
 2769TIP3    H129722   6.507   3.144  15.324  0.2107 -1.0464 -1.1194
 2769TIP3    H229723   6.560   3.147  15.465 -1.9879  0.1470 -0.2635
 2770TIP3   OH229724   6.194   2.634  14.582 -0.4931 -0.0024 -0.5173
 2770TIP3    H129725   6.209   2.555  14.530  0.3466 -0.8568  0.9454
 2770TIP3    H229726   6.261   2.695  14.553 -0.0006 -0.4873 -0.4303
 2771TIP3   OH229727   3.317   5.744  11.792 -0.1601 -0.0248 -0.2188
 2771TIP3    H129728   3.378   5.723  11.721 -0.2636 -0.7159 -0.1077
 2771TIP3    H229729   3.287   5.659  11.824  0.3312  0.2642  1.0501
 2772TIP3   OH229730   0.234   0.081  16.692 -0.3498 -0.2531 -0.3287
 2772TIP3    H129731   0.180   0.065  16.615 -0.2086 -0.5069 -0.3784
 2772TIP3    H229732   0.177   0.062  16.766 -0.4448 -0.1443 -0.3750
 2773TIP3   OH229733   0.346   0.205   2.341 -0.5712 -0.5599 -0.4770
 2773TIP3    H129734   0.420   0.252   2.303 -0.2177 -1.0758 -0.4494
 2773TIP3    H229735   0.335   0.243   2.428 -0.3822 -0.4286 -0.5095
 2774TIP3   OH229736   5.861   4.724  12.822  0.7217 -0.0927  0.2486
 2774TIP3    H129737   5.781   4.745  12.870  0.8028  0.2838  0.2266
 2774TIP3    H229738   5.833   4.664  12.753  0.3255  0.5999 -0.2098
 2775TIP3   OH229739   4.206   4.963   0.899  0.3534  0.2756 -0.4655
 2775TIP3    H129740   4.188   4.897   0.966 -0.1618  0.9573  0.0819
 2775TIP3    H229741   4.299   4.985   0.912 -0.0580  1.3193  0.8725
 2776TIP3   OH229742   4.711   6.645   3.432  0.4476 -0.0095 -0.1764
 2776TIP3    H129743   4.639   6.691   3.388 -0.1777 -1.0892 -0.3056
 2776TIP3    H229744   4.685   6.642   3.524  0.1476 -0.7073 -0.2774
 2777TIP3   OH229745   6.302   0.214   0.679 -0.5920 -0.2890 -0.5534
 2777TIP3    H129746   6.258   0.296   0.703 -0.7083 -0.2018 -1.0617
 2777TIP3    H229747   6.281   0.201   0.587  0.1623 -0.4234 -0.7159
 2778TIP3   OH229748   5.500   2.338   4.338  0.1646 -0.1847  0.8979
 2778TIP3    H129749   5.516   2.421   4.294 -1.0494 -0.9975 -1.2087
 2778TIP3    H229750   5.473   2.362   4.427  0.1164  1.6531  0.4150
 2779TIP3   OH229751   4.326   4.640   2.215 -0.4639 -0.2159 -0.0626
 2779TIP3    H129752   4.308   4.547   2.198 -0.1640 -0.4586  0.8620
 2779TIP3    H229753   4.241   4.682   2.211 -0.3810 -0.1204 -2.6692
 2780TIP3   OH229754   4.144   0.755  14.501  0.8065 -0.1575 -0.2109
 2780TIP3    H129755   4.196   0.835  14.499  0.8698 -0.1795  0.3332
 2780TIP3    H229756   4.069   0.773  14.445  1.8703 -0.4608 -1.7898
 2781TIP3   OH229757   1.302   2.038   2.752  0.2586 -0.1368  0.3514
 2781TIP3    H129758   1.332   2.058   2.840  0.7806 -1.3259  0.4469
 2781TIP3    H229759   1.213   2.004   2.764 -0.3134  1.2324  0.2548
 2782TIP3   OH229760   3.564   0.864   1.127  0.2346 -0.2101 -0.0183
 2782TIP3    H129761   3.483   0.898   1.166  0.8835  1.2527  0.1067
 2782TIP3    H229762   3.608   0.820   1.200  1.1567  1.9947  0.8439
 2783TIP3   OH229763   1.539   4.153   0.696 -0.9203 -0.0771 -0.3805
 2783TIP3    H129764   1.595   4.117   0.627  1.3166  1.8934  0.2345
 2783TIP3    H229765   1.456   4.173   0.652  0.0418  0.0521 -2.2420
 2784TIP3   OH229766   1.141   1.910  15.972  0.0408 -0.1847  0.0534
 2784TIP3    H129767   1.099   1.883  15.890 -0.9576 -1.0104  0.8161
 2784TIP3    H229768   1.099   1.994  15.993 -1.6286 -1.2100  1.0399
 2785TIP3   OH229769   5.308   3.497   1.767  0.3661 -0.4546  0.1784
 2785TIP3    H129770   5.213   3.498   1.766  0.3592  0.8066  0.8904
 2785TIP3    H229771   5.331   3.415   1.811 -0.4358  0.3633  2.2145
 2786TIP3   OH229772   0.132   2.565   4.494  0.6381 -0.4991  0.8564
 2786TIP3    H129773   0.066   2.544   4.427  0.4869 -0.3435  0.9547
 2786TIP3    H229774   0.087   2.551   4.577  0.4210  0.5371  0.9270
 2787TIP3   OH229775   4.124   2.410   4.203  0.9714  0.1651  0.1532
 2787TIP3    H129776   4.069   2.341   4.166  0.5358  0.6862 -0.1991
 2787TIP3    H229777   4.115   2.400   4.297 -1.6485  1.6572  0.1675
 2788TIP3   OH229778   6.648   3.981  17.009 -0.0916 -0.0185 -0.1470
 2788TIP3    H129779   6.636   4.076  17.009 -0.5158 -0.0691 -0.1673
 2788TIP3    H229780   6.738   3.968  16.979 -0.7665  0.2899 -2.5231
 2789TIP3   OH229781   6.344   3.337  13.701 -0.1759 -0.6455  0.1865
 2789TIP3    H129782   6.388   3.270  13.648 -0.7142 -0.0789 -0.9999
 2789TIP3    H229783   6.413   3.401  13.720 -0.4195  0.2436 -1.6774
 2790TIP3   OH229784   5.295   5.073   3.796  0.0541  0.1059 -0.0216
 2790TIP3    H129785   5.295   5.082   3.701  2.5576 -0.9515 -0.1856
 2790TIP3    H229786   5.366   5.129   3.827  0.6761 -1.1813  0.9988
 2791TIP3   OH229787   4.670   1.438   3.410  0.0899 -0.4935 -0.2421
 2791TIP3    H129788   4.620   1.452   3.330  1.3172  1.1664 -0.7807
 2791TIP3    H229789   4.710   1.352   3.398  1.0265  0.1175 -1.9094
 2792TIP3   OH229790   3.217   2.618  13.139  0.5126  0.0267  0.2544
 2792TIP3    H129791   3.200   2.562  13.215  1.2430 -1.8025 -0.8672
 2792TIP3    H229792   3.132   2.624  13.094  0.5401 -0.6028  0.1141
 2793TIP3   OH229793   3.457   6.029  15.744  0.9900  0.3988 -0.5082
 2793TIP3    H129794   3.394   5.996  15.808  2.0048  1.1482  0.9383
 2793TIP3    H229795   3.525   6.071  15.797  1.4031  1.8945 -2.1161
 2794TIP3   OH229796   2.692   1.865   4.249 -0.1677  0.3575  0.3166
 2794TIP3    H129797   2.649   1.780   4.237 -2.3222  1.5317 -0.7217
 2794TIP3    H229798   2.731   1.860   4.337  0.3417 -1.9131  0.0239
 2795TIP3   OH229799   0.256   5.292  11.693  0.3242 -0.3244  0.3008
 2795TIP3    H129800   0.209   5.210  11.713  1.4888 -0.6884  1.6931
 2795TIP3    H229801   0.188   5.359  11.694 -0.6766 -1.2747 -0.9833
 2796TIP3   OH229802   2.979   1.637   3.123  0.1848  0.2014  0.3548
 2796TIP3    H129803   2.974   1.630   3.219 -0.3197  0.6178  0.3626
 2796TIP3    H229804   2.938   1.721   3.103  0.2821  0.1131 -0.2333
 2797TIP3   OH229805   3.331   2.019   0.479 -0.6164  0.7709  0.3045
 2797TIP3    H129806   3.316   2.078   0.552 -0.6981  1.7679 -0.5035
 2797TIP3    H229807   3.252   2.024   0.426 -0.6229 -0.0613  0.2178
 2798TIP3   OH229808   4.938   3.464   4.734  0.0626 -0.8322  0.2156
 2798TIP3    H129809   4.906   3.493   4.819  1.3951 -1.5458  0.9859
 2798TIP3    H229810   4.997   3.391   4.753 -1.5331 -2.6758 -1.5143
 2799TIP3   OH229811   5.364   1.305   5.978 -0.5202 -0.2085 -0.2261
 2799TIP3    H129812   5.330   1.358   5.906  0.8044  1.9155  0.6326
 2799TIP3    H229813   5.345   1.355   6.057  2.6070  0.1277  0.4539
 2800TIP3   OH229814   4.106   5.166   3.979 -0.2526  0.2652 -0.2672
 2800TIP3    H129815   4.106   5.259   4.002  0.2061 -0.1862  1.7849
 2800TIP3    H229816   4.013   5.141   3.980 -0.3299  0.5517 -0.1844
 2801TIP3   OH229817   4.705   4.190  14.083  0.3206 -0.4046  0.4821
 2801TIP3    H129818   4.678   4.281  14.077  0.8704 -0.1515  1.6397
 2801TIP3    H229819   4.785   4.191  14.136 -0.9015 -1.7512  2.5039
 2802TIP3   OH229820   4.806   1.136  11.354  0.2075  0.2020  0.5026
 2802TIP3    H129821   4.821   1.059  11.408  1.1965 -0.9322 -1.2766
 2802TIP3    H229822   4.886   1.188  11.363  1.4836 -1.2106 -1.6663
 2803TIP3   OH229823   6.179   6.151  14.800 -0.4873 -0.2367  0.6061
 2803TIP3    H129824   6.087   6.126  14.796 -0.3288 -0.8496  0.6974
 2803TIP3    H229825   6.213   6.107  14.877 -0.5212  1.3873  1.6004
 2804TIP3   OH229826   0.061   4.888   6.574 -0.1610  0.3049  0.3595
 2804TIP3    H129827   0.146   4.855   6.602  0.3831  1.6666  0.3794
 2804TIP3    H229828   0.061   4.980   6.599 -2.0691  0.0954  1.3225
 2805TIP3   OH229829   4.971   5.514  13.238 -0.0138  0.0051  0.6298
 2805TIP3    H129830   5.044   5.506  13.176 -0.6505 -1.3760  0.0130
 2805TIP3    H229831   4.924   5.432  13.230 -0.5272  0.0771  2.4630
 2806TIP3   OH229832   6.054   0.546   0.321 -0.2169 -0.5411 -0.3000
 2806TIP3    H129833   6.003   0.623   0.297  1.4212  0.1108 -1.9639
 2806TIP3    H229834   5.994   0.472   0.311 -1.4779  0.3908  0.1903
 2807TIP3   OH229835   6.368   5.416   5.178 -0.3113  0.1767  0.0219
 2807TIP3    H129836   6.346   5.400   5.270  0.8270 -1.6123  0.0291
 2807TIP3    H229837   6.316   5.493   5.154 -1.3993  0.0759  1.8629
 2808TIP3   OH229838   5.956   2.724  12.708  0.0737  0.0101 -0.2075
 2808TIP3    H129839   5.868   2.702  12.738  0.2439  1.8755  1.9494
 2808TIP3    H229840   5.943   2.770  12.625 -1.1099  1.2577  0.6345
 2809TIP3   OH229841   2.426   1.277  16.436 -0.2947  0.2374  0.5578
 2809TIP3    H129842   2.420   1.262  16.530  0.4333  0.0572  0.5791
 2809TIP3    H229843   2.390   1.365  16.424 -2.1582 -0.4598  0.7528
 2810TIP3   OH229844   1.311   1.051   5.954  0.7037  0.4529 -0.1127
 2810TIP3    H129845   1.267   1.124   5.997  1.9546  2.3374 -1.8693
 2810TIP3    H229846   1.346   0.998   6.026 -1.0095  1.0388  1.2200
 2811TIP3   OH229847   5.017   2.509   3.093  1.1746  0.3329  0.0858
 2811TIP3    H129848   5.080   2.581   3.080  1.5116 -0.2549 -1.8970
 2811TIP3    H229849   4.994   2.482   3.004  1.1853 -2.1397  0.7747
 2812TIP3   OH229850   2.180   3.213  13.630  0.2167 -0.3853  0.7490
 2812TIP3    H129851   2.249   3.147  13.639  2.0895  1.4311  0.4183
 2812TIP3    H229852   2.120   3.195  13.702 -1.4055 -4.6668 -1.3060
 2813TIP3   OH229853   0.586   3.817  12.757  0.0298  0.3687 -0.1645
 2813TIP3    H129854   0.522   3.803  12.827  0.1536  0.7442  0.0252
 2813TIP3    H229855   0.653   3.751  12.773  0.9896  1.6010  1.1665
 2814TIP3   OH229856   2.470   1.249  13.772  0.4022 -0.1151 -0.4108
 2814TIP3    H129857   2.526   1.278  13.700 -0.1761  0.6210 -0.5667
 2814TIP3    H229858   2.429   1.329  13.804 -0.2852 -0.6055 -0.0597
 2815TIP3   OH229859   6.303   5.040  15.010 -0.3259  0.4704 -0.0938
 2815TIP3    H129860   6.359   4.979  14.962  0.3879  1.1186 -0.1123
 2815TIP3    H229861   6.265   5.096  14.943 -1.2990 -0.1957 -0.1138
 2816TIP3   OH229862   4.070   1.548  16.574  0.2054 -0.2309  0.1258
 2816TIP3    H129863   4.091   1.635  16.541  0.7551 -0.2422  0.4258
 2816TIP3    H229864   3.987   1.525  16.532 -0.5692  0.9272  0.9418
 2817TIP3   OH229865   5.180   1.739  10.681  0.3870 -0.0221 -0.0821
 2817TIP3    H129866   5.209   1.737  10.589  1.2112  1.3820  0.1166
 2817TIP3    H229867   5.136   1.823  10.690  0.8515  0.1169  0.9683
 2818TIP3   OH229868   5.599   1.554  15.275  0.3171 -0.3040  0.2238
 2818TIP3    H129869   5.600   1.470  15.229 -1.5560 -1.3143  1.8490
 2818TIP3    H229870   5.668   1.546  15.341  2.6416  0.9448 -1.8542
 2819TIP3   OH229871   4.364   5.353   1.108  0.1619 -0.1467 -0.4487
 2819TIP3    H129872   4.354   5.429   1.050  2.1633  0.2835 -0.2990
 2819TIP3    H229873   4.458   5.337   1.111  0.2188  0.0960  2.9673
 2820TIP3   OH229874   4.933   5.533  13.760 -0.3791  0.1822 -0.0749
 2820TIP3    H129875   5.028   5.521  13.755 -0.4675 -0.4140 -0.3023
 2820TIP3    H229876   4.902   5.521  13.671 -0.9854 -2.3762  0.4116
 2821TIP3   OH229877   6.072   4.582  15.477 -0.1582 -1.0246 -0.5337
 2821TIP3    H129878   6.002   4.528  15.440 -1.2839  0.6281 -0.9304
 2821TIP3    H229879   6.152   4.551  15.434 -0.7069 -2.5751 -0.4822
 2822TIP3   OH229880   0.673   1.717  15.018 -0.0253  0.5002  0.1730
 2822TIP3    H129881   0.675   1.730  15.113  1.0942  1.2891  0.0585
 2822TIP3    H229882   0.688   1.804  14.981  1.3029 -0.0530 -0.6977
 2823TIP3   OH229883   5.129   3.574   2.420  0.0235  0.1655 -0.5012
 2823TIP3    H129884   5.129   3.664   2.453  0.2689  0.6673 -1.8260
 2823TIP3    H229885   5.041   3.542   2.441  0.0286  0.6048  0.2464
 2824TIP3   OH229886   3.422   3.215   0.954  0.1581 -0.1398  0.0342
 2824TIP3    H129887   3.446   3.248   0.867  0.8629 -1.0848 -0.1510
 2824TIP3    H229888   3.327   3.206   0.950  0.1370  0.2430 -0.4901
 2825TIP3   OH229889   4.410   4.394   4.751 -0.4836  0.0207 -0.0577
 2825TIP3    H129890   4.462   4.469   4.780  0.0982 -0.6008  0.5541
 2825TIP3    H229891   4.326   4.432   4.724 -0.6342  0.7875  1.3519
 2826TIP3   OH229892   0.339   2.865   6.044 -0.7618 -0.1582 -0.2747
 2826TIP3    H129893   0.397   2.940   6.033 -0.7532  0.1352  1.5741
 2826TIP3    H229894   0.397   2.792   6.068 -0.9832 -0.2928 -0.1459
 2827TIP3   OH229895   1.251   1.296   1.837  0.2131 -0.1539 -0.0191
 2827TIP3    H129896   1.192   1.346   1.780  0.0791  0.9144  1.0148
 2827TIP3    H229897   1.236   1.332   1.925  0.6230 -1.5550  0.6626
 2828TIP3   OH229898   4.018   0.739  15.433  0.4559 -0.0405 -0.3003
 2828TIP3    H129899   4.058   0.813  15.478  1.2769 -0.4037 -0.4094
 2828TIP3    H229900   4.077   0.666  15.450  1.1114 -0.0675 -2.4244
 2829TIP3   OH229901   3.199   1.399  11.399 -0.0617  0.4674  0.3944
 2829TIP3    H129902   3.142   1.328  11.430  0.9029 -1.2963 -1.5688
 2829TIP3    H229903   3.140   1.472  11.382 -1.2804 -0.2705  1.2776
 2830TIP3   OH229904   3.778   2.910  17.154 -0.0728 -0.0554 -0.3346
 2830TIP3    H129905   3.744   2.856  17.225  0.6790 -0.3611 -0.2040
 2830TIP3    H229906   3.699   2.942  17.109 -0.5452 -0.0904  0.4517
 2831TIP3   OH229907   2.115   3.299   4.849  0.3669 -0.2054  0.7675
 2831TIP3    H129908   2.027   3.264   4.837 -0.7359  2.4253  0.4804
 2831TIP3    H229909   2.113   3.341   4.935  1.0998  0.5395  0.4372
 2832TIP3   OH229910   5.908   6.718  15.978 -0.5143  0.6530  0.0308
 2832TIP3    H129911   5.978   6.729  15.914 -0.2132  1.6369  0.5085
 2832TIP3    H229912   5.830   6.700  15.926 -0.2331  1.2540 -0.6102
 2833TIP3   OH229913   6.318   4.234  17.035  0.4860  0.4873 -0.1320
 2833TIP3    H129914   6.310   4.329  17.046  1.6049  0.8705 -2.1551
 2833TIP3    H229915   6.406   4.221  17.002 -0.7422 -0.8417 -3.3199
 2834TIP3   OH229916   1.248   2.359  10.536  0.2560  0.5671  0.3198
 2834TIP3    H129917   1.255   2.370  10.441  1.4843 -1.6512  0.0715
 2834TIP3    H229918   1.321   2.301  10.558 -0.0659  0.9556  2.6270
 2835TIP3   OH229919   0.568   4.277  14.263 -0.3946  0.2622 -0.3212
 2835TIP3    H129920   0.525   4.323  14.191  0.0093  2.2891  0.6464
 2835TIP3    H229921   0.660   4.305  14.256 -0.4873  1.0913  1.3708
 2836TIP3   OH229922   3.425   5.244  16.259 -0.1795  0.4422 -0.3777
 2836TIP3    H129923   3.410   5.336  16.279 -1.6875  0.1983 -0.2745
 2836TIP3    H229924   3.457   5.206  16.341  0.1809  0.8078 -0.3455
 2837TIP3   OH229925   4.798   3.524   3.298  0.0857 -0.1804 -0.0130
 2837TIP3    H129926   4.732   3.585   3.330  0.1352  1.0353 -2.0630
 2837TIP3    H229927   4.761   3.438   3.316 -1.9475  0.4627 -0.8048
 2838TIP3   OH229928   3.707   1.956   3.356 -0.2246  0.6206  0.3230
 2838TIP3    H129929   3.799   1.978   3.369 -0.6124  2.0003  0.9028
 2838TIP3    H229930   3.667   1.964   3.442 -0.5738 -1.7822  0.4583
 2839TIP3   OH229931   1.836   1.552  17.079 -0.0204 -0.0455  0.8975
 2839TIP3    H129932   1.824   1.490  17.007  0.8050  1.6700 -0.8507
 2839TIP3    H229933   1.792   1.513  17.153 -0.0264 -2.4087 -0.2691
 2840TIP3   OH229934   4.743   5.707   3.357 -0.7077  0.1435  0.4254
 2840TIP3    H129935   4.657   5.680   3.388 -0.4007 -1.0730  0.2638
 2840TIP3    H229936   4.796   5.628   3.360 -0.7422 -0.2310 -3.5331
 2841TIP3   OH229937   2.884   0.618  15.776 -0.4942  0.3474 -0.1957
 2841TIP3    H129938   2.925   0.685  15.831  1.1778 -1.2102  0.5643
 2841TIP3    H229939   2.792   0.644  15.770 -0.0843  2.1787  0.8362
 2842TIP3   OH229940   2.041   3.241   3.122  0.6060 -0.2095  0.2543
 2842TIP3    H129941   2.012   3.213   3.209  0.1595  0.0586  0.1968
 2842TIP3    H229942   2.086   3.324   3.137  1.6885 -0.8017  0.3899
 2843TIP3   OH229943   4.517   5.583   0.123 -0.1873 -0.4893 -0.0784
 2843TIP3    H129944   4.451   5.553   0.059 -1.0078 -0.8268  0.8972
 2843TIP3    H229945   4.547   5.502   0.165 -0.3848 -0.1805  0.6567
 2844TIP3   OH229946   6.697   6.552   0.148  0.5947 -0.2783 -0.1604
 2844TIP3    H129947   6.731   6.624   0.200  4.4433 -2.5728  0.8787
 2844TIP3    H229948   6.705   6.581   0.058 -0.2153  1.4077  0.2676
 2845TIP3   OH229949   3.675   2.951  15.283 -0.2515 -0.3320 -0.2290
 2845TIP3    H129950   3.661   2.868  15.329 -0.9913  0.2820  0.6944
 2845TIP3    H229951   3.764   2.944  15.248  0.1076 -1.0906  0.7610
 2846TIP3   OH229952   6.371   5.433   0.199  0.0333 -0.0669 -0.1706
 2846TIP3    H129953   6.307   5.470   0.260  0.2273 -1.9722  1.2759
 2846TIP3    H229954   6.373   5.340   0.220  2.0935 -0.3330 -1.3019
 2847TIP3   OH229955   3.710   0.987   0.202 -0.0892  0.1545 -0.3176
 2847TIP3    H129956   3.668   0.917   0.252 -0.5536  0.3735 -0.3913
 2847TIP3    H229957   3.804   0.975   0.217 -0.1139 -0.9270 -0.9069
 2848TIP3   OH229958   0.281   3.254   6.035  0.0678  0.6289 -0.2474
 2848TIP3    H129959   0.190   3.266   6.009 -0.1346  0.9324  0.5606
 2848TIP3    H229960   0.278   3.188   6.104  0.5364  0.1659 -0.6658
 2849TIP3   OH229961   2.705   4.864   1.831  0.4043 -0.6098  0.4593
 2849TIP3    H129962   2.785   4.904   1.797 -0.4460 -0.8283 -1.9611
 2849TIP3    H229963   2.641   4.935   1.832 -0.1030 -1.0529 -0.2390
 2850TIP3   OH229964   0.162   6.187   6.292  0.2899  0.6976 -0.7094
 2850TIP3    H129965   0.138   6.276   6.319  0.2924  0.9302 -1.4547
 2850TIP3    H229966   0.094   6.162   6.229  1.5564  1.0913 -2.2968
 2851TIP3   OH229967   3.843   5.107   1.597  0.1345 -0.2085 -0.1993
 2851TIP3    H129968   3.773   5.164   1.568 -0.8159 -1.7286 -1.0482
 2851TIP3    H229969   3.919   5.135   1.546  0.4209  1.9867  1.3195
 2852TIP3   OH229970   1.312   5.307  15.576  0.6522 -0.0182 -0.0088
 2852TIP3    H129971   1.366   5.241  15.620  1.0983 -0.2742 -0.8975
 2852TIP3    H229972   1.365   5.387  15.578  0.9042 -0.1637 -0.5152
 2853TIP3   OH229973   4.149   6.768   0.274  0.2191 -0.4106  1.2736
 2853TIP3    H129974   4.106   6.713   0.340 -0.2553  0.2252  1.5054
 2853TIP3    H229975   4.159   6.711   0.198 -0.7645 -0.6641  1.3266
 2854TIP3   OH229976   1.758   5.701  12.884  0.4340  0.3700 -0.0673
 2854TIP3    H129977   1.679   5.650  12.906  1.5654 -0.3842  2.6023
 2854TIP3    H229978   1.743   5.786  12.924  0.2729  0.8274 -1.0698
 2855TIP3   OH229979   5.155   0.675   1.480  0.4793 -0.2303 -0.1838
 2855TIP3    H129980   5.088   0.696   1.545  0.5968 -0.6684  0.0874
 2855TIP3    H229981   5.214   0.614   1.526  0.9243 -0.0421 -0.4922
 2856TIP3   OH229982   0.596   5.871  11.322  0.3629 -0.2574 -0.2259
 2856TIP3    H129983   0.632   5.959  11.317 -0.5636  0.1540  0.2387
 2856TIP3    H229984   0.654   5.819  11.266  0.6615  0.7252 -0.8596
 2857TIP3   OH229985   6.161   2.674  12.230 -0.0536  0.5845  0.1325
 2857TIP3    H129986   6.141   2.580  12.230 -0.2770  0.6296  0.2264
 2857TIP3    H229987   6.179   2.695  12.139  1.0694  0.2310  0.2569
 2858TIP3   OH229988   3.467   3.511  11.287  0.4476 -0.1884 -0.5508
 2858TIP3    H129989   3.559   3.531  11.268  1.5840 -3.1583  1.1219
 2858TIP3    H229990   3.442   3.447  11.221  0.0273 -0.3953 -0.1998
 2859TIP3   OH229991   3.198   3.229  16.281 -0.0683  0.2054 -0.4517
 2859TIP3    H129992   3.141   3.290  16.234  0.8342  2.4474  1.1922
 2859TIP3    H229993   3.197   3.149  16.228 -2.3111  1.1911 -2.0318
 2860TIP3   OH229994   4.191   3.191   2.316  0.6863  0.1158 -0.2083
 2860TIP3    H129995   4.143   3.110   2.334  0.0843  0.4381 -0.3419
 2860TIP3    H229996   4.141   3.259   2.362  1.5059  0.3398  0.3906
 2861TIP3   OH229997   4.450   5.409   1.529  0.5823  0.0605  0.3117
 2861TIP3    H129998   4.394   5.360   1.469 -1.9908 -0.8472  3.1949
 2861TIP3    H229999   4.492   5.342   1.583  1.8439  0.8784  0.3936
 2862TIP3   OH230000   3.206   6.744  14.420  0.2407 -0.0899  0.4392
 2862TIP3    H130001   3.177   6.768  14.332 -1.5432 -0.1617  0.9625
 2862TIP3    H230002   3.287   6.794  14.433  0.5200 -0.0718 -1.2247
 2863TIP3   OH230003   4.340   3.796  16.001 -0.1924  0.3558  0.1831
 2863TIP3    H130004   4.367   3.797  15.909  0.5769  0.7854  0.3966
 2863TIP3    H230005   4.248   3.823  16.000 -0.2089  0.2869 -0.4634
 2864TIP3   OH230006   2.554   6.012   2.228  0.6282  0.1345  0.2671
 2864TIP3    H130007   2.575   5.929   2.186  0.5108  1.0372 -1.6672
 2864TIP3    H230008   2.624   6.071   2.200 -0.2238  1.1238  0.1832
 2865TIP3   OH230009   4.214   6.331  12.510 -0.5999  0.0471  0.0024
 2865TIP3    H130010   4.174   6.251  12.542  1.4779 -0.8551  0.5497
 2865TIP3    H230011   4.253   6.306  12.426  0.0636  0.4699  0.1749
 2866TIP3   OH230012   4.852   0.627   4.882 -0.1400  0.1946  0.3555
 2866TIP3    H130013   4.847   0.552   4.822 -0.9208  0.7153 -0.2528
 2866TIP3    H230014   4.932   0.672   4.858  0.6747 -0.7803  1.1472
 2867TIP3   OH230015   4.886   4.478   0.087  0.2419  0.2152  0.0001
 2867TIP3    H130016   4.885   4.572   0.101 -0.2959  0.2732 -0.4073
 2867TIP3    H230017   4.913   4.441   0.171  1.7658  0.7910 -0.2092
 2868TIP3   OH230018   5.381   4.002   2.428  0.7463 -0.2285 -0.0594
 2868TIP3    H130019   5.434   4.007   2.508  2.2875  0.5835 -1.0788
 2868TIP3    H230020   5.359   4.093   2.408 -0.2422 -0.4834 -0.1961
 2869TIP3   OH230021   0.211   2.572   4.088  0.0372 -0.2838  0.2508
 2869TIP3    H130022   0.264   2.613   4.156 -0.6755  0.6596  0.2535
 2869TIP3    H230023   0.218   2.478   4.106  2.8592 -0.3267 -0.6122
 2870TIP3   OH230024   2.227   3.235  12.975 -0.6784 -0.1576 -0.5327
 2870TIP3    H130025   2.285   3.236  12.898 -0.0236 -0.3583 -0.0536
 2870TIP3    H230026   2.206   3.327  12.990 -1.4219 -0.1690 -1.3925
 2871TIP3   OH230027   2.322   2.564   0.248  0.1584 -0.0801  0.4845
 2871TIP3    H130028   2.322   2.470   0.262 -1.9711 -0.0004  1.3596
 2871TIP3    H230029   2.370   2.600   0.322  1.3862 -0.4565 -0.0947
 2872TIP3   OH230030   1.827   4.373   5.805  0.3379  0.1134  0.3905
 2872TIP3    H130031   1.741   4.386   5.844 -0.1439  2.9617 -1.3971
 2872TIP3    H230032   1.876   4.451   5.829  1.8200 -0.5910 -0.2296
 2873TIP3   OH230033   0.979   5.704  14.701  0.1991  0.4282  0.1122
 2873TIP3    H130034   0.929   5.649  14.642  0.6782  1.5115 -1.3580
 2873TIP3    H230035   0.916   5.767  14.736 -0.1167 -0.3139  0.9209
 2874TIP3   OH230036   4.787   6.191  14.793  0.3180 -0.2238 -0.0654
 2874TIP3    H130037   4.796   6.111  14.742  2.1348  0.0294 -0.2084
 2874TIP3    H230038   4.695   6.216  14.783  0.0116 -1.6333 -0.9941
 2875TIP3   OH230039   4.414   3.099  16.755  0.0212 -0.3151 -0.1764
 2875TIP3    H130040   4.439   3.010  16.782 -0.1124  0.1039  1.3999
 2875TIP3    H230041   4.488   3.154  16.779  0.0405  0.0398 -1.0089
 2876TIP3   OH230042   2.869   4.807  11.131  0.1827 -0.4415  0.2480
 2876TIP3    H130043   2.776   4.797  11.110 -0.3242  0.7650  1.7247
 2876TIP3    H230044   2.909   4.724  11.104 -1.5132 -1.4379  0.6485
 2877TIP3   OH230045   0.044   5.866  11.249  0.4299  0.0172  0.0996
 2877TIP3    H130046   0.069   5.774  11.259  0.8577  0.1765  0.5322
 2877TIP3    H230047  -0.010   5.884  11.326  0.1845  0.0749 -0.0868
 2878TIP3   OH230048   4.247   1.811   1.122 -0.1019  0.2273  0.5467
 2878TIP3    H130049   4.161   1.768   1.121 -0.3843  0.5610  3.1513
 2878TIP3    H230050   4.228   1.904   1.113  0.0860  0.2145  0.0037
 2879TIP3   OH230051   3.388   1.654  13.149  0.5876 -0.4037 -0.1207
 2879TIP3    H130052   3.446   1.585  13.117  0.5870 -0.5609  0.2074
 2879TIP3    H230053   3.421   1.734  13.108  0.0390 -0.7216 -1.2036
 2880TIP3   OH230054   3.335   2.212   5.178 -0.2112 -0.0736  0.0862
 2880TIP3    H130055   3.372   2.226   5.265  0.8672  1.5180 -0.5738
 2880TIP3    H230056   3.320   2.300   5.144  1.5381 -0.5693 -2.2111
 2881TIP3   OH230057   4.991   5.686  11.340 -0.0576 -0.0556 -0.3251
 2881TIP3    H130058   5.048   5.610  11.339  0.4234  0.2936  0.3658
 2881TIP3    H230059   4.925   5.667  11.273 -0.8968 -1.7899  0.9272
 2882TIP3   OH230060   4.585   6.149  13.625 -0.7794 -0.0384 -0.1396
 2882TIP3    H130061   4.520   6.115  13.564 -0.4131 -1.2304  0.0949
 2882TIP3    H230062   4.535   6.181  13.699 -1.1043 -1.8335  0.4729
 2883TIP3   OH230063   4.837   2.599   0.869  0.3675  0.1074  0.0516
 2883TIP3    H130064   4.896   2.552   0.811  2.0971  0.8219  1.1618
 2883TIP3    H230065   4.841   2.552   0.952 -1.7232 -0.6357 -0.2134
 2884TIP3   OH230066   3.991   4.611  17.068  0.3149  0.2954 -0.1518
 2884TIP3    H130067   4.050   4.538  17.089  2.1351  1.5607 -0.6895
 2884TIP3    H230068   3.994   4.617  16.972 -0.9802  0.1949 -0.2238
 2885TIP3   OH230069   3.670   2.003  16.255  0.0469  0.2037  0.4792
 2885TIP3    H130070   3.634   2.005  16.167 -0.5916  0.6749  0.7476
 2885TIP3    H230071   3.728   2.080  16.259  1.4953 -0.8092 -0.1072
 2886TIP3   OH230072   5.497   6.280   2.286  0.2176 -0.5905  0.4800
 2886TIP3    H130073   5.567   6.318   2.339  1.0283 -0.4223 -0.6505
 2886TIP3    H230074   5.531   6.194   2.261  0.6866  0.0572 -1.2625
 2887TIP3   OH230075   3.440   1.306   6.462  0.0478 -0.3359 -0.4967
 2887TIP3    H130076   3.509   1.290   6.398 -1.3691 -0.1294 -2.1255
 2887TIP3    H230077   3.481   1.365   6.526  1.9484 -1.7086 -0.3457
 2888TIP3   OH230078   2.367   5.974   3.050  0.7296 -0.5606  0.6618
 2888TIP3    H130079   2.335   5.934   2.969  0.0772  0.4774  0.3956
 2888TIP3    H230080   2.355   5.906   3.116  0.3074 -1.0607  0.0851
 2889TIP3   OH230081   2.597   4.131   3.533  0.3115 -0.1358  0.0990
 2889TIP3    H130082   2.671   4.106   3.478 -1.2748  1.0670 -2.8637
 2889TIP3    H230083   2.580   4.222   3.509 -0.8933  0.2529  2.2060
 2890TIP3   OH230084   2.409   2.281   0.298  0.5991 -0.3355 -0.2336
 2890TIP3    H130085   2.356   2.222   0.352  0.4754 -1.7661 -1.8403
 2890TIP3    H230086   2.489   2.294   0.348 -0.7807  1.0264  1.7629
 2891TIP3   OH230087   6.287   3.998   5.443  0.0511 -0.8717  0.3801
 2891TIP3    H130088   6.371   3.953   5.454 -0.0482 -0.8164  1.5473
 2891TIP3    H230089   6.254   4.008   5.533 -1.6771 -1.7901 -0.1131
 2892TIP3   OH230090   4.938   0.795   1.613  0.3949 -0.7991  0.6961
 2892TIP3    H130091   4.877   0.765   1.681 -0.0961 -1.5300 -0.0426
 2892TIP3    H230092   4.890   0.863   1.566 -0.7816 -2.8304 -1.2607
 2893TIP3   OH230093   2.891   2.870   2.303  0.2288 -0.2333  0.1450
 2893TIP3    H130094   2.831   2.885   2.230  1.2549  0.6740 -0.5605
 2893TIP3    H230095   2.866   2.785   2.338 -0.9779 -0.2091 -0.5832
 2894TIP3   OH230096   1.818   6.174  13.507 -0.4644 -0.0654  0.0374
 2894TIP3    H130097   1.870   6.244  13.469 -3.0717  1.5375 -0.8903
 2894TIP3    H230098   1.776   6.214  13.583 -0.5190 -1.2178  0.6391
 2895TIP3   OH230099   5.630   0.219  12.270  0.3956 -0.0697  0.4270
 2895TIP3    H130100   5.579   0.298  12.291  0.0148 -0.2453  0.1889
 2895TIP3    H230101   5.603   0.154  12.335 -1.2288 -0.7966 -0.9005
 2896TIP3   OH230102   1.774   2.414   3.824  0.3690 -0.1950  0.5259
 2896TIP3    H130103   1.742   2.460   3.747 -1.0445 -2.3909 -0.2813
 2896TIP3    H230104   1.859   2.380   3.799 -0.5444 -1.8061 -0.4889
 2897TIP3   OH230105   1.110   3.464  14.052  0.0033  1.2229 -0.3125
 2897TIP3    H130106   1.030   3.492  14.008 -1.4752 -1.7982  0.1998
 2897TIP3    H230107   1.172   3.447  13.981 -0.7834  0.8208 -0.9091
 2898TIP3   OH230108   6.701   0.497  12.118 -0.3335 -0.4134 -0.0299
 2898TIP3    H130109   6.736   0.439  12.186 -0.0045  0.3312  0.4477
 2898TIP3    H230110   6.664   0.571  12.167 -1.5211 -0.6153 -0.5853
 2899TIP3   OH230111   3.364   4.931   0.371 -0.0508 -0.3556  0.1039
 2899TIP3    H130112   3.441   4.976   0.336  0.6768 -1.7498 -0.1710
 2899TIP3    H230113   3.353   4.968   0.459  1.5852 -0.8423  0.5596
 2900TIP3   OH230114   6.343   2.384   1.710 -0.4363  0.8257  0.1048
 2900TIP3    H130115   6.330   2.449   1.642 -1.0885  0.0146 -0.5696
 2900TIP3    H230116   6.392   2.430   1.779  0.8080  1.4708 -1.1705
 2901TIP3   OH230117   5.747   2.689   2.678  0.0537 -0.3667  0.1857
 2901TIP3    H130118   5.790   2.687   2.592 -1.3905  0.6067 -0.6068
 2901TIP3    H230119   5.675   2.627   2.670 -0.3307  0.0314  0.5626
 2902TIP3   OH230120   3.228   2.863  12.164 -0.1583  0.4811 -0.1104
 2902TIP3    H130121   3.287   2.812  12.108  0.0052 -0.8954  1.2501
 2902TIP3    H230122   3.187   2.798  12.221 -1.2226  1.7040  0.5655
 2903TIP3   OH230123   6.439   2.012  11.936 -0.3313  0.3032  0.1723
 2903TIP3    H130124   6.478   2.012  12.023  2.1215  0.8827 -0.8393
 2903TIP3    H230125   6.407   1.922  11.925  2.1838 -0.7255  0.5415
 2904TIP3   OH230126   3.668   4.917  14.046  0.0695  0.1668 -0.2913
 2904TIP3    H130127   3.600   4.982  14.060 -0.3769 -0.6939  2.1608
 2904TIP3    H230128   3.622   4.839  14.017 -0.2922 -0.7599  2.4233
 2905TIP3   OH230129   3.366   3.628  13.759 -0.2409  0.3485  0.4500
 2905TIP3    H130130   3.384   3.721  13.743 -0.5443  0.1398 -1.2126
 2905TIP3    H230131   3.435   3.602  13.821  0.7112  1.3401 -0.1455
 2906TIP3   OH230132   5.411   1.669  16.091 -0.7267  0.2165 -0.0253
 2906TIP3    H130133   5.355   1.614  16.035 -0.4205  0.4338 -0.5424
 2906TIP3    H230134   5.382   1.758  16.074  0.4645  0.4246 -1.0809
 2907TIP3   OH230135   2.332   5.425   1.620 -0.0507  0.3647 -0.7629
 2907TIP3    H130136   2.426   5.444   1.618 -0.0347  0.3544 -0.3538
 2907TIP3    H230137   2.300   5.473   1.696  0.1894 -1.9846  0.9419
 2908TIP3   OH230138   2.592   2.891  12.176 -0.5817 -0.2274  0.0487
 2908TIP3    H130139   2.634   2.855  12.098 -0.3218  1.6786 -0.7463
 2908TIP3    H230140   2.657   2.881  12.245  0.3504  0.7046 -0.6699
 2909TIP3   OH230141   2.795   2.963   4.252 -0.3477 -0.4629  0.2546
 2909TIP3    H130142   2.852   2.994   4.323 -0.1060 -1.5536  0.5505
 2909TIP3    H230143   2.774   3.043   4.202  0.0960  0.2027  1.0990
 2910TIP3   OH230144   3.851   0.258  15.995  0.1207 -0.2728 -0.2267
 2910TIP3    H130145   3.762   0.285  16.016  0.3731  0.7869 -0.4988
 2910TIP3    H230146   3.839   0.188  15.930 -0.5341 -0.9862  0.6327
 2911TIP3   OH230147   2.263   2.625   2.632 -0.3183  0.0180 -0.4281
 2911TIP3    H130148   2.244   2.689   2.564  0.1623  0.2837 -0.3157
 2911TIP3    H230149   2.309   2.554   2.587  1.5449  0.9661 -0.1120
 2912TIP3   OH230150   4.025   1.274   4.514  0.8002 -0.6210 -0.3225
 2912TIP3    H130151   4.029   1.292   4.421  0.6953 -2.0591 -0.6314
 2912TIP3    H230152   4.036   1.360   4.556 -0.5251  0.2401 -1.6513
 2913TIP3   OH230153   4.168   0.564   5.908 -1.1156 -0.6658 -0.9612
 2913TIP3    H130154   4.162   0.575   6.002  2.8034  2.6022 -0.8392
 2913TIP3    H230155   4.177   0.469   5.896  1.3562 -1.0453  2.3569
 2914TIP3   OH230156   2.789   4.160   2.050 -0.4985 -0.1260 -0.4415
 2914TIP3    H130157   2.694   4.154   2.039 -0.4247  0.7216 -1.7242
 2914TIP3    H230158   2.814   4.238   2.002  0.9305 -0.6592 -0.6111
 2915TIP3   OH230159   1.651   4.241   0.081  0.2332  0.1729 -0.1238
 2915TIP3    H130160   1.709   4.192   0.024 -0.1858 -0.2821 -0.1669
 2915TIP3    H230161   1.576   4.183   0.095  0.6190  0.0028  1.4171
 2916TIP3   OH230162   0.321   1.606  14.891 -0.5391 -0.2052  0.1132
 2916TIP3    H130163   0.411   1.585  14.869 -0.6762  0.5220 -1.2262
 2916TIP3    H230164   0.320   1.701  14.901 -1.0772 -0.2476  0.5466
 2917TIP3   OH230165   0.045   2.839   5.164  0.0480  0.0941  0.4004
 2917TIP3    H130166   0.137   2.846   5.138  0.6293 -1.8898  1.7005
 2917TIP3    H230167   0.041   2.881   5.250  0.0439 -0.8412  0.8798
 2918TIP3   OH230168   1.141   0.981  13.766  0.2068 -0.3811 -0.0316
 2918TIP3    H130169   1.142   1.060  13.712  2.5743 -0.2205  0.1616
 2918TIP3    H230170   1.129   1.014  13.855  0.3746 -0.3225 -0.0310
 2919TIP3   OH230171   6.106   4.065   1.564  0.0103  0.3665 -0.5120
 2919TIP3    H130172   6.096   4.158   1.543  0.2534  0.6455  0.5485
 2919TIP3    H230173   6.058   4.020   1.495 -0.0831  1.2759 -1.0644
 2920TIP3   OH230174   5.448   1.460  11.429  0.4377  0.4478 -0.0786
 2920TIP3    H130175   5.456   1.366  11.416 -0.4534  0.1369  1.3137
 2920TIP3    H230176   5.502   1.499  11.361 -0.0852 -1.0410 -1.4052
 2921TIP3   OH230177   5.511   4.065   2.661  0.4414 -0.2139  0.3081
 2921TIP3    H130178   5.484   4.156   2.671 -0.0378 -0.5207  2.3984
 2921TIP3    H230179   5.607   4.068   2.665  0.4978  0.3001 -1.0122
 2922TIP3   OH230180   2.413   3.436  14.889  0.2920  0.5959  0.6316
 2922TIP3    H130181   2.478   3.389  14.837 -0.1679 -0.9173  1.3687
 2922TIP3    H230182   2.332   3.429  14.839 -0.0199 -0.3602  1.2448
 2923TIP3   OH230183   0.306   1.487   5.569  0.1531  0.3916 -0.1373
 2923TIP3    H130184   0.236   1.460   5.508  0.3447 -1.3998  0.3789
 2923TIP3    H230185   0.259   1.521   5.645 -0.1518 -0.3208 -0.0027
 2924TIP3   OH230186   3.478   5.243   5.082  0.1449  0.3134  0.4581
 2924TIP3    H130187   3.529   5.197   5.148 -0.5766 -1.4730 -0.1800
 2924TIP3    H230188   3.415   5.295   5.132 -0.0037 -0.5570  1.1834
 2925TIP3   OH230189   1.005   6.317  12.075 -0.2563 -0.5394 -0.7023
 2925TIP3    H130190   1.022   6.384  12.141 -0.0310  1.8676 -3.0468
 2925TIP3    H230191   0.935   6.354  12.021 -0.6512 -2.5558 -1.6632
 2926TIP3   OH230192   6.359   3.592  12.151 -0.2877  0.2946 -0.3443
 2926TIP3    H130193   6.450   3.605  12.124 -0.5976  0.4376 -1.3610
 2926TIP3    H230194   6.364   3.581  12.246  0.6878  1.1721 -0.2765
 2927TIP3   OH230195   0.407   2.669   3.523  0.5720 -0.2927 -0.5780
 2927TIP3    H130196   0.401   2.709   3.609  0.2972 -1.5342  0.0045
 2927TIP3    H230197   0.487   2.616   3.527 -0.0107 -1.1965 -0.7053
 2928TIP3   OH230198   6.616   6.681  16.317  0.5651 -0.1124  0.1470
 2928TIP3    H130199   6.552   6.734  16.364  0.1472 -0.4685 -0.0153
 2928TIP3    H230200   6.616   6.597  16.363  2.2758  0.4602  1.3076
 2929TIP3   OH230201   1.808   0.041   2.071  0.4435 -0.0502 -0.3520
 2929TIP3    H130202   1.823  -0.003   2.155  1.3119 -0.8222 -0.8821
 2929TIP3    H230203   1.881   0.104   2.064 -0.1946  0.7316 -0.0811
 2930TIP3   OH230204   6.721   5.526   0.469  0.4534  0.2709  0.0311
 2930TIP3    H130205   6.710   5.433   0.448 -0.7757  0.5894 -0.8391
 2930TIP3    H230206   6.734   5.527   0.564  2.1945 -0.8999 -0.1437
 2931TIP3   OH230207   0.764   5.902   1.134 -0.6710  0.2830  0.0602
 2931TIP3    H130208   0.761   5.916   1.040 -0.1112  0.2655  0.0381
 2931TIP3    H230209   0.750   5.807   1.145  3.5210 -0.5915 -0.3121
 2932TIP3   OH230210   3.225   3.674  11.894 -0.1699 -0.1515 -0.0306
 2932TIP3    H130211   3.228   3.585  11.928  0.0077 -1.1077 -2.3637
 2932TIP3    H230212   3.257   3.728  11.966  0.0568 -1.9940  1.3303
 2933TIP3   OH230213   3.525   1.721   3.298  0.1727  0.2607 -0.1174
 2933TIP3    H130214   3.595   1.787   3.293 -0.1338  0.6191  0.1893
 2933TIP3    H230215   3.445   1.773   3.298 -0.0958 -0.1490 -0.4740
 2934TIP3   OH230216   4.853   1.674   0.190 -0.6764  0.4531 -0.1148
 2934TIP3    H130217   4.812   1.587   0.192  0.2835  0.0073  1.9132
 2934TIP3    H230218   4.816   1.720   0.265  1.2810  0.5912  0.8240
 2935TIP3   OH230219   6.114   0.993   3.249  0.5932 -0.7027  0.6444
 2935TIP3    H130220   6.137   0.905   3.281  1.0600 -0.1728  1.8353
 2935TIP3    H230221   6.127   0.988   3.154 -0.7766 -2.3261  0.4879
 2936TIP3   OH230222   6.498   4.849   4.407  0.1895 -0.2881  0.2049
 2936TIP3    H130223   6.542   4.844   4.322  0.5774  0.5595  0.3422
 2936TIP3    H230224   6.567   4.872   4.469 -0.3947  0.9029  0.4494
 2937TIP3   OH230225   4.124   3.486   4.021 -0.3339 -0.0158 -0.7616
 2937TIP3    H130226   4.173   3.467   3.941 -1.1322 -0.2954 -1.1907
 2937TIP3    H230227   4.173   3.440   4.089  1.7432  2.1351 -0.6341
 2938TIP3   OH230228   2.627   4.451   1.622 -0.1961  0.1410 -0.0636
 2938TIP3    H130229   2.710   4.498   1.631  0.6327 -0.7644 -2.1390
 2938TIP3    H230230   2.571   4.510   1.571  0.0896 -0.2113 -0.8116
 2939TIP3   OH230231   0.017   0.481  11.002  0.4245 -0.5721  0.0222
 2939TIP3    H130232   0.043   0.391  11.017  0.4038 -0.7699 -1.0535
 2939TIP3    H230233   0.056   0.504  10.918 -0.2726  0.1398 -0.1285
 2940TIP3   OH230234   1.398   6.077   0.943 -0.2726 -0.5844 -0.1140
 2940TIP3    H130235   1.484   6.085   0.985 -0.0195  1.2299 -0.8998
 2940TIP3    H230236   1.418   6.077   0.849 -1.1695  0.3338 -0.3115
 2941TIP3   OH230237   1.478   5.045   3.815 -0.2598  0.0102  0.2553
 2941TIP3    H130238   1.545   5.060   3.747 -1.3673 -1.6997 -1.3377
 2941TIP3    H230239   1.518   4.981   3.873  1.1566  2.3562  2.0294
 2942TIP3   OH230240   6.220   4.843  16.121 -0.0511 -0.5362  0.3114
 2942TIP3    H130241   6.147   4.843  16.058  0.8149 -1.3882 -0.7369
 2942TIP3    H230242   6.209   4.760  16.168 -0.8375  0.2102  1.4925
 2943TIP3   OH230243   5.954   6.075   0.953  0.4595  0.4956  0.2184
 2943TIP3    H130244   5.927   6.064   1.044  0.0552  1.3863  0.2141
 2943TIP3    H230245   5.958   6.170   0.941  1.2872  0.3824 -0.4663
 2944TIP3   OH230246   2.083   4.732   4.204 -0.2924  1.1961  0.3644
 2944TIP3    H130247   2.103   4.664   4.139 -0.9657 -0.0155  1.3710
 2944TIP3    H230248   2.151   4.797   4.192  0.5809  0.1803 -0.4252
 2945TIP3   OH230249   1.356   4.582   1.428  0.2197  0.1414 -0.4142
 2945TIP3    H130250   1.354   4.554   1.519  0.1089 -1.5498 -0.8951
 2945TIP3    H230251   1.449   4.595   1.408  0.2914 -0.1014 -0.2359
 2946TIP3   OH230252   1.518   1.410  17.061 -0.3862  0.0049  0.6991
 2946TIP3    H130253   1.559   1.440  16.980 -0.2173 -0.4350  0.6228
 2946TIP3    H230254   1.585   1.420  17.128  0.2003 -1.6478  0.4013
 2947TIP3   OH230255   5.463   6.370  15.654  0.2699 -0.3759 -0.0369
 2947TIP3    H130256   5.466   6.407  15.742  0.2382 -2.1443  0.7484
 2947TIP3    H230257   5.511   6.287  15.661  0.9650 -0.1757 -1.8849
 2948TIP3   OH230258   4.501   2.135  16.131  0.2449  0.2848  0.6416
 2948TIP3    H130259   4.577   2.077  16.123  0.2533 -0.1099  2.9748
 2948TIP3    H230260   4.454   2.123  16.048  2.0167 -0.4546 -0.3186
 2949TIP3   OH230261   5.411   4.047   4.919 -0.7577 -0.1301 -0.2257
 2949TIP3    H130262   5.406   4.119   4.982 -0.4764 -1.1740  1.0396
 2949TIP3    H230263   5.429   3.969   4.973 -1.3871 -1.2045 -1.5075
 2950TIP3   OH230264   5.450   2.569  15.393  0.0248  0.1814 -0.1622
 2950TIP3    H130265   5.430   2.532  15.307  0.5052  0.4225 -0.3797
 2950TIP3    H230266   5.365   2.600  15.426 -0.0846  0.5101 -0.7469
 2951TIP3   OH230267   2.217   5.181  12.799  0.1435  0.1330  0.6414
 2951TIP3    H130268   2.128   5.214  12.786  0.0707  0.1816  1.2510
 2951TIP3    H230269   2.267   5.256  12.831 -0.1153 -0.3983  2.4186
 2952TIP3   OH230270   4.841   1.684   3.165 -0.3276  0.0989  0.4732
 2952TIP3    H130271   4.829   1.650   3.254  0.2406 -0.5802  0.2961
 2952TIP3    H230272   4.842   1.606   3.109  0.8832  0.4074  0.0463
 2953TIP3   OH230273   3.455   4.226   2.882 -0.2110  0.0291 -0.3441
 2953TIP3    H130274   3.508   4.217   2.803  0.6258 -1.8663  0.3729
 2953TIP3    H230275   3.424   4.317   2.880  0.8279  0.3872 -2.1807
 2954TIP3   OH230276   3.693   6.305  12.021  0.0547 -0.4818 -0.2678
 2954TIP3    H130277   3.736   6.225  12.049 -1.8402 -1.0060  1.3328
 2954TIP3    H230278   3.617   6.276  11.970  0.4195  0.3730 -1.3525
 2955TIP3   OH230279   4.102   3.811  12.113 -0.2210 -0.6033 -0.2158
 2955TIP3    H130280   4.039   3.849  12.175  0.3892 -0.4777  0.3335
 2955TIP3    H230281   4.142   3.738  12.161  1.2748  0.3643  0.0732
 2956TIP3   OH230282   0.224   5.778   4.726  0.4216 -0.4788 -0.0064
 2956TIP3    H130283   0.149   5.776   4.785  0.3183 -0.6850 -0.1417
 2956TIP3    H230284   0.185   5.785   4.638  0.5935  0.5380 -0.0043
 2957TIP3   OH230285   5.689   2.926  11.819  0.3579  0.0045  0.4982
 2957TIP3    H130286   5.667   3.004  11.870 -0.3741  0.7894 -0.9808
 2957TIP3    H230287   5.621   2.862  11.841 -1.0132  0.9580 -0.8030
 2958TIP3   OH230288   0.374   5.169   5.435 -0.0557 -0.4289 -0.2262
 2958TIP3    H130289   0.420   5.128   5.508  0.0968  1.2367  0.6900
 2958TIP3    H230290   0.443   5.199   5.376  0.1227  1.6973  0.9424
 2959TIP3   OH230291   0.955   1.995   3.664 -0.3016  0.3722  0.1767
 2959TIP3    H130292   1.012   1.977   3.740 -0.7297 -2.0312  0.0097
 2959TIP3    H230293   0.990   1.939   3.595 -0.5918  1.7268 -1.1024
 2960TIP3   OH230294   2.359   6.287   3.434  0.6601  0.4368  0.3622
 2960TIP3    H130295   2.414   6.330   3.501  3.6885 -0.2868 -1.4537
 2960TIP3    H230296   2.421   6.237   3.381 -1.4902  1.1860 -3.2003
 2961TIP3   OH230297   0.090   2.919  15.346 -0.2527 -0.1835  0.3373
 2961TIP3    H130298   0.090   2.987  15.413 -1.1200 -0.3677  0.5423
 2961TIP3    H230299   0.030   2.852  15.380  0.1843 -0.8044 -0.0993
 2962TIP3   OH230300   0.726   2.120   2.798  0.2121 -0.0195  0.1205
 2962TIP3    H130301   0.678   2.174   2.735 -3.7488 -0.7393  2.1940
 2962TIP3    H230302   0.747   2.179   2.870  0.0854 -0.2385  0.3399
 2963TIP3   OH230303   0.944   4.042   1.057 -0.0160 -0.6099 -0.3037
 2963TIP3    H130304   0.921   3.979   1.125  1.4394 -0.1475  0.6662
 2963TIP3    H230305   0.997   3.991   0.995 -0.8385 -0.8846 -0.8017
 2964TIP3   OH230306   3.944   0.424   4.706 -0.3385  0.4885 -0.2548
 2964TIP3    H130307   3.975   0.494   4.649 -1.5571  0.5269 -0.9098
 2964TIP3    H230308   3.946   0.462   4.794 -0.5300  1.1963 -0.5447
 2965TIP3   OH230309   2.412   5.571   3.144 -0.1519  0.3160 -0.1847
 2965TIP3    H130310   2.469   5.631   3.095  0.1806 -1.8881 -2.6865
 2965TIP3    H230311   2.466   5.494   3.160 -0.6293  0.4927  2.8019
 2966TIP3   OH230312   0.210   5.921  15.175 -0.2297  0.6380  0.0512
 2966TIP3    H130313   0.140   5.857  15.189  0.1401 -0.0302 -1.0059
 2966TIP3    H230314   0.204   5.942  15.081 -0.6469  2.5206  0.4602
 2967TIP3   OH230315   3.135   5.715  12.824 -0.4223  0.6391 -0.5643
 2967TIP3    H130316   3.185   5.797  12.832  0.8521 -0.0659 -0.9209
 2967TIP3    H230317   3.169   5.675  12.744  0.8521 -1.4157  0.9180
 2968TIP3   OH230318   4.188   0.068  14.166  0.4046  0.1304 -0.3329
 2968TIP3    H130319   4.276   0.035  14.151 -0.1446 -1.2239 -0.7828
 2968TIP3    H230320   4.145   0.062  14.081 -0.4901 -0.4720  0.1391
 2969TIP3   OH230321   1.701   6.179  12.695  0.2532 -0.2817  0.0252
 2969TIP3    H130322   1.610   6.157  12.675  0.3376 -0.1612 -0.5039
 2969TIP3    H230323   1.703   6.275  12.695  0.1983 -0.2704  0.8984
 2970TIP3   OH230324   6.393   6.724   4.725 -0.4000 -0.7252  0.3297
 2970TIP3    H130325   6.344   6.683   4.653  0.4926 -1.5308  0.1580
 2970TIP3    H230326   6.397   6.817   4.701  1.3492 -1.1983 -1.6179
 2971TIP3   OH230327   6.538   0.596   6.161  0.2994 -0.0015 -0.2925
 2971TIP3    H130328   6.482   0.600   6.239 -0.0044  2.2290 -0.5530
 2971TIP3    H230329   6.579   0.682   6.157  1.3541 -0.5315 -1.8679
 2972TIP3   OH230330   0.253   4.756   5.293 -0.0987 -0.9124 -0.0821
 2972TIP3    H130331   0.231   4.697   5.220 -1.6286 -0.3446 -0.1189
 2972TIP3    H230332   0.289   4.699   5.360 -2.9043 -2.2180  0.4678
 2973TIP3   OH230333   2.056   0.002  13.476 -0.4409 -0.7942 -0.3077
 2973TIP3    H130334   2.041  -0.056  13.551  0.4485 -0.7149 -0.0495
 2973TIP3    H230335   2.043  -0.053  13.399 -0.1152 -1.2073 -0.0714
 2974TIP3   OH230336   3.756   6.417   1.031  0.0509  0.3461 -0.0130
 2974TIP3    H130337   3.713   6.501   1.015 -1.6058 -0.5667 -0.5246
 2974TIP3    H230338   3.685   6.357   1.052  1.2663 -0.8085  0.9399
 2975TIP3   OH230339   5.956   1.078   5.870  0.5197 -0.3249  0.3536
 2975TIP3    H130340   5.895   1.011   5.899  1.1449 -0.3999  1.5713
 2975TIP3    H230341   5.921   1.160   5.905 -0.8059  0.2002 -1.9940
 2976TIP3   OH230342   3.661   5.026   0.448 -0.2139  0.1395 -0.5881
 2976TIP3    H130343   3.737   4.982   0.411  0.5697  1.4285 -0.5693
 2976TIP3    H230344   3.617   5.067   0.373 -0.7519 -0.3737 -0.5636
 2977TIP3   OH230345   3.526   2.460   6.464  0.2824  0.2282 -0.0989
 2977TIP3    H130346   3.483   2.407   6.530 -2.2763  0.9329 -1.0510
 2977TIP3    H230347   3.544   2.400   6.392  2.1259 -0.3192  0.7499
 2978TIP3   OH230348   0.713   6.602  16.370 -0.2379 -0.9327 -0.2593
 2978TIP3    H130349   0.653   6.531  16.348  0.0846 -1.1571 -0.4170
 2978TIP3    H230350   0.661   6.660  16.426 -0.6634 -1.0164 -0.5644
 2979TIP3   OH230351   1.789   5.265   1.527  0.4306  0.8327 -0.0773
 2979TIP3    H130352   1.713   5.304   1.571 -0.4072 -0.1926 -0.5838
 2979TIP3    H230353   1.819   5.197   1.587 -0.5910 -0.4341 -0.9619
 2980TIP3   OH230354   4.464   2.144   1.272 -0.0805 -0.4199  0.0328
 2980TIP3    H130355   4.404   2.218   1.282  0.1573 -0.2855  0.5177
 2980TIP3    H230356   4.533   2.177   1.215  0.6058  0.1114  1.1271
 2981TIP3   OH230357   2.111   4.115  12.810  0.3964  0.0827  0.2271
 2981TIP3    H130358   2.047   4.065  12.860  1.3023 -1.0679  0.2589
 2981TIP3    H230359   2.104   4.080  12.721 -0.5966  1.5255 -0.3166
 2982TIP3   OH230360   3.400   6.697  10.995  0.5425 -0.2568  0.1963
 2982TIP3    H130361   3.448   6.753  11.055  1.8512  0.5447 -1.5127
 2982TIP3    H230362   3.463   6.676  10.926 -0.5952 -1.9580 -0.4000
 2983TIP3   OH230363   3.708   0.768  15.201 -0.0744  0.5633 -0.1423
 2983TIP3    H130364   3.731   0.857  15.229 -0.3785  0.8648 -0.8318
 2983TIP3    H230365   3.756   0.756  15.119  0.9662 -0.3814  0.5680
 2984TIP3   OH230366   6.708   5.698   2.883  0.7067  0.5792 -0.3795
 2984TIP3    H130367   6.738   5.610   2.859 -0.2034  0.5658 -1.6147
 2984TIP3    H230368   6.624   5.708   2.837 -0.5348  1.1069  1.8607
 2985TIP3   OH230369   2.128   3.244  17.196  0.2069 -0.1284 -0.3292
 2985TIP3    H130370   2.200   3.186  17.222  1.2724  1.4430  0.3426
 2985TIP3    H230371   2.152   3.274  17.109  0.3361  0.3394 -0.1355
 2986TIP3   OH230372   2.309   5.422   2.491  0.4360 -0.3813 -0.0192
 2986TIP3    H130373   2.313   5.473   2.410 -2.4303  0.2106  0.0879
 2986TIP3    H230374   2.311   5.488   2.561  0.2804 -0.6780  0.2662
 2987TIP3   OH230375   3.293   4.305   3.219  0.8235  0.2397 -0.2953
 2987TIP3    H130376   3.369   4.269   3.265 -0.4734 -1.4068  0.6569
 2987TIP3    H230377   3.298   4.399   3.235  2.1668  0.0527  0.5175
 2988TIP3   OH230378   2.878   5.192   0.803 -0.3749 -0.1740  0.2139
 2988TIP3    H130379   2.940   5.132   0.763 -2.1230 -0.3674 -2.4521
 2988TIP3    H230380   2.929   5.271   0.822  1.0032 -0.9096 -0.3293
 2989TIP3   OH230381   0.975   4.233   5.819  0.2263  0.4712 -0.2033
 2989TIP3    H130382   1.019   4.267   5.897 -1.0270 -0.1327  0.7886
 2989TIP3    H230383   1.000   4.294   5.750  0.9543  1.3104  0.7596
 2990TIP3   OH230384   0.972   4.720  11.028  0.4869 -0.1309  0.2449
 2990TIP3    H130385   0.968   4.644  11.087 -1.0334 -0.7365 -0.5782
 2990TIP3    H230386   1.059   4.757  11.043  1.3349 -2.1098  0.5804
 2991TIP3   OH230387   2.499   5.667  13.006 -0.3818  0.0572  0.5574
 2991TIP3    H130388   2.467   5.597  13.063 -1.9814  0.3938  0.1353
 2991TIP3    H230389   2.509   5.627  12.920  1.1853 -0.2389  0.8496
 2992TIP3   OH230390   2.008   3.620   3.979  0.8965 -0.3343 -0.0730
 2992TIP3    H130391   1.969   3.700   3.943  2.0878 -0.6869 -2.2881
 2992TIP3    H230392   1.936   3.579   4.027 -0.2242  1.1865 -0.3691
 2993TIP3   OH230393   3.698   1.386  13.684  0.7885 -0.4667 -0.7637
 2993TIP3    H130394   3.659   1.315  13.736  1.3066  0.1062  0.4338
 2993TIP3    H230395   3.739   1.341  13.609  1.4094 -1.4808  0.1545
 2994TIP3   OH230396   4.890   2.432  11.922 -0.1325  0.1307  0.1184
 2994TIP3    H130397   4.952   2.407  11.853  0.3136  1.1024  0.1567
 2994TIP3    H230398   4.944   2.436  12.001 -0.2534  0.8956  0.1680
 2995TIP3   OH230399   6.578   0.048  13.339  0.1627 -0.1504 -0.5043
 2995TIP3    H130400   6.615  -0.038  13.359 -0.6815 -0.3100  0.4752
 2995TIP3    H230401   6.515   0.031  13.269 -1.6295 -0.7634  1.1645
 2996TIP3   OH230402   4.337   2.911   2.427  0.1091 -0.4132 -0.1436
 2996TIP3    H130403   4.283   2.919   2.506 -1.1810  0.5475 -1.0828
 2996TIP3    H230404   4.299   2.974   2.366  1.7485 -0.3869 -1.1708
 2997TIP3   OH230405   3.067   4.451  14.027 -0.1403 -0.2171 -0.3213
 2997TIP3    H130406   2.976   4.441  14.054 -0.3252  0.0107 -0.8368
 2997TIP3    H230407   3.109   4.370  14.054 -0.6324 -0.5747 -0.6126
 2998TIP3   OH230408   2.006   4.962   2.457  0.0415  0.4825 -0.6819
 2998TIP3    H130409   2.002   5.037   2.398 -2.9916 -0.1535 -1.4707
 2998TIP3    H230410   1.961   4.990   2.536 -1.7090 -0.6087 -1.2279
 2999TIP3   OH230411   2.018   2.322  17.085 -0.6767  0.5030 -0.0754
 2999TIP3    H130412   2.104   2.288  17.059 -1.5003 -1.0095 -0.9527
 2999TIP3    H230413   1.955   2.266  17.039 -2.1497  1.1146  1.1106
 3000TIP3   OH230414   5.321   3.142   4.408 -0.4333  0.1737 -0.3974
 3000TIP3    H130415   5.320   3.232   4.441  0.8475  0.3286 -0.7027
 3000TIP3    H230416   5.303   3.088   4.485 -0.2051  0.6467 -0.0039
 3001TIP3   OH230417   4.755   2.189   1.857 -0.0981 -0.4195 -0.4012
 3001TIP3    H130418   4.834   2.135   1.862 -0.5276 -1.0880 -0.6831
 3001TIP3    H230419   4.787   2.279   1.858  0.5704 -0.6429  1.3218
 3002TIP3   OH230420   4.689   4.639  12.200  0.1466 -0.2133 -1.0769
 3002TIP3    H130421   4.609   4.616  12.247  0.1700  0.1964 -0.8275
 3002TIP3    H230422   4.752   4.661  12.269  0.2483  0.1838 -1.2912
 3003TIP3   OH230423   2.227   1.275  14.455  0.3898  0.5537 -0.7527
 3003TIP3    H130424   2.316   1.303  14.437  1.4610 -1.6849  0.6361
 3003TIP3    H230425   2.230   1.180  14.453 -2.5681  0.3508 -3.1192
 3004TIP3   OH230426   4.921   2.631  13.953 -0.2861 -0.2935 -0.5025
 3004TIP3    H130427   4.893   2.579  14.028 -0.3878  0.8514  0.2828
 3004TIP3    H230428   4.864   2.604  13.882 -0.7930 -0.7480  0.0729
 3005TIP3   OH230429   1.000   1.587   2.497  0.1311  1.0884 -0.7667
 3005TIP3    H130430   0.963   1.538   2.571 -0.1826  0.9598 -1.0078
 3005TIP3    H230431   1.009   1.676   2.530  1.0652  0.8049 -0.1963
 3006TIP3   OH230432   1.504   6.437   6.058  0.1430 -0.0376 -0.2588
 3006TIP3    H130433   1.445   6.506   6.085  0.6678  0.3219 -0.0152
 3006TIP3    H230434   1.551   6.412   6.137  0.4358 -0.2029 -0.4797
 3007TIP3   OH230435   6.031   0.074   4.448  0.7982 -0.0719 -0.3086
 3007TIP3    H130436   6.109   0.116   4.413  2.1951 -2.1961  0.0478
 3007TIP3    H230437   5.959   0.112   4.399  2.1787  0.9744 -1.6215
 3008TIP3   OH230438   1.720   3.461  13.446  0.3070  0.2666 -0.0892
 3008TIP3    H130439   1.797   3.426  13.400  0.9918  1.5767  0.0043
 3008TIP3    H230440   1.754   3.487  13.532 -0.2502  0.7919 -0.0237
 3009TIP3   OH230441   0.150   6.160   3.597 -0.2514 -0.1052 -0.1358
 3009TIP3    H130442   0.232   6.186   3.554 -0.3846 -0.6763 -0.7438
 3009TIP3    H230443   0.141   6.222   3.670 -0.7113  1.7930 -1.7095
 3010TIP3   OH230444   2.201   2.689  13.251 -0.0992  0.2327 -0.3626
 3010TIP3    H130445   2.272   2.738  13.292 -1.1042  0.4589  1.1741
 3010TIP3    H230446   2.177   2.741  13.175 -1.0969  2.1654  1.1941
 3011TIP3   OH230447   2.887   2.646   6.274 -0.3709  0.2700  0.5913
 3011TIP3    H130448   2.844   2.630   6.358  1.3032  0.8489  1.6051
 3011TIP3    H230449   2.980   2.658   6.296  0.2062 -0.0821 -1.4000
 3012TIP3   OH230450   4.353   1.829   1.603 -0.3655 -0.9548  0.0933
 3012TIP3    H130451   4.370   1.841   1.510  1.8786  1.1593  0.6643
 3012TIP3    H230452   4.258   1.822   1.610 -0.6119 -0.6526 -2.2766
 3013TIP3   OH230453   2.040   1.989  17.108 -0.1520 -0.0584  0.2109
 3013TIP3    H130454   2.044   1.894  17.111 -0.5547 -0.0627  0.7501
 3013TIP3    H230455   2.041   2.016  17.200  0.9868  0.5072  0.0416
 3014TIP3   OH230456   0.565   5.245  14.212  0.2731 -0.2580 -0.3332
 3014TIP3    H130457   0.617   5.313  14.255  0.5138  0.5119 -1.7462
 3014TIP3    H230458   0.537   5.187  14.282 -0.6334  1.7681  1.0799
 3015TIP3   OH230459   3.596   5.192  17.078  0.0938  0.0709  0.2584
 3015TIP3    H130460   3.655   5.227  17.145  0.8334 -0.8013  0.0821
 3015TIP3    H230461   3.649   5.189  16.998 -0.9204  1.5323 -0.4971
 3016TIP3   OH230462   2.921   2.107   1.643  0.2572 -0.5380 -0.2177
 3016TIP3    H130463   3.017   2.106   1.648  0.2975 -2.1862 -0.6529
 3016TIP3    H230464   2.895   2.018   1.669 -1.1011 -0.4391 -1.1313
 3017TIP3   OH230465   6.567   5.497   5.025 -0.3808 -1.0420  0.3243
 3017TIP3    H130466   6.629   5.547   5.079 -1.0798  0.7282 -0.4383
 3017TIP3    H230467   6.511   5.452   5.089 -0.2880 -0.1367  1.0720
 3018TIP3   OH230468   1.095   6.147   3.851  0.6178 -0.3230  0.0529
 3018TIP3    H130469   1.035   6.192   3.792 -0.2637 -1.0837  0.3558
 3018TIP3    H230470   1.049   6.068   3.879 -0.0824  1.1320  3.6426
 3019TIP3   OH230471   3.943   6.487   1.390 -0.2993 -0.2653 -0.5896
 3019TIP3    H130472   3.978   6.575   1.405 -3.1750  0.9674 -0.4745
 3019TIP3    H230473   3.957   6.471   1.297 -1.0947  0.9801 -0.9399
 3020TIP3   OH230474   1.552   3.640   5.147 -0.1110 -0.1481 -0.3015
 3020TIP3    H130475   1.567   3.734   5.154 -1.4033  0.0099  0.6977
 3020TIP3    H230476   1.633   3.605   5.110  0.6746  1.2533  0.0452
 3021TIP3   OH230477   2.102   0.592   2.077 -0.1609 -0.1086 -0.0125
 3021TIP3    H130478   2.148   0.531   2.020  0.5625  0.5243 -0.1186
 3021TIP3    H230479   2.019   0.608   2.032  1.1581  1.8541 -1.9141
 3022TIP3   OH230480   0.568   3.671   6.318 -0.6138  0.5043 -0.1267
 3022TIP3    H130481   0.587   3.749   6.268 -1.0017  0.6052 -0.1251
 3022TIP3    H230482   0.530   3.610   6.255 -2.1762  1.0411  0.2330
 3023TIP3   OH230483   2.884   2.131   3.866  0.0986  0.2324 -0.2414
 3023TIP3    H130484   2.847   2.216   3.840 -0.0990 -0.2877 -1.7740
 3023TIP3    H230485   2.827   2.100   3.936  0.4731  1.5779  0.7157
 3024TIP3   OH230486   0.751   1.789  14.080 -0.0988 -0.1400 -0.2778
 3024TIP3    H130487   0.695   1.864  14.101  0.1154  0.2417 -1.0158
 3024TIP3    H230488   0.831   1.828  14.045 -0.7786 -0.7004 -2.6742
 3025TIP3   OH230489   0.238   1.355   6.588 -0.4682 -0.2956 -0.1785
 3025TIP3    H130490   0.199   1.296   6.652 -0.9223  0.4299  0.2292
 3025TIP3    H230491   0.239   1.440   6.632 -0.5374  0.1584 -1.0429
 3026TIP3   OH230492   2.794   0.526   5.181 -0.4722  0.5152  0.2366
 3026TIP3    H130493   2.814   0.455   5.121 -2.0454 -0.6812  1.0484
 3026TIP3    H230494   2.780   0.602   5.124 -0.3457 -0.2108 -0.7874
 3027TIP3   OH230495   5.379   2.940  12.326  0.0339  0.1287  0.2412
 3027TIP3    H130496   5.463   2.902  12.352  0.3963  0.4328 -0.4636
 3027TIP3    H230497   5.392   3.034  12.337 -0.3714  0.1497  0.5610
 3028TIP3   OH230498   2.769   0.876  13.436  0.3956 -0.2149 -0.4125
 3028TIP3    H130499   2.711   0.891  13.511 -0.4307 -1.0845 -0.8531
 3028TIP3    H230500   2.839   0.941  13.446 -0.8798  1.1658 -0.1026
 3029TIP3   OH230501   6.670   1.711  16.377 -0.2734  0.2599 -0.1583
 3029TIP3    H130502   6.760   1.729  16.406  0.5033  1.1261 -2.8044
 3029TIP3    H230503   6.622   1.792  16.395  0.1277  0.6849 -0.9237
 3030TIP3   OH230504   4.718   4.885  16.852 -0.5045  0.3201 -0.1205
 3030TIP3    H130505   4.639   4.941  16.855 -0.7242  0.1747 -2.0483
 3030TIP3    H230506   4.756   4.902  16.766  0.5952 -0.9564  0.0823
 3031TIP3   OH230507   6.308   5.157  14.712  0.2098 -0.1862  0.2439
 3031TIP3    H130508   6.335   5.095  14.644  0.6136 -0.0702  0.2950
 3031TIP3    H230509   6.327   5.243  14.676  0.7924 -0.1356  0.6492
 3032TIP3   OH230510   0.039   5.864   1.405 -0.3969 -0.2650  0.3753
 3032TIP3    H130511  -0.046   5.894   1.439 -0.8332 -0.7302 -0.2915
 3032TIP3    H230512   0.096   5.940   1.414 -0.5805 -0.2688  1.8522
 3033TIP3   OH230513   3.439   0.059  11.278  0.4445  0.3366  0.2817
 3033TIP3    H130514   3.400   0.144  11.298 -2.2491 -0.8469  0.6174
 3033TIP3    H230515   3.382  -0.004  11.321  1.8858 -1.6948 -0.6059
 3034TIP3   OH230516   3.900   4.190  15.893  0.3242  0.0057 -0.2302
 3034TIP3    H130517   3.946   4.176  15.810  0.3651 -0.6368 -0.1052
 3034TIP3    H230518   3.886   4.284  15.897  0.9392  0.1196 -0.6350
 3035TIP3   OH230519   5.064   5.900  14.246  0.0542 -0.0622  0.6329
 3035TIP3    H130520   5.140   5.949  14.216 -0.9079  1.5991  0.7894
 3035TIP3    H230521   5.019   5.959  14.307 -2.0054 -0.5097 -0.3649
 3036TIP3   OH230522   6.617   5.703  13.337 -0.2631  0.2797  0.0997
 3036TIP3    H130523   6.569   5.697  13.254 -0.1361  1.6108 -0.0855
 3036TIP3    H230524   6.618   5.796  13.358  1.0947  0.1382  0.7797
 3037TIP3   OH230525   6.740   4.346   4.384 -0.3706  0.2272  0.2806
 3037TIP3    H130526   6.783   4.291   4.450 -0.1368 -0.0963 -0.1341
 3037TIP3    H230527   6.760   4.436   4.411 -0.7171  0.1134  0.9388
 3038TIP3   OH230528   0.236   4.027  12.452  0.4758 -0.2110  0.3194
 3038TIP3    H130529   0.315   3.983  12.485  2.0265  3.0690  1.3986
 3038TIP3    H230530   0.268   4.111  12.419 -2.6101  1.4450  1.2078
 3039TIP3   OH230531   0.125   3.699   1.925 -0.3227 -0.2984  0.2968
 3039TIP3    H130532   0.203   3.694   1.870 -0.3517 -1.1905  0.3306
 3039TIP3    H230533   0.111   3.610   1.956 -1.9863 -0.3987 -0.5941
 3040TIP3   OH230534   6.160   6.094   1.864  0.0963 -0.1383  0.0866
 3040TIP3    H130535   6.206   6.110   1.782 -0.9063 -0.5378 -0.5700
 3040TIP3    H230536   6.070   6.076   1.838 -0.6862  1.5949  1.3968
 3041TIP3   OH230537   3.421   4.353   0.417  0.2998  0.6809  0.2451
 3041TIP3    H130538   3.416   4.448   0.432  0.2364  0.5138  1.4127
 3041TIP3    H230539   3.484   4.343   0.346  0.3467  1.5984  0.1442
 3042TIP3   OH230540   3.305   4.459   0.174 -0.5323  0.5941 -0.2630
 3042TIP3    H130541   3.320   4.504   0.091 -0.9896  1.9724  0.3688
 3042TIP3    H230542   3.330   4.523   0.241 -0.0665 -0.5273  0.6736
 3043TIP3   OH230543   0.624   1.377   1.965 -0.3002 -0.0219  0.8691
 3043TIP3    H130544   0.673   1.336   2.037 -0.5178 -2.1929 -0.1521
 3043TIP3    H230545   0.536   1.341   1.972 -0.5795  0.4828  0.0646
 3044TIP3   OH230546   0.236   4.178  16.931  0.3890 -0.3768 -0.5087
 3044TIP3    H130547   0.277   4.180  17.017 -0.3005  0.6364 -0.1733
 3044TIP3    H230548   0.296   4.225  16.874  0.3983 -0.2100 -0.3606
 3045TIP3   OH230549   5.301   5.754  13.639  0.6100 -0.1235  0.0161
 3045TIP3    H130550   5.212   5.785  13.621  0.7520 -0.5258 -1.5226
 3045TIP3    H230551   5.295   5.659  13.633  0.7083 -0.3205  2.1796
 3046TIP3   OH230552   0.172   0.863   0.934  0.1670 -0.1127  0.3105
 3046TIP3    H130553   0.106   0.871   1.003  1.0044 -0.2362  1.1405
 3046TIP3    H230554   0.123   0.832   0.858 -0.8470  0.4633  0.7137
 3047TIP3   OH230555   4.472   5.167   1.399  0.3856 -0.3363 -0.1241
 3047TIP3    H130556   4.561   5.199   1.387  0.1883  1.8009  2.9964
 3047TIP3    H230557   4.480   5.094   1.460  0.0022  0.1563  0.5304
 3048TIP3   OH230558   2.567   2.604  15.262  0.0411 -0.9171  0.3363
 3048TIP3    H130559   2.539   2.693  15.285 -0.5115 -0.8143 -0.6693
 3048TIP3    H230560   2.494   2.569  15.211  0.4002 -1.8315  0.4315
 3049TIP3   OH230561   6.602   3.165  15.652 -0.0766  0.0556  0.1552
 3049TIP3    H130562   6.644   3.116  15.722  0.8525 -1.1983 -1.2306
 3049TIP3    H230563   6.662   3.236  15.632  1.1486 -1.3354 -1.3564
 3050TIP3   OH230564   2.704   5.282  13.427  0.0138  0.3539 -0.9883
 3050TIP3    H130565   2.684   5.226  13.502 -0.3783  1.2779 -0.3873
 3050TIP3    H230566   2.716   5.369  13.465  0.6960  0.6700 -1.8978
 3051TIP3   OH230567   6.499   4.828  14.357 -0.3713  0.8909  0.1929
 3051TIP3    H130568   6.581   4.836  14.309 -0.5494  0.9730 -0.0962
 3051TIP3    H230569   6.431   4.831  14.290 -0.6084  0.7570  0.4253
 3052TIP3   OH230570   2.055   3.770  11.694  0.3101 -0.0538  0.0191
 3052TIP3    H130571   2.045   3.708  11.622  0.1128  0.1249 -0.1071
 3052TIP3    H230572   2.060   3.856  11.652  0.3638  0.0366  0.2083
 3053TIP3   OH230573   1.221   1.708  12.932  0.3242 -0.2296 -0.5007
 3053TIP3    H130574   1.233   1.613  12.930 -0.0204 -0.2763 -0.5489
 3053TIP3    H230575   1.134   1.721  12.895 -0.4911 -0.0575  1.3326
 3054TIP3   OH230576   0.473   4.082  13.824  0.1556  0.2241 -0.1925
 3054TIP3    H130577   0.441   4.066  13.912  1.1889 -1.0475 -0.0039
 3054TIP3    H230578   0.427   4.018  13.769 -1.7107  2.0722 -0.9194
 3055TIP3   OH230579   1.934   5.355   4.327 -0.4460  0.4677  0.3319
 3055TIP3    H130580   1.846   5.345   4.362 -0.3905  0.2130  0.3982
 3055TIP3    H230581   1.943   5.450   4.312 -0.7793  0.4780  0.1869
 3056TIP3   OH230582   4.115   5.777  16.097 -0.0415  0.2232 -0.1422
 3056TIP3    H130583   4.187   5.812  16.044  0.2408 -1.5097 -0.9833
 3056TIP3    H230584   4.079   5.854  16.142  2.3964  1.1356  0.4266
 3057TIP3   OH230585   1.923   1.538  13.877  0.0738 -0.4769  0.3738
 3057TIP3    H130586   1.928   1.627  13.841 -0.2640 -1.2558 -1.7072
 3057TIP3    H230587   1.833   1.529  13.908  0.0381 -0.1918  0.3528
 3058TIP3   OH230588   4.321   1.746  16.224  0.3384 -0.1853  0.0658
 3058TIP3    H130589   4.388   1.802  16.263  0.3962  0.0727 -0.3984
 3058TIP3    H230590   4.323   1.666  16.276 -0.7087  0.7575  1.6332
 3059TIP3   OH230591   2.066   0.929  15.384  0.6401  0.2293 -0.4285
 3059TIP3    H130592   2.125   1.004  15.376  0.4524  0.6969  1.7253
 3059TIP3    H230593   1.994   0.948  15.324  0.3741  2.0696  0.3919
 3060TIP3   OH230594   6.567   3.754   1.876 -0.4393  0.3054 -0.7994
 3060TIP3    H130595   6.638   3.779   1.817  0.1944 -1.5992 -0.9055
 3060TIP3    H230596   6.510   3.698   1.823 -0.8151  0.0115 -0.0964
 3061TIP3   OH230597   4.554   6.352   1.260 -0.2043  0.0303 -0.1087
 3061TIP3    H130598   4.548   6.370   1.354  2.4541 -1.6529  0.5317
 3061TIP3    H230599   4.473   6.307   1.238 -0.6163 -0.0795  1.5508
 3062TIP3   OH230600   3.045   2.750  14.521 -0.8429  0.4481  0.2975
 3062TIP3    H130601   3.027   2.664  14.557 -1.0084  0.8939  1.3277
 3062TIP3    H230602   3.131   2.774  14.555 -0.7190  0.6222 -0.1221
 3063TIP3   OH230603   5.368   6.127   1.921  0.0768 -0.4134  0.3624
 3063TIP3    H130604   5.315   6.206   1.932 -2.0114 -1.8958  1.7906
 3063TIP3    H230605   5.455   6.151   1.954  0.4373  2.1050 -2.0933
 3064TIP3   OH230606   0.661   3.418   0.308 -0.2113 -0.4641  0.3834
 3064TIP3    H130607   0.618   3.448   0.228  0.2180 -1.9957 -0.4669
 3064TIP3    H230608   0.596   3.433   0.377 -0.7024  0.6056 -0.2750
 3065TIP3   OH230609   4.613   6.533   2.975 -0.3734 -0.4376  0.0275
 3065TIP3    H130610   4.708   6.543   2.964 -0.2130 -0.5539  1.1438
 3065TIP3    H230611   4.575   6.579   2.901  0.5418  0.6754  0.2223
 3066TIP3   OH230612   5.045   0.644  16.702 -0.2052 -0.2530  0.0295
 3066TIP3    H130613   5.072   0.636  16.611  1.7181 -3.1352  0.7279
 3066TIP3    H230614   4.974   0.581  16.711  1.0821 -1.6372  0.9530
 3067TIP3   OH230615   4.058   0.779   6.540  0.0169  0.4726  0.5550
 3067TIP3    H130616   4.150   0.754   6.540  0.4647  1.9992 -0.1312
 3067TIP3    H230617   4.046   0.827   6.623 -0.4308 -0.5822  1.1169
 3068TIP3   OH230618   6.565   0.481   3.249 -0.1017  0.4079  0.0611
 3068TIP3    H130619   6.609   0.451   3.329 -1.7900 -2.0543  0.1716
 3068TIP3    H230620   6.627   0.461   3.179  1.1873  2.1305  0.6411
 3069TIP3   OH230621   0.308   5.195  16.204  0.1059 -0.5313  0.1734
 3069TIP3    H130622   0.330   5.102  16.206 -0.5531 -0.7389 -1.1369
 3069TIP3    H230623   0.213   5.197  16.219  0.2050 -0.0187  0.7773
 3070TIP3   OH230624   3.952   3.032   0.576 -0.3053 -0.5149  0.8386
 3070TIP3    H130625   3.965   3.017   0.482 -3.4599 -1.5468  0.4205
 3070TIP3    H230626   3.963   3.126   0.587 -1.3045 -0.1397 -0.9205
 3071TIP3   OH230627   3.318   0.188   1.718  0.0974  1.0960  0.2151
 3071TIP3    H130628   3.344   0.112   1.771  1.3814  1.7662  0.5960
 3071TIP3    H230629   3.248   0.155   1.661 -0.2682 -0.0285  1.2692
 3072TIP3   OH230630   3.686   3.438   4.062 -0.3928 -0.2790  0.0785
 3072TIP3    H130631   3.645   3.437   4.149  0.5819 -1.3595  0.5390
 3072TIP3    H230632   3.631   3.380   4.009  1.4254 -3.2259  1.1743
 3073TIP3   OH230633   5.117   0.172   0.665  0.1036  0.0883 -0.6774
 3073TIP3    H130634   5.101   0.190   0.757  0.7466 -1.5290 -0.2216
 3073TIP3    H230635   5.210   0.152   0.660  0.0060 -0.1789 -1.6186
 3074TIP3   OH230636   6.543   2.525  14.879  0.3300  0.2406  0.2962
 3074TIP3    H130637   6.600   2.585  14.830  0.6822 -0.0684  0.3293
 3074TIP3    H230638   6.513   2.463  14.813  0.1506  0.3137  0.3098
 3075TIP3   OH230639   5.765   5.837   1.071  0.4590 -0.0210  0.7103
 3075TIP3    H130640   5.772   5.809   1.162 -0.3320  0.5026  0.9419
 3075TIP3    H230641   5.762   5.933   1.075 -2.3212 -0.0047  0.3939
 3076TIP3   OH230642   3.030   3.546  15.651 -0.2536 -0.0247  0.8698
 3076TIP3    H130643   2.951   3.500  15.680 -0.9690  0.3701 -0.3676
 3076TIP3    H230644   2.997   3.624  15.605  0.5695 -2.0730 -3.7387
 3077TIP3   OH230645   3.939   3.998  10.957 -0.1289 -0.1882  0.3348
 3077TIP3    H130646   3.870   4.063  10.942 -0.6029  0.0919  3.2609
 3077TIP3    H230647   3.907   3.918  10.916 -1.2151  0.4804 -0.1579
 3078TIP3   OH230648   5.665   1.511  13.060 -0.0472  0.2316 -0.3137
 3078TIP3    H130649   5.637   1.576  13.126  0.6976  0.7977 -0.5403
 3078TIP3    H230650   5.667   1.561  12.978  0.6852 -0.0462 -0.4640
 3079TIP3   OH230651   2.998   6.171   3.642 -0.0809  0.3489  0.7403
 3079TIP3    H130652   2.912   6.195   3.608 -0.4750 -0.3082  1.2617
 3079TIP3    H230653   3.037   6.255   3.668  0.1784  0.8634 -1.1501
 3080TIP3   OH230654   2.788   1.254   5.278 -0.0981 -0.5443  0.3496
 3080TIP3    H130655   2.847   1.297   5.340  4.0106  0.2981 -3.5861
 3080TIP3    H230656   2.753   1.325   5.225 -2.2162 -1.3602  0.5560
 3081TIP3   OH230657   3.736   1.211  15.058  0.2130 -0.2743 -0.1710
 3081TIP3    H130658   3.791   1.202  14.980  0.6212 -0.1458  0.0930
 3081TIP3    H230659   3.778   1.281  15.108 -1.6342  1.6495 -1.1487
 3082TIP3   OH230660   2.813   0.731  12.259 -0.7304  0.4196  0.0700
 3082TIP3    H130661   2.850   0.806  12.306 -2.1297  1.5571 -0.5515
 3082TIP3    H230662   2.886   0.695  12.209  0.2841  0.5116  1.4258
 3083TIP3   OH230663   1.640   2.823  14.590 -0.3005  0.0273  0.6291
 3083TIP3    H130664   1.632   2.892  14.525  0.9480 -0.1403  0.2703
 3083TIP3    H230665   1.553   2.785  14.595 -0.6800  0.7555 -0.1448
 3084TIP3   OH230666   3.955   4.964  12.092  0.2830  0.1192 -0.1845
 3084TIP3    H130667   3.956   5.013  12.010  0.2444  0.3322 -0.0576
 3084TIP3    H230668   3.879   4.907  12.085 -0.2974  0.8472  0.1202
 3085TIP3   OH230669   4.894   1.043  11.777 -0.1237  0.3134 -0.3355
 3085TIP3    H130670   4.827   1.063  11.841 -1.5473 -0.6888 -1.4520
 3085TIP3    H230671   4.944   1.124  11.768  0.2293  0.4236  2.1153
 3086TIP3   OH230672   0.819   6.126  10.864 -0.4478  0.3227  0.1407
 3086TIP3    H130673   0.811   6.163  10.952 -3.2139 -0.1865  0.1922
 3086TIP3    H230674   0.780   6.192  10.807  1.6104  0.7939 -0.8290
 3087TIP3   OH230675   4.240   0.761   2.696 -0.7793 -0.0409 -0.2058
 3087TIP3    H130676   4.187   0.708   2.755 -1.4053  0.1609 -0.5790
 3087TIP3    H230677   4.179   0.790   2.628 -0.5943  1.6446  0.2916
 3088TIP3   OH230678   6.287   3.299   4.947  0.0889 -0.2355  0.2086
 3088TIP3    H130679   6.315   3.389   4.958  0.0056 -0.3928  2.2059
 3088TIP3    H230680   6.343   3.264   4.878  1.0756  0.9555  0.3677
 3089TIP3   OH230681   4.331   3.191   0.004  0.1686  0.6001 -0.0093
 3089TIP3    H130682   4.359   3.100   0.014  0.4633  0.6825 -0.0739
 3089TIP3    H230683   4.245   3.194   0.046 -0.2647  0.0794 -0.8436
 3090TIP3   OH230684   4.362   0.908   1.282 -0.1996 -0.0905  0.2405
 3090TIP3    H130685   4.321   0.995   1.280 -0.6996 -0.2421  2.0056
 3090TIP3    H230686   4.369   0.887   1.375 -0.4628 -2.1283 -0.1536
 3091TIP3   OH230687   4.485   6.685   1.206  0.6541  0.3541 -0.3649
 3091TIP3    H130688   4.399   6.710   1.174  0.4373 -0.9956 -0.9106
 3091TIP3    H230689   4.520   6.628   1.138  0.7888 -1.4174  1.1143
 3092TIP3   OH230690   5.157   3.848  15.561 -0.1026  0.0107 -0.3578
 3092TIP3    H130691   5.190   3.929  15.598  1.1381 -0.1367 -1.0749
 3092TIP3    H230692   5.094   3.876  15.494 -0.1865  0.3616 -0.1334
 3093TIP3   OH230693   1.053   3.675  12.245 -0.1563  0.0783  0.5531
 3093TIP3    H130694   1.145   3.674  12.270 -0.6490 -2.1036  2.6851
 3093TIP3    H230695   1.012   3.735  12.307 -0.5830 -1.3815  1.7609
 3094TIP3   OH230696   6.076   6.549  10.846  0.3234  0.3612 -0.3103
 3094TIP3    H130697   6.031   6.625  10.884  1.2853  0.3583  0.9218
 3094TIP3    H230698   6.049   6.476  10.901  0.6551  0.0969 -0.4979
 3095TIP3   OH230699   6.687   0.782  17.141 -0.2638 -0.3985  0.6414
 3095TIP3    H130700   6.614   0.759  17.199 -1.3924  0.8966 -0.1934
 3095TIP3    H230701   6.651   0.850  17.084  1.9675  1.1198  0.9407
 3096TIP3   OH230702   3.335   1.214   0.314  0.3559 -0.1231 -0.3241
 3096TIP3    H130703   3.261   1.228   0.255 -0.0667  0.3831  0.3116
 3096TIP3    H230704   3.412   1.224   0.259  0.0509  2.7074 -0.3892
 3097TIP3   OH230705   6.456   0.875  12.280 -0.0216 -0.3055  0.3064
 3097TIP3    H130706   6.483   0.917  12.198  1.8232 -2.5836 -0.3787
 3097TIP3    H230707   6.370   0.837  12.260 -0.0342 -0.0071 -0.2418
 3098TIP3   OH230708   3.767   0.664   5.587  0.4587 -0.1954  0.4769
 3098TIP3    H130709   3.801   0.680   5.675 -0.1195  0.6050  0.5621
 3098TIP3    H230710   3.833   0.702   5.529 -0.2850  1.4050  0.6430
 3099TIP3   OH230711   6.749   1.770  17.152  0.3372  0.1188 -0.2539
 3099TIP3    H130712   6.768   1.793  17.243 -1.9424  0.5808  0.1454
 3099TIP3    H230713   6.737   1.675  17.154 -0.6541  0.2466  0.1235
 3100TIP3   OH230714   2.133   6.693   4.760 -0.6388 -0.0216 -0.2122
 3100TIP3    H130715   2.167   6.624   4.702  1.3380  1.4886 -0.9570
 3100TIP3    H230716   2.076   6.745   4.704  0.6519  0.9729 -0.6515
 3101TIP3   OH230717   3.738   3.713  11.494 -0.3026  1.1478  0.1811
 3101TIP3    H130718   3.750   3.644  11.428  0.4116  1.0336  0.4319
 3101TIP3    H230719   3.668   3.680  11.550  0.6282  0.2327  0.8164
 3102TIP3   OH230720   5.371   2.943  12.045  0.8536 -0.1702  0.4153
 3102TIP3    H130721   5.373   2.934  12.141 -1.1292 -0.0524  0.5177
 3102TIP3    H230722   5.283   2.913  12.021  1.9542 -2.0508 -1.5991
 3103TIP3   OH230723   0.700   4.718  15.653 -0.3403  0.4633  0.0816
 3103TIP3    H130724   0.671   4.794  15.705 -0.3459 -0.1850  1.0504
 3103TIP3    H230725   0.639   4.648  15.678 -1.4926  0.5923 -2.1665
 3104TIP3   OH230726   5.590   4.186   2.167  0.2290 -0.3807 -0.1760
 3104TIP3    H130727   5.626   4.256   2.113 -1.9191  0.1736 -0.9570
 3104TIP3    H230728   5.624   4.204   2.255 -0.8736  2.1355 -0.1821
 3105TIP3   OH230729   1.269   1.123   3.809  0.2039  0.6153 -0.1153
 3105TIP3    H130730   1.271   1.114   3.714 -1.0407 -2.5043  0.0564
 3105TIP3    H230731   1.346   1.077   3.839  0.8438  1.9855  0.4261
 3106TIP3   OH230732   4.398   5.330  15.233  0.6091  0.4177  0.0035
 3106TIP3    H130733   4.394   5.424  15.253  0.7445  0.2026  1.1166
 3106TIP3    H230734   4.486   5.317  15.198  1.6217  0.2710  2.4034
 3107TIP3   OH230735   2.731   1.745  15.008 -0.0879  0.3654 -0.4227
 3107TIP3    H130736   2.817   1.714  14.982 -0.0366  0.9312 -0.9438
 3107TIP3    H230737   2.691   1.671  15.054 -0.0786 -0.5748 -1.8610
 3108TIP3   OH230738   3.123   4.907   2.978 -0.2811 -0.3932 -0.1159
 3108TIP3    H130739   3.062   4.863   2.919 -0.5749  0.9889 -0.9022
 3108TIP3    H230740   3.153   4.983   2.928 -0.4162  0.7404  1.4592
 3109TIP3   OH230741   0.079   0.531   0.345 -0.2072 -0.1306  0.1094
 3109TIP3    H130742   0.031   0.508   0.425 -0.5064  1.2323  0.3449
 3109TIP3    H230743   0.011   0.555   0.283 -0.0288 -2.0095 -0.8725
 3110TIP3   OH230744   3.488   0.817  12.504 -0.6117  0.0890 -0.6563
 3110TIP3    H130745   3.580   0.845  12.503 -0.1497 -1.0385  1.8688
 3110TIP3    H230746   3.441   0.890  12.544  0.1570 -1.2468  3.2011
 3111TIP3   OH230747   3.560   0.473  12.416  0.6487  0.0773  0.0681
 3111TIP3    H130748   3.571   0.543  12.352 -0.2981  1.4303  1.3195
 3111TIP3    H230749   3.475   0.491  12.457  0.3319 -1.8620  0.3720
 3112TIP3   OH230750   2.398   1.543  16.451  0.3233  0.0138 -0.1139
 3112TIP3    H130751   2.428   1.628  16.420  1.4074 -0.6162 -0.8545
 3112TIP3    H230752   2.318   1.562  16.500  0.4349  1.4243 -0.4454
 3113TIP3   OH230753   4.954   3.697   1.210 -0.1169 -0.7094 -0.2122
 3113TIP3    H130754   5.005   3.711   1.290 -0.7592 -0.9415  0.2428
 3113TIP3    H230755   5.007   3.635   1.160  0.7000  0.0867 -0.3600
 3114TIP3   OH230756   4.279   1.041   3.909 -0.7366 -1.0262  0.6497
 3114TIP3    H130757   4.337   1.001   3.844 -0.5190 -1.0768  0.8746
 3114TIP3    H230758   4.191   1.030   3.873 -0.5440 -0.2017 -0.1014
 3115TIP3   OH230759   0.357   0.070  14.392  0.4224 -0.1149 -0.0403
 3115TIP3    H130760   0.400   0.153  14.372 -0.4060  0.3085 -0.1398
 3115TIP3    H230761   0.387   0.010  14.323 -1.5390  1.0299 -2.0380
 3116TIP3   OH230762   0.606   0.031  17.193 -0.1519  0.0463 -0.3254
 3116TIP3    H130763   0.528   0.084  17.178 -0.4143 -0.0435  0.6819
 3116TIP3    H230764   0.610   0.020  17.288  0.2130 -1.2634 -0.4745
 3117TIP3   OH230765   2.775   1.690   5.319  0.8250 -0.2310  0.5965
 3117TIP3    H130766   2.868   1.693   5.339  0.7594 -0.5605  0.9460
 3117TIP3    H230767   2.731   1.706   5.402  0.5648  1.0427  0.2433
 3118TIP3   OH230768   4.900   4.525   1.162  0.2273  0.1069 -0.7045
 3118TIP3    H130769   4.921   4.474   1.240  0.2473  0.2650 -0.6037
 3118TIP3    H230770   4.842   4.595   1.195 -1.6392 -1.1441 -1.2143
 3119TIP3   OH230771   3.510   4.447   3.461  0.1063  0.4777 -0.2823
 3119TIP3    H130772   3.550   4.480   3.541  0.8034  0.5428 -0.6462
 3119TIP3    H230773   3.527   4.353   3.462  0.3690  0.5181 -0.4791
 3120TIP3   OH230774   5.082   0.962   0.083  0.1548 -0.0978  0.6101
 3120TIP3    H130775   5.160   1.016   0.091 -0.8722  1.1701  3.1835
 3120TIP3    H230776   5.043   0.987  -0.001  0.9956  1.3825  0.6373
 3121TIP3   OH230777   4.483   2.988   0.068 -0.2771 -0.1007  0.0481
 3121TIP3    H130778   4.438   2.931   0.130  1.0283  0.1989  1.3069
 3121TIP3    H230779   4.571   2.998   0.103  0.3233  0.5765 -1.5398
 3122TIP3   OH230780   0.574   1.510  12.617 -0.0904 -0.5827  0.6366
 3122TIP3    H130781   0.607   1.546  12.700  0.0174  0.8641 -0.0128
 3122TIP3    H230782   0.652   1.489  12.566 -0.1322  1.1053 -0.1663
 3123TIP3   OH230783   6.732   3.661  10.939  0.2527 -0.5463  0.9973
 3123TIP3    H130784   6.763   3.573  10.918 -1.4538 -0.8508 -0.5007
 3123TIP3    H230785   6.802   3.719  10.907  1.1807 -1.3035  1.5887
 3124TIP3   OH230786   5.757   2.263  12.996 -0.1591  0.2972 -0.4220
 3124TIP3    H130787   5.675   2.272  12.948 -0.2945  1.4765 -0.0002
 3124TIP3    H230788   5.753   2.176  13.034 -1.2181  0.3393 -0.4072
 3125TIP3   OH230789   1.936   5.034  11.245  0.5352  0.3470 -0.1094
 3125TIP3    H130790   1.904   5.123  11.232 -0.5917 -0.0389 -0.0232
 3125TIP3    H230791   1.906   4.986  11.168 -1.2627 -0.6036  1.1163
 3126TIP3   OH230792   4.530   0.736   3.259 -0.0565 -1.1589  0.2207
 3126TIP3    H130793   4.436   0.743   3.269 -0.7598 -1.3060 -4.2468
 3126TIP3    H230794   4.545   0.644   3.235  1.0903 -0.9006 -0.1413
 3127TIP3   OH230795   1.241   3.975   4.264  0.1124 -1.2444 -0.0794
 3127TIP3    H130796   1.161   3.967   4.318  0.3249 -2.9339  0.0423
 3127TIP3    H230797   1.309   4.000   4.327 -0.4455  1.3125 -0.3482
 3128TIP3   OH230798   5.057   5.518   4.419  0.0518  0.0029  0.3985
 3128TIP3    H130799   5.068   5.423   4.411  1.2967  0.2330 -1.1879
 3128TIP3    H230800   4.970   5.534   4.382 -0.6146 -0.6089  1.6558
 3129TIP3   OH230801   1.706   0.154  11.968 -0.0567 -0.1596  0.2616
 3129TIP3    H130802   1.624   0.119  12.003 -0.5795  1.2805  0.5523
 3129TIP3    H230803   1.681   0.196  11.886  0.4423 -0.0243  0.1766
 3130TIP3   OH230804   4.680   6.195   2.629 -0.3043  0.2189 -0.0566
 3130TIP3    H130805   4.622   6.129   2.668  2.0659 -1.9514  0.0141
 3130TIP3    H230806   4.695   6.258   2.699  0.1815 -1.1138  1.0767
 3131TIP3   OH230807   2.008   2.868   2.837  0.0553 -0.4514  0.0249
 3131TIP3    H130808   1.977   2.880   2.927  0.9493  1.4607  0.1116
 3131TIP3    H230809   2.022   2.956   2.804  1.4464 -1.1561 -1.4012
 3132TIP3   OH230810   2.596   2.021   1.643  0.0661 -0.4118 -0.1566
 3132TIP3    H130811   2.568   2.096   1.589 -1.2321 -0.2645  0.6914
 3132TIP3    H230812   2.646   1.966   1.583 -2.4796 -0.9451 -1.9406
 3133TIP3   OH230813   4.664   6.735  15.094  0.1737  0.2224  0.3316
 3133TIP3    H130814   4.626   6.720  15.008  0.6329  0.0535  0.1541
 3133TIP3    H230815   4.743   6.787  15.077  0.3555  0.0487  0.6298
 3134TIP3   OH230816   2.786   1.500   6.970 -0.0258 -0.1158  0.0881
 3134TIP3    H130817   2.768   1.451   6.889 -1.8772  3.3497 -1.8296
 3134TIP3    H230818   2.874   1.536   6.957 -0.1805  0.1475 -0.2676
 3135TIP3   OH230819   4.681   1.237   3.858  0.0728 -0.1971  0.3359
 3135TIP3    H130820   4.637   1.152   3.861 -0.7407  0.1639 -0.5761
 3135TIP3    H230821   4.657   1.280   3.940 -0.8261 -0.2357  0.1054
 3136TIP3   OH230822   5.304   1.332   2.856  0.1972  0.3329  0.0382
 3136TIP3    H130823   5.366   1.272   2.814  0.5426  0.2495  0.6431
 3136TIP3    H230824   5.244   1.274   2.904  0.8320  0.4731  1.0297
 3137TIP3   OH230825   4.227   6.214  11.840 -0.5324 -0.4629 -0.0501
 3137TIP3    H130826   4.242   6.307  11.854 -1.9673 -0.2835  0.5171
 3137TIP3    H230827   4.132   6.207  11.825 -0.7491 -2.0207  1.7215
 3138TIP3   OH230828   2.998   3.215   1.095 -0.2561 -0.0793 -0.0874
 3138TIP3    H130829   2.950   3.295   1.077  1.0954  1.1046  1.2964
 3138TIP3    H230830   3.059   3.238   1.165 -0.8513 -2.7001  1.4415
 3139TIP3   OH230831   3.762   3.519  13.222  0.2571  0.5133 -0.0045
 3139TIP3    H130832   3.667   3.530  13.235  0.0294 -1.3956  0.3110
 3139TIP3    H230833   3.796   3.499  13.310  0.7607  0.1096 -0.2847
 3140TIP3   OH230834   2.604   3.282   4.553 -0.2171 -0.6235 -0.7738
 3140TIP3    H130835   2.666   3.350   4.579  0.0002 -0.9492 -0.4292
 3140TIP3    H230836   2.521   3.328   4.541 -0.6251 -0.6029  1.6209
 3141TIP3   OH230837   5.573   1.374  16.979 -0.2074 -0.2068  0.4116
 3141TIP3    H130838   5.486   1.411  16.990 -0.5810 -0.6796 -0.7395
 3141TIP3    H230839   5.629   1.449  16.959 -0.0972  0.2514  2.2998
 3142TIP3   OH230840   5.143   5.148  13.061 -0.0488  0.1349  0.3803
 3142TIP3    H130841   5.093   5.129  13.140 -0.7297  0.8363  0.1375
 3142TIP3    H230842   5.177   5.063  13.033 -0.1404 -0.1798  1.1935
 3143TIP3   OH230843   1.676   1.159  13.434 -0.1951 -0.5787 -0.0915
 3143TIP3    H130844   1.711   1.076  13.463 -2.0061 -1.4147 -0.1505
 3143TIP3    H230845   1.582   1.153  13.451 -0.4635  1.2041 -0.6838
 3144TIP3   OH230846   2.109   0.035  14.521 -0.2604 -0.2498  0.3017
 3144TIP3    H130847   2.179  -0.030  14.521 -1.0570 -1.1762  2.3391
 3144TIP3    H230848   2.074   0.033  14.431 -0.6792 -3.1512  0.4567
 3145TIP3   OH230849   4.065   5.459   2.965 -0.3424  0.6525  0.2877
 3145TIP3    H130850   4.084   5.369   2.937  0.0041  0.6651  0.4830
 3145TIP3    H230851   3.972   5.471   2.944 -0.1151  0.6345 -0.7738
 3146TIP3   OH230852   0.845   5.257   2.663 -0.1553  0.8051 -0.3277
 3146TIP3    H130853   0.755   5.225   2.672 -0.5014  1.9911  0.7250
 3146TIP3    H230854   0.855   5.273   2.569  0.8004 -4.2790 -1.3603
 3147TIP3   OH230855   1.766   4.916  17.058 -1.1506  0.3797 -0.1181
 3147TIP3    H130856   1.712   4.912  16.978 -0.0501 -1.7420 -0.8440
 3147TIP3    H230857   1.740   4.838  17.108 -0.0030  0.2547  0.3198
 3148TIP3   OH230858   5.278   2.812  16.989  0.1131 -0.3374 -0.1050
 3148TIP3    H130859   5.271   2.855  17.073 -2.1109  0.6782 -0.7397
 3148TIP3    H230860   5.271   2.718  17.009 -1.8222 -0.0517  0.7715
 3149TIP3   OH230861   3.965   3.468  12.157  0.4528 -0.2409 -0.0277
 3149TIP3    H130862   3.905   3.395  12.139  0.2201 -0.3953  1.3275
 3149TIP3    H230863   3.999   3.451  12.245  0.4403  1.2628  0.2929
 3150TIP3   OH230864   3.150   4.004   5.620 -0.1448 -0.2890 -0.0736
 3150TIP3    H130865   3.134   4.010   5.714 -0.1806  0.1870 -0.1098
 3150TIP3    H230866   3.070   4.037   5.579 -0.5384 -1.4589 -0.2871
 3151TIP3   OH230867   4.057   4.868   3.103  0.1463  0.2985 -0.4847
 3151TIP3    H130868   3.986   4.877   3.040 -1.0244 -0.7756  0.6211
 3151TIP3    H230869   4.016   4.886   3.188  0.5275 -2.7317  0.4719
 3152TIP3   OH230870   2.940   1.635  14.427  0.1117 -0.7199 -0.1145
 3152TIP3    H130871   3.017   1.689  14.412  0.2567 -1.2482 -1.4111
 3152TIP3    H230872   2.976   1.551  14.456 -0.1288 -0.0340  2.3344
 3153TIP3   OH230873   4.883   6.414   0.072 -0.2835 -0.0611  0.8983
 3153TIP3    H130874   4.897   6.508   0.083  0.5358 -0.1838  0.9927
 3153TIP3    H230875   4.971   6.378   0.056 -0.9650 -0.3443 -3.0415
 3154TIP3   OH230876   0.047   3.599   2.865 -0.1700 -0.0452  0.1220
 3154TIP3    H130877  -0.039   3.583   2.826 -0.2803 -1.8899  1.0196
 3154TIP3    H230878   0.086   3.513   2.874  0.7158  0.5030  2.1056
 3155TIP3   OH230879   4.428   0.521   3.054  1.1241 -0.1575  0.5227
 3155TIP3    H130880   4.482   0.495   2.979  1.7339 -1.5267  1.4076
 3155TIP3    H230881   4.484   0.507   3.130 -0.1862 -0.8309  1.4007
 3156TIP3   OH230882   5.046   2.766  15.195 -0.4331 -0.3393  0.5429
 3156TIP3    H130883   5.052   2.850  15.240 -1.1448 -0.2691  0.5238
 3156TIP3    H230884   5.137   2.739  15.181 -0.1716  1.1049 -0.7328
 3157TIP3   OH230885   0.655   1.559  16.758  0.5004  0.5910 -0.4751
 3157TIP3    H130886   0.616   1.595  16.837  0.4172 -0.1661 -0.1649
 3157TIP3    H230887   0.742   1.531  16.785  1.9893  3.6810 -1.4995
 3158TIP3   OH230888   2.141   5.506   3.257 -0.5526  0.1576  0.2974
 3158TIP3    H130889   2.233   5.512   3.232 -0.7016 -1.0161 -0.5660
 3158TIP3    H230890   2.143   5.494   3.352  0.2684 -1.5999  0.0856
 3159TIP3   OH230891   4.381   2.542  15.014 -0.1884 -0.0473  0.2498
 3159TIP3    H130892   4.339   2.457  15.025  0.7153 -0.6937 -1.1188
 3159TIP3    H230893   4.308   2.604  15.010 -1.0096 -1.0587 -1.2767
 3160TIP3   OH230894   5.731   5.635   1.551 -0.4098  0.0603 -0.3552
 3160TIP3    H130895   5.705   5.657   1.640  1.2109  0.1586  0.1400
 3160TIP3    H230896   5.774   5.550   1.559  0.1256  0.2640 -0.9600
 3161TIP3   OH230897   2.694   3.732   4.838  0.0253 -0.0915  0.8808
 3161TIP3    H130898   2.708   3.812   4.889 -1.1818 -0.0960  1.2345
 3161TIP3    H230899   2.709   3.661   4.902 -0.3973 -0.1176  0.9515
 3162TIP3   OH230900   0.087   0.380   4.413  0.8204  0.3944 -0.0368
 3162TIP3    H130901   0.107   0.345   4.499  0.9363  2.0922  0.6643
 3162TIP3    H230902   0.172   0.386   4.369  0.8131 -0.0390 -0.1220
 3163TIP3   OH230903   3.110   6.312  13.091  0.2653 -0.1070  0.2963
 3163TIP3    H130904   3.051   6.237  13.094 -0.1688  0.2126 -0.1019
 3163TIP3    H230905   3.088   6.364  13.168 -2.4609  1.8402 -1.6415
 3164TIP3   OH230906   3.338   5.872   5.366  0.5057 -0.2620 -0.8297
 3164TIP3    H130907   3.291   5.859   5.449  0.4000 -1.7909 -1.1137
 3164TIP3    H230908   3.431   5.868   5.390  0.4985  0.6014 -0.6062
 3165TIP3   OH230909   3.324   5.453  11.176 -0.1073 -0.3688 -0.2665
 3165TIP3    H130910   3.237   5.418  11.156 -0.6455  0.4303  0.5903
 3165TIP3    H230911   3.367   5.459  11.091 -1.6135  1.0949 -0.9837
 3166TIP3   OH230912   4.343   3.043   2.038 -0.0780 -0.6090 -0.3623
 3166TIP3    H130913   4.309   3.093   2.112  0.5212 -0.9071  0.1285
 3166TIP3    H230914   4.392   3.107   1.986 -0.7666 -0.3326 -0.6808
 3167TIP3   OH230915   6.605   0.046  14.180  0.1378 -0.2807  0.1392
 3167TIP3    H130916   6.564   0.132  14.181 -1.9555 -1.2094  0.2232
 3167TIP3    H230917   6.603   0.017  14.272  1.1862 -0.2976  0.1757
 3168TIP3   OH230918   6.634   4.086  16.412  0.0324 -0.0085 -0.1622
 3168TIP3    H130919   6.563   4.149  16.422 -0.4556 -0.5115 -0.3992
 3168TIP3    H230920   6.592   4.000  16.419  0.6259 -0.3126 -0.2222
 3169TIP3   OH230921   0.306   2.210  14.273  0.1536 -0.4413  0.0207
 3169TIP3    H130922   0.216   2.241  14.281  0.2042 -0.6392  1.7411
 3169TIP3    H230923   0.303   2.119  14.302  1.2728  0.2412  2.5675
 3170TIP3   OH230924   3.670   1.592  10.498 -0.6308  0.6122  0.5700
 3170TIP3    H130925   3.698   1.519  10.552 -0.5632  0.8776  0.8983
 3170TIP3    H230926   3.750   1.626  10.458 -0.1777  2.4340  2.8245
 3171TIP3   OH230927   6.547   0.372   1.381 -0.1880 -0.5596  0.2113
 3171TIP3    H130928   6.524   0.282   1.356  1.1107 -0.5048 -1.3408
 3171TIP3    H230929   6.578   0.364   1.472  0.8077 -1.8638 -0.2061
 3172TIP3   OH230930   6.665   6.387  11.652  0.0362  0.1769 -0.4810
 3172TIP3    H130931   6.672   6.317  11.587  1.1742 -0.5230  0.3573
 3172TIP3    H230932   6.571   6.403  11.659 -0.4783 -2.7953  0.8596
 3173TIP3   OH230933   1.566   6.012  13.378  1.0836 -0.7306 -0.2844
 3173TIP3    H130934   1.617   6.087  13.410  0.3128 -0.8153  1.2349
 3173TIP3    H230935   1.475   6.037  13.390  0.7845 -1.3145 -1.2172
 3174TIP3   OH230936   0.737   2.244  16.630 -0.4841 -0.4211  0.1490
 3174TIP3    H130937   0.763   2.157  16.600 -0.0831 -0.0561 -0.5684
 3174TIP3    H230938   0.800   2.304  16.591 -0.9572  0.2364  0.3600
 3175TIP3   OH230939   2.734   6.416   5.088 -0.1192 -0.3354  0.4332
 3175TIP3    H130940   2.708   6.339   5.038  1.3865 -1.1406  0.8326
 3175TIP3    H230941   2.824   6.398   5.116 -0.1768  1.0078  1.6310
 3176TIP3   OH230942   5.259   2.007  13.959 -0.0557 -0.1610  0.3938
 3176TIP3    H130943   5.266   2.064  13.882  0.8790 -0.4463  0.2595
 3176TIP3    H230944   5.206   2.057  14.021  2.3456  1.7418  1.0578
 3177TIP3   OH230945   4.957   1.536   4.521 -0.2340  0.4913 -0.3281
 3177TIP3    H130946   4.887   1.582   4.567 -1.0361  1.3457 -2.2812
 3177TIP3    H230947   5.024   1.523   4.588 -0.5394  3.2802  0.6974
 3178TIP3   OH230948   3.740   5.459  12.347  0.9068  0.0687  0.3384
 3178TIP3    H130949   3.751   5.553  12.333 -0.8337  0.5646  1.8948
 3178TIP3    H230950   3.668   5.452  12.410  0.8994 -2.3219  0.1709
 3179TIP3   OH230951   5.019   2.307  16.487  0.3254 -0.1210  0.0519
 3179TIP3    H130952   5.108   2.339  16.473  0.7016 -1.2869 -0.3542
 3179TIP3    H230953   5.027   2.211  16.486 -0.7176 -0.2528  1.4082
 3180TIP3   OH230954   4.252   4.347   0.581  0.0965  0.5866 -0.1292
 3180TIP3    H130955   4.328   4.371   0.632  0.1984  0.7724 -0.3647
 3180TIP3    H230956   4.179   4.393   0.622  0.0901  0.3216  0.1621
 3181TIP3   OH230957   5.715   5.997   6.256  0.1546  0.4571  0.0865
 3181TIP3    H130958   5.737   6.088   6.234  0.1954  0.5525  0.5037
 3181TIP3    H230959   5.673   5.962   6.178  0.1670  0.8288 -0.0868
 3182TIP3   OH230960   6.551   6.691   3.017 -0.6106 -0.3781 -0.2668
 3182TIP3    H130961   6.609   6.668   2.945  2.0237  0.9078  1.3125
 3182TIP3    H230962   6.467   6.710   2.975  0.1443 -1.9410 -2.6954
 3183TIP3   OH230963   3.904   2.838   1.490  0.0756 -0.6677 -0.1292
 3183TIP3    H130964   3.830   2.830   1.550  0.0258 -0.7062 -0.1951
 3183TIP3    H230965   3.958   2.908   1.526 -0.9826  0.7096 -1.1301
 3184TIP3   OH230966   4.887   5.619   2.904 -0.1780  0.2043 -0.4971
 3184TIP3    H130967   4.860   5.666   2.826 -2.9544  0.7260  0.6744
 3184TIP3    H230968   4.887   5.685   2.974  1.6745 -0.3643  0.0900
 3185TIP3   OH230969   2.858   0.776   6.588  0.3176 -0.3277 -0.2227
 3185TIP3    H130970   2.819   0.861   6.568  0.4010 -0.4336 -0.8360
 3185TIP3    H230971   2.787   0.725   6.627  0.2466 -0.0051  0.0705
 3186TIP3   OH230972   6.409   3.011   5.983 -0.4590 -0.2603  0.0429
 3186TIP3    H130973   6.484   3.065   5.960  0.2684 -1.1190  0.3435
 3186TIP3    H230974   6.426   2.983   6.073 -0.8736 -0.8820 -0.0643
 3187TIP3   OH230975   2.640   5.682  15.839  0.4756 -0.2617 -0.6447
 3187TIP3    H130976   2.636   5.586  15.842  0.8682 -0.2684 -0.1976
 3187TIP3    H230977   2.549   5.709  15.853  0.5737 -0.5532  0.7988
 3188TIP3   OH230978   5.127   1.837   1.078  0.4673 -0.3118 -0.7440
 3188TIP3    H130979   5.149   1.846   1.170 -0.4956  0.7653 -0.6022
 3188TIP3    H230980   5.192   1.889   1.032  0.1889  0.1893 -0.5736
 3189TIP3   OH230981   0.142   1.432   5.337  0.1281  0.0027 -0.3872
 3189TIP3    H130982   0.169   1.519   5.306  1.7828  1.2576  3.9140
 3189TIP3    H230983   0.047   1.440   5.349  0.3767  1.6970  0.9349
 3190TIP3   OH230984   1.256   3.003  16.877 -0.1981 -0.1508 -0.3946
 3190TIP3    H130985   1.352   2.997  16.881 -0.1597  0.4098  2.7577
 3190TIP3    H230986   1.239   3.075  16.816  1.6915  2.4178  1.8343
 3191TIP3   OH230987   1.755   3.549   4.996  0.0488 -0.4369 -0.1714
 3191TIP3    H130988   1.775   3.642   4.984 -2.5572  0.4279  1.3269
 3191TIP3    H230989   1.756   3.512   4.908  2.6079  0.6043 -0.6562
 3192TIP3   OH230990   1.969   4.961  15.208 -0.0841  0.1051 -0.0055
 3192TIP3    H130991   1.893   4.929  15.257  0.0489 -1.8134 -0.9838
 3192TIP3    H230992   1.939   5.043  15.168 -0.8629  0.5935  1.5131
 3193TIP3   OH230993   0.411   5.263  15.446  0.2077 -0.6324  0.6842
 3193TIP3    H130994   0.491   5.215  15.466  1.6624 -0.1658 -3.2248
 3193TIP3    H230995   0.416   5.342  15.500  1.6332 -1.2855  1.5466
 3194TIP3   OH230996   6.571   2.552   0.297  0.4661 -0.3261  0.3454
 3194TIP3    H130997   6.550   2.465   0.331  0.6916 -0.6105 -0.2250
 3194TIP3    H230998   6.521   2.560   0.216 -0.1282  0.3787  0.7671
 3195TIP3   OH230999   1.526   2.604   3.945 -0.5391 -0.1786  0.1396
 3195TIP3    H131000   1.471   2.531   3.972  1.2032 -0.9697  1.7735
 3195TIP3    H231001   1.597   2.564   3.895 -0.4335  0.5874 -0.3455
 3196TIP3   OH231002   4.201   0.494   0.182 -0.1862  0.4375  0.2268
 3196TIP3    H131003   4.291   0.503   0.213 -0.2124 -0.5844  0.6349
 3196TIP3    H231004   4.158   0.575   0.211  0.3083  0.4076  1.0898
 3197TIP3   OH231005   2.152   3.624   1.830  0.1989 -0.2045  0.4940
 3197TIP3    H131006   2.110   3.566   1.893  0.5798  0.3214  1.2499
 3197TIP3    H231007   2.238   3.585   1.815  0.4214  0.1073  0.9350
 3198TIP3   OH231008   6.175   3.664   0.374  0.5339  0.1840 -0.1545
 3198TIP3    H131009   6.184   3.730   0.305 -0.9778  1.2647  0.6276
 3198TIP3    H231010   6.204   3.709   0.453 -1.9929  0.5069  0.6669
 3199TIP3   OH231011   0.950   3.003   4.005  0.1375 -0.0424 -0.3766
 3199TIP3    H131012   0.924   2.942   4.073  1.1658 -2.5635 -2.0770
 3199TIP3    H231013   0.888   2.987   3.934  1.0811  0.0803 -1.2531
 3200TIP3   OH231014   5.429   1.788  11.304 -0.1915  0.0464 -0.1822
 3200TIP3    H131015   5.494   1.719  11.304 -1.1598 -0.8912 -0.7844
 3200TIP3    H231016   5.446   1.838  11.224 -1.1384 -1.1232 -1.1466
 3201TIP3   OH231017   0.857   3.628   4.668  0.7286 -0.1803  0.1540
 3201TIP3    H131018   0.864   3.669   4.582 -0.2720  0.4783  0.3773
 3201TIP3    H231019   0.853   3.534   4.649 -3.1047  0.0318 -0.8277
 3202TIP3   OH231020   0.934   3.537  12.002 -0.4300  0.6810  0.3851
 3202TIP3    H131021   0.935   3.606  12.068  1.7453  1.9828 -0.9006
 3202TIP3    H231022   1.023   3.503  12.001 -0.7884 -0.3130 -0.8895
 3203TIP3   OH231023   3.439   5.019   1.683 -0.2144 -0.0817  0.1474
 3203TIP3    H131024   3.444   4.965   1.762 -2.2351  0.5143  0.7492
 3203TIP3    H231025   3.433   5.109   1.716 -1.0342  0.1755 -0.6623
 3204TIP3   OH231026   1.886   4.786   2.840 -0.6115 -0.2772 -0.4249
 3204TIP3    H131027   1.817   4.819   2.782  0.7027  0.6714 -1.5063
 3204TIP3    H231028   1.958   4.849   2.830  0.6050 -1.4924  0.2981
 3205TIP3   OH231029   0.861   0.917  16.883 -0.2777 -0.4746  0.0698
 3205TIP3    H131030   0.940   0.970  16.897 -1.0624  0.8690 -0.3910
 3205TIP3    H231031   0.889   0.827  16.898  0.9592  0.1151  1.5408
 3206TIP3   OH231032   6.472   2.346  12.266  0.1246  0.0765 -0.3012
 3206TIP3    H131033   6.405   2.301  12.318 -0.0546  0.5315 -0.1356
 3206TIP3    H231034   6.422   2.400  12.204  0.2716 -2.0407 -2.4415
 3207TIP3   OH231035   6.095   1.975   4.952  0.2962  0.0066 -0.4388
 3207TIP3    H131036   6.069   1.905   5.012  1.7886 -0.7023 -0.5642
 3207TIP3    H231037   6.117   1.930   4.871 -0.0460  0.7810 -0.9712
 3208TIP3   OH231038   4.367   2.330  13.835  0.0201  0.0212 -0.6482
 3208TIP3    H131039   4.279   2.336  13.798 -0.2284  1.0957  0.0803
 3208TIP3    H231040   4.386   2.419  13.865  0.7398 -0.5450  0.6100
 3209TIP3   OH231041   1.060   6.506  14.407 -0.3828  0.0603  0.1135
 3209TIP3    H131042   1.026   6.428  14.364  0.0638 -1.2265  2.0099
 3209TIP3    H231043   1.155   6.502  14.395 -0.4609  1.1550 -1.0959
 3210TIP3   OH231044   5.660   4.935  12.143  0.0099  0.1562  0.3651
 3210TIP3    H131045   5.695   4.847  12.158  0.2013  0.5180  2.3065
 3210TIP3    H231046   5.732   4.994  12.166 -0.0830  0.8475 -1.0177
 3211TIP3   OH231047   0.189   4.450  14.603  0.2259  0.1941  0.0144
 3211TIP3    H131048   0.116   4.403  14.644  2.1577 -1.8635  1.3203
 3211TIP3    H231049   0.221   4.391  14.535 -0.2131  1.7494 -1.6298
 3212TIP3   OH231050   0.181   5.240   2.272 -1.0144 -0.3738 -0.5056
 3212TIP3    H131051   0.259   5.296   2.277 -0.7630 -0.8313  1.9584
 3212TIP3    H231052   0.192   5.190   2.191 -0.1584  1.5363 -1.6347
 3213TIP3   OH231053   2.543   5.381   5.532  0.2386  0.9715 -0.4832
 3213TIP3    H131054   2.470   5.404   5.474  0.5078 -1.1700 -1.7926
 3213TIP3    H231055   2.501   5.347   5.611 -0.1387  1.6798 -0.3652
 3214TIP3   OH231056   5.203   1.005  11.889  0.1452  0.0528  0.0471
 3214TIP3    H131057   5.133   0.976  11.947  0.3574 -0.7336 -0.0855
 3214TIP3    H231058   5.185   1.098  11.874 -1.3130 -0.3204 -0.6125
 3215TIP3   OH231059   6.235   5.808   1.992 -0.0125 -0.1463 -0.3359
 3215TIP3    H131060   6.215   5.892   1.950 -0.3581  1.2991  2.4579
 3215TIP3    H231061   6.243   5.746   1.919 -0.5614  2.1124 -2.4701
 3216TIP3   OH231062   6.704   1.899  12.393 -0.6468  0.2724 -0.0898
 3216TIP3    H131063   6.736   1.830  12.451 -1.6794 -1.3061 -1.3407
 3216TIP3    H231064   6.671   1.967  12.453 -2.1497 -1.5091  1.2208
 3217TIP3   OH231065   5.204   5.270   4.488 -0.1119  0.2421  0.1296
 3217TIP3    H131066   5.151   5.238   4.415 -0.4578 -0.1296  0.5463
 3217TIP3    H231067   5.154   5.250   4.566  1.4699 -1.9281  0.6984
 3218TIP3   OH231068   5.589   6.358   1.484  0.8513 -0.1170 -0.4903
 3218TIP3    H131069   5.494   6.363   1.470  0.9970 -0.1395 -1.6041
 3218TIP3    H231070   5.616   6.450   1.491  0.4822 -0.1318  2.0604
 3219TIP3   OH231071   0.733   5.408  16.339 -0.3291 -0.1921 -0.3452
 3219TIP3    H131072   0.682   5.485  16.364 -0.0890 -0.3097  0.5243
 3219TIP3    H231073   0.796   5.440  16.274  2.0671  1.1147  2.4198
 3220TIP3   OH231074   5.976   2.743   3.275 -0.4226 -0.4541  0.0177
 3220TIP3    H131075   6.058   2.745   3.227 -0.2651  1.7525  0.2455
 3220TIP3    H231076   5.960   2.835   3.298 -2.2874 -0.9951  1.1027
 3221TIP3   OH231077   2.038   0.853   0.797  0.2462  0.1644  0.0855
 3221TIP3    H131078   2.074   0.917   0.735 -0.2755  0.5516  0.1746
 3221TIP3    H231079   2.108   0.839   0.861  0.8714 -0.4122 -0.7133
 3222TIP3   OH231080   3.759   2.750  14.683  0.0670 -0.2040  0.4418
 3222TIP3    H131081   3.754   2.698  14.763  0.4954 -1.0367 -0.0577
 3222TIP3    H231082   3.852   2.765  14.669  0.1548 -1.8148 -0.9745
 3223TIP3   OH231083   4.916   0.636  12.607 -0.1994 -0.3218  0.3680
 3223TIP3    H131084   4.970   0.559  12.587 -0.4889 -0.4410  0.0172
 3223TIP3    H231085   4.943   0.663  12.694 -0.1658 -0.8885  0.5379
 3224TIP3   OH231086   3.862   2.905   5.089 -0.6637  0.0434 -0.3033
 3224TIP3    H131087   3.802   2.831   5.094 -0.9021  0.2400 -0.2129
 3224TIP3    H231088   3.813   2.978   5.128 -0.1352  0.0612  0.3319
 3225TIP3   OH231089   1.557   2.207   4.995 -0.0725 -0.2283  0.3861
 3225TIP3    H131090   1.501   2.251   5.059 -1.6853 -2.9064  0.9762
 3225TIP3    H231091   1.625   2.165   5.047  1.1810  1.0828 -0.1266
 3226TIP3   OH231092   2.611   1.711  11.100 -0.4813 -0.3145 -0.1040
 3226TIP3    H131093   2.659   1.647  11.153 -0.5116 -2.0398 -1.9773
 3226TIP3    H231094   2.679   1.753  11.047 -0.7403 -1.0855 -1.0900
 3227TIP3   OH231095   5.777   4.051   0.625  0.2101 -0.6312  0.3244
 3227TIP3    H131096   5.688   4.081   0.640 -0.0347 -0.8087 -0.6497
 3227TIP3    H231097   5.770   3.956   0.620  0.7842 -0.8086  2.1741
 3228TIP3   OH231098   1.982   2.502  16.626  0.1678  0.3322 -0.3947
 3228TIP3    H131099   1.897   2.515  16.583 -0.4952 -0.0508  0.7579
 3228TIP3    H231100   2.010   2.591  16.650 -1.4427  0.2942  2.0048
 3229TIP3   OH231101   4.334   4.788  16.650 -0.2393  0.3482 -0.1018
 3229TIP3    H131102   4.347   4.794  16.744  2.4210 -1.8224 -0.2023
 3229TIP3    H231103   4.242   4.766  16.640 -0.9382  2.0787  1.8486
 3230TIP3   OH231104   3.494   5.555   3.881  0.2210  0.1208 -0.3680
 3230TIP3    H131105   3.404   5.545   3.912 -0.1214 -1.5407 -1.7446
 3230TIP3    H231106   3.548   5.523   3.954 -0.2679  1.1011  0.4529
 3231TIP3   OH231107   6.198   6.314  14.431  0.7513  0.4249  0.1679
 3231TIP3    H131108   6.117   6.350  14.466  0.9705  0.1532  0.9902
 3231TIP3    H231109   6.187   6.315  14.336  0.0768  1.0522  0.2500
 3232TIP3   OH231110   4.581   6.785  15.929 -0.4114 -0.7929  0.8655
 3232TIP3    H131111   4.664   6.738  15.925 -0.6262 -1.4039  2.5777
 3232TIP3    H231112   4.554   6.794  15.838  2.1930  0.7022  0.1346
 3233TIP3   OH231113   4.221   1.500  11.563  0.5917  0.4207  0.0509
 3233TIP3    H131114   4.139   1.528  11.523  0.3085 -0.8951 -0.3566
 3233TIP3    H231115   4.268   1.454  11.493  1.0515 -0.0443  0.6490
 3234TIP3   OH231116   3.007   4.136   2.778 -0.0920 -0.1524  0.1990
 3234TIP3    H131117   3.096   4.107   2.796 -0.0576  0.1045  0.4608
 3234TIP3    H231118   2.953   4.057   2.785 -0.0837 -0.0642  1.4917
 3235TIP3   OH231119   0.060   6.435  12.505 -0.5454 -0.5190 -0.2598
 3235TIP3    H131120   0.115   6.466  12.576  0.9462 -0.0683 -1.5522
 3235TIP3    H231121   0.102   6.354  12.475 -3.7995 -3.5158  2.3869
 3236TIP3   OH231122   0.416   4.822   6.417 -0.1016  0.5335  0.3735
 3236TIP3    H131123   0.506   4.824   6.383 -0.2446  0.1302 -0.0457
 3236TIP3    H231124   0.380   4.909   6.395  0.0445  0.5375  0.1473
 3237TIP3   OH231125   5.129   1.837   3.071 -0.7193 -0.3081 -0.0712
 3237TIP3    H131126   5.102   1.839   3.163 -0.7261  0.2104 -0.0795
 3237TIP3    H231127   5.106   1.749   3.041  0.5899 -0.9758  0.8103
 3238TIP3   OH231128   5.926   5.696  15.123 -0.8380 -0.4214  0.0659
 3238TIP3    H131129   5.916   5.702  15.218  1.0400 -2.7554  0.4904
 3238TIP3    H231130   6.016   5.667  15.110 -0.3324  1.8552 -2.5773
 3239TIP3   OH231131   4.802   1.211  16.478 -0.3958 -0.0638  0.1921
 3239TIP3    H131132   4.816   1.117  16.463 -1.8723 -0.4388  0.9189
 3239TIP3    H231133   4.890   1.248  16.482  0.2064 -1.2810 -0.8883
 3240TIP3   OH231134   1.592   0.930  12.756  0.1322 -0.1487  0.6109
 3240TIP3    H131135   1.630   1.014  12.730 -0.1550 -0.3149 -0.3994
 3240TIP3    H231136   1.618   0.919  12.847  3.4048 -0.7595 -0.2815
 3241TIP3   OH231137   2.240   4.529   6.129  0.0057  0.3810 -0.4035
 3241TIP3    H131138   2.297   4.494   6.060  1.9616 -2.1339  2.2344
 3241TIP3    H231139   2.292   4.523   6.209 -2.5632  1.9711  1.5706
 3242TIP3   OH231140   5.189   6.200  10.680 -1.1809 -0.0892  0.2534
 3242TIP3    H131141   5.175   6.294  10.695  0.7567  0.0252  1.7775
 3242TIP3    H231142   5.115   6.157  10.722 -1.8499  0.7346 -0.0614
 3243TIP3   OH231143   5.205   5.251  13.383 -0.0989 -0.3153  0.3318
 3243TIP3    H131144   5.238   5.321  13.327 -1.2147  0.4762  0.6162
 3243TIP3    H231145   5.164   5.189  13.322 -2.3960  1.1342  0.2495
 3244TIP3   OH231146   3.539   5.744   5.508  0.5726 -0.5726 -0.1758
 3244TIP3    H131147   3.492   5.661   5.520 -3.1511  1.4659  1.0986
 3244TIP3    H231148   3.576   5.763   5.594 -1.2386  0.4198  0.4435
 3245TIP3   OH231149   0.241   5.961  12.767  0.2680  0.5043 -0.0140
 3245TIP3    H131150   0.272   6.031  12.710  2.4341 -0.1735  0.2763
 3245TIP3    H231151   0.291   5.884  12.742 -1.2116 -0.6762  0.5007
 3246TIP3   OH231152   0.784   5.610  15.349 -0.2178  0.6266  0.1249
 3246TIP3    H131153   0.838   5.625  15.426  1.0872  1.0624 -0.8329
 3246TIP3    H231154   0.784   5.694  15.303 -1.2622  0.4678 -0.1749
 3247TIP3   OH231155   6.671   3.211   5.067 -0.3678  0.3643  0.2716
 3247TIP3    H131156   6.617   3.153   5.012  0.0066 -0.0412  0.3224
 3247TIP3    H231157   6.735   3.248   5.006  1.1094 -1.3543  0.6751
 3248TIP3   OH231158   5.551   6.088   4.111  0.0014  0.1188  0.6781
 3248TIP3    H131159   5.467   6.132   4.115 -0.4460 -0.6337 -0.0219
 3248TIP3    H231160   5.609   6.141   4.166 -0.6418  1.2505  0.2918
 3249TIP3   OH231161   5.856   4.927   0.244 -0.2961 -0.2006  0.0924
 3249TIP3    H131162   5.836   4.907   0.336  1.6235  1.9208  1.0608
 3249TIP3    H231163   5.859   4.841   0.201  0.5771 -1.4298  2.4211
 3250TIP3   OH231164   0.147   1.973  12.152 -0.2914 -0.4005 -0.2461
 3250TIP3    H131165   0.078   1.956  12.216  1.1146 -0.1460  1.3927
 3250TIP3    H231166   0.188   1.888  12.137 -3.0196 -1.3151 -3.8747
 3251TIP3   OH231167   4.295   4.130   3.845  0.4089 -0.4197  0.3027
 3251TIP3    H131168   4.357   4.121   3.773 -0.4478  0.2679 -0.5562
 3251TIP3    H231169   4.216   4.167   3.804  0.7054  2.3531  1.9786
 3252TIP3   OH231170   3.461   5.403   2.383 -0.0483  0.0771  0.0800
 3252TIP3    H131171   3.468   5.311   2.407  0.8849  0.0355 -0.3108
 3252TIP3    H231172   3.423   5.402   2.295 -0.2484  0.0728  0.1670
 3253TIP3   OH231173   5.560   3.035   3.720  0.4949  0.0453 -1.2469
 3253TIP3    H131174   5.538   3.088   3.643 -0.9017  0.5311 -0.5579
 3253TIP3    H231175   5.479   3.033   3.771  1.0357 -1.2951 -0.3853
 3254TIP3   OH231176   0.544   3.706   2.949  0.8484  0.3234  0.3293
 3254TIP3    H131177   0.568   3.799   2.946 -0.3334  0.6431  0.0955
 3254TIP3    H231178   0.461   3.702   2.901 -0.1279 -0.5276  2.0142
 3255TIP3   OH231179   2.022   2.608   1.138  0.1319 -0.1365  0.8557
 3255TIP3    H131180   2.047   2.669   1.207 -0.4417  1.5648 -0.3753
 3255TIP3    H231181   1.947   2.650   1.095  1.2501 -0.4924 -1.5755
 3256TIP3   OH231182   5.645   3.619  13.635  0.4411 -0.1600  0.3496
 3256TIP3    H131183   5.740   3.617  13.643  0.6808 -0.0926 -1.9624
 3256TIP3    H231184   5.628   3.681  13.564 -1.3333 -0.2312  0.6676
 3257TIP3   OH231185   0.445   0.776  15.512 -0.0091 -0.0688 -0.2188
 3257TIP3    H131186   0.534   0.744  15.528 -0.9460 -1.4217  3.2365
 3257TIP3    H231187   0.442   0.861  15.556 -0.6003 -0.3647  0.3305
 3258TIP3   OH231188   6.067   2.323   5.719 -0.1469 -0.0201 -0.0404
 3258TIP3    H131189   5.990   2.374   5.746  0.1335  0.7485 -0.6394
 3258TIP3    H231190   6.083   2.263   5.792 -2.5573 -1.6729 -0.7408
 3259TIP3   OH231191   0.210   2.779  13.895 -0.3223 -0.3765 -0.2121
 3259TIP3    H131192   0.168   2.754  13.978 -1.8057  0.1580 -0.7696
 3259TIP3    H231193   0.272   2.848  13.919 -2.0452  1.0838  0.2490
 3260TIP3   OH231194   0.508   2.966   2.032  0.4745  0.1749 -0.3110
 3260TIP3    H131195   0.512   2.921   1.948  0.4862 -2.8429  1.1691
 3260TIP3    H231196   0.597   2.995   2.048  0.5234  0.5497 -1.2117
 3261TIP3   OH231197   5.454   5.754   5.048  0.2265  0.1325 -0.4240
 3261TIP3    H131198   5.465   5.849   5.056 -0.9585  0.1749  1.4395
 3261TIP3    H231199   5.363   5.743   5.021  0.6256 -0.4715 -1.5753
 3262TIP3   OH231200   1.968   0.359   2.874 -0.5189 -0.1936 -0.2765
 3262TIP3    H131201   1.918   0.286   2.838  0.0715 -1.9612  2.1969
 3262TIP3    H231202   1.957   0.351   2.969  0.8820  1.9832  0.1423
 3263TIP3   OH231203   3.460   0.514  14.596  0.0689  0.7248 -0.3231
 3263TIP3    H131204   3.518   0.519  14.672 -0.5325  1.6956  0.0976
 3263TIP3    H231205   3.509   0.465  14.531  0.2143 -1.0246  1.0400
 3264TIP3   OH231206   6.366   6.272   3.402  0.2893  0.1520  0.3051
 3264TIP3    H131207   6.400   6.273   3.491 -1.1705  1.7658  0.8834
 3264TIP3    H231208   6.442   6.249   3.348  1.3710 -0.1150  1.8696
 3265TIP3   OH231209   1.380   3.286  12.358  0.4793 -0.1313  0.0984
 3265TIP3    H131210   1.451   3.307  12.419  0.2788  0.0324  0.2780
 3265TIP3    H231211   1.416   3.306  12.272  0.4376  0.5615  0.2342
 3266TIP3   OH231212   4.446   6.154  12.738 -0.0469  0.3556  0.0142
 3266TIP3    H131213   4.473   6.229  12.684 -1.7682 -1.2454 -3.3373
 3266TIP3    H231214   4.523   6.098  12.741 -0.1744  0.0525 -1.6326
 3267TIP3   OH231215   5.105   1.330   4.347  0.0997 -0.1981 -0.1273
 3267TIP3    H131216   5.158   1.360   4.274  0.7381 -0.1119  0.3647
 3267TIP3    H231217   5.015   1.350   4.321  0.4575  2.0077  0.0859
 3268TIP3   OH231218   6.244   4.143   3.416  0.3851  0.7091  0.1769
 3268TIP3    H131219   6.216   4.173   3.503  0.6829 -2.1521  1.3533
 3268TIP3    H231220   6.167   4.100   3.380  0.2377  1.9622 -1.0929
 3269TIP3   OH231221   0.559   4.408  11.382 -0.8254 -0.1490  0.0477
 3269TIP3    H131222   0.630   4.464  11.349 -0.1806 -0.5654  0.6888
 3269TIP3    H231223   0.564   4.416  11.477  0.9622 -3.2190  0.3509
 3270TIP3   OH231224   3.170   5.138  13.446 -0.4579 -1.0740 -0.9679
 3270TIP3    H131225   3.216   5.215  13.412 -0.6795 -0.3189  0.3863
 3270TIP3    H231226   3.224   5.064  13.416  1.4432 -0.2423  0.2090
 3271TIP3   OH231227   1.415   5.386  12.988 -0.7635 -0.1945 -0.1503
 3271TIP3    H131228   1.379   5.357  13.072  0.6733  2.1712  1.4105
 3271TIP3    H231229   1.412   5.481  12.993 -0.1868 -0.0017 -2.6270
 3272TIP3   OH231230   2.599   0.553  11.162  0.2128 -0.1670  0.4272
 3272TIP3    H131231   2.643   0.615  11.103  1.5428 -1.4061  0.0569
 3272TIP3    H231232   2.638   0.468  11.141 -0.8144 -0.9766  1.6462
 3273TIP3   OH231233   5.796   5.322   2.838 -0.6077 -0.1841 -0.0157
 3273TIP3    H131234   5.888   5.304   2.816 -1.1524 -2.7786 -0.4201
 3273TIP3    H231235   5.762   5.367   2.761 -0.0295 -0.4898 -0.4615
 3274TIP3   OH231236   1.128   3.073   5.045 -0.1837  0.0477  0.1700
 3274TIP3    H131237   1.190   3.026   5.100  0.0324 -0.8882 -0.8291
 3274TIP3    H231238   1.064   3.109   5.106 -0.0368 -1.0920  1.0260
 3275TIP3   OH231239   0.969   6.447  11.045  0.2207 -0.3417  0.1046
 3275TIP3    H131240   0.996   6.426  10.955 -2.6108  0.2099 -0.9675
 3275TIP3    H231241   0.935   6.537  11.040 -1.7984 -0.9718  1.2282
 3276TIP3   OH231242   5.363   1.150   0.380  0.2792 -0.2151 -0.3402
 3276TIP3    H131243   5.343   1.226   0.434  0.0053  1.0438 -2.1145
 3276TIP3    H231244   5.455   1.130   0.398 -0.0820 -0.4770  1.3039
 3277TIP3   OH231245   4.427   4.304  16.049  0.3267 -0.0617  0.1873
 3277TIP3    H131246   4.352   4.246  16.057  1.1354 -1.1827 -0.1390
 3277TIP3    H231247   4.409   4.357  15.971  0.9217 -1.9724 -1.3241
 3278TIP3   OH231248   6.062   1.330  13.148  0.2317 -0.4828  0.4441
 3278TIP3    H131249   5.969   1.308  13.141  0.5555 -1.5007 -1.3072
 3278TIP3    H231250   6.072   1.367  13.236 -1.5690 -1.6132  1.1687
 3279TIP3   OH231251   6.183   0.615  10.961 -0.3591 -0.8971 -0.1229
 3279TIP3    H131252   6.106   0.671  10.951 -1.1922 -2.0116 -0.1907
 3279TIP3    H231253   6.174   0.550  10.892  0.4884 -1.2309  0.0689
 3280TIP3   OH231254   2.336   2.490   3.009  0.0666  0.5775 -0.2355
 3280TIP3    H131255   2.297   2.577   3.010  0.9620  1.0045  0.9734
 3280TIP3    H231256   2.348   2.468   3.102  0.6540 -0.4538 -0.5342
 3281TIP3   OH231257   3.847   0.255   2.544  0.2601 -0.1191 -0.0568
 3281TIP3    H131258   3.826   0.243   2.636 -1.2319 -1.5617 -0.5495
 3281TIP3    H231259   3.823   0.172   2.502  1.7052  0.1872 -1.6209
 3282TIP3   OH231260   2.211   1.981  16.456 -0.0785  0.2288  0.0938
 3282TIP3    H131261   2.151   1.951  16.524 -1.9112  0.1944 -1.4522
 3282TIP3    H231262   2.170   2.061  16.421  0.4839 -0.0784 -1.3580
 3283TIP3   OH231263   5.747   6.685  14.534  0.1664 -0.1062  0.6592
 3283TIP3    H131264   5.816   6.752  14.544 -0.9324  1.1908 -0.0671
 3283TIP3    H231265   5.684   6.706  14.603 -1.9322  1.9256 -1.6472
 3284TIP3   OH231266   5.229   3.554  16.286  0.1584 -0.3354 -0.3815
 3284TIP3    H131267   5.136   3.547  16.306  0.4262  0.6809  1.4125
 3284TIP3    H231268   5.236   3.632  16.231  0.1136  0.5264  0.8124
 3285TIP3   OH231269   2.546   6.465   2.426 -0.0361  0.0443 -0.3745
 3285TIP3    H131270   2.538   6.539   2.365 -0.4725 -0.8356 -1.4190
 3285TIP3    H231271   2.630   6.425   2.402  0.6865  0.7586  0.8594
 3286TIP3   OH231272   2.982   0.624   4.828  0.1954 -0.2497  0.0150
 3286TIP3    H131273   2.967   0.659   4.741  3.3323 -1.4792 -1.1471
 3286TIP3    H231274   3.003   0.701   4.881 -0.6242  0.3809 -0.5432
 3287TIP3   OH231275   2.834   3.815   3.745  0.3155  0.0479 -0.0524
 3287TIP3    H131276   2.904   3.766   3.787 -0.2893 -0.7134  0.0875
 3287TIP3    H231277   2.866   3.829   3.655 -0.3709 -2.5253 -0.7953
 3288TIP3   OH231278   1.850   0.991   0.980  0.3153 -0.1799 -0.2446
 3288TIP3    H131279   1.762   0.985   0.944 -0.2964  0.2572  1.1414
 3288TIP3    H231280   1.899   1.043   0.916 -0.3605 -0.5659 -1.1018
 3289TIP3   OH231281   1.297   0.550  16.780 -0.3312  0.1036  0.0364
 3289TIP3    H131282   1.314   0.632  16.827 -1.7761 -0.0390  0.8581
 3289TIP3    H231283   1.209   0.525  16.806  0.0067 -1.6271 -0.3491
 3290TIP3   OH231284   2.346   3.625   1.122 -0.0143 -0.2173 -0.0479
 3290TIP3    H131285   2.321   3.647   1.032 -0.9770  0.0200  0.2565
 3290TIP3    H231286   2.271   3.575   1.156 -1.0160  2.1666  1.5348
 3291TIP3   OH231287   4.648   5.847  13.645  0.0810  0.2803  0.4423
 3291TIP3    H131288   4.628   5.937  13.619 -2.2269 -0.4981 -0.7802
 3291TIP3    H231289   4.683   5.807  13.565 -0.4272 -0.3140  0.5125
 3292TIP3   OH231290   0.674   2.818   5.846 -0.0271 -0.6351  1.0247
 3292TIP3    H131291   0.651   2.898   5.894 -0.4682  0.0362 -0.2571
 3292TIP3    H231292   0.746   2.843   5.789 -1.6617 -0.4466 -1.1152
 3293TIP3   OH231293   2.360   2.051  15.517  0.4066 -0.0727 -0.5053
 3293TIP3    H131294   2.398   2.134  15.489  0.3452 -0.4824 -1.8350
 3293TIP3    H231295   2.434   1.991  15.524  0.5188  0.1783  0.9117
 3294TIP3   OH231296   3.073   5.849  15.777  0.2031 -0.3890 -0.0400
 3294TIP3    H131297   3.063   5.835  15.871  1.1353 -1.5902 -0.0939
 3294TIP3    H231298   3.167   5.843  15.761  0.1859  1.1260 -0.8661
 3295TIP3   OH231299   4.805   6.526  15.303 -0.3221  0.3496 -0.3346
 3295TIP3    H131300   4.840   6.502  15.388  0.9590 -0.0104 -0.9350
 3295TIP3    H231301   4.797   6.622  15.306  0.2425  0.3876 -0.0050
 3296TIP3   OH231302   1.562   0.409   1.472 -0.3732 -0.1939  0.9229
 3296TIP3    H131303   1.597   0.324   1.499  1.0890 -0.2818 -1.0465
 3296TIP3    H231304   1.582   0.468   1.544 -1.7681 -1.5423  2.5003
 3297TIP3   OH231305   3.488   6.283   2.262  0.7348 -0.4338 -0.2588
 3297TIP3    H131306   3.515   6.314   2.175 -0.9984 -0.9382 -1.0070
 3297TIP3    H231307   3.445   6.199   2.245 -0.3726 -0.1427  0.9962
 3298TIP3   OH231308   4.304   0.934   5.964 -0.4086  0.0770  0.1439
 3298TIP3    H131309   4.385   0.887   5.944  0.6028  0.7709  2.3065
 3298TIP3    H231310   4.292   0.993   5.889  2.0372  1.1358  0.4941
 3299TIP3   OH231311   4.025   6.632   1.762 -0.1775  0.2542  0.0398
 3299TIP3    H131312   4.092   6.593   1.707 -1.3669  0.3023 -1.5091
 3299TIP3    H231313   4.021   6.724   1.734 -0.8667  0.2605  0.1434
 3300TIP3   OH231314   4.786   5.427   3.361  0.2666 -0.0771 -0.0508
 3300TIP3    H131315   4.773   5.335   3.381  0.3186  0.2265  1.4517
 3300TIP3    H231316   4.736   5.441   3.281  0.3023 -1.4092 -0.3310
 3301TIP3   OH231317   0.104   6.563   4.748 -0.0258 -0.0439  0.4901
 3301TIP3    H131318   0.071   6.504   4.816  1.1324 -0.8000  0.4245
 3301TIP3    H231319   0.035   6.562   4.681 -0.3712 -0.7122  0.8416
 3302TIP3   OH231320   6.501   3.723   2.269 -0.0183 -0.5003 -0.5849
 3302TIP3    H131321   6.438   3.658   2.240  1.5264 -1.4984 -1.9169
 3302TIP3    H231322   6.575   3.714   2.208  0.5999  1.9609 -0.3366
 3303TIP3   OH231323   3.192   0.891  13.359 -0.3845  0.7573  0.0156
 3303TIP3    H131324   3.123   0.956  13.352 -2.0799 -0.9421 -0.0438
 3303TIP3    H231325   3.190   0.845  13.275  1.0972  0.9111 -0.1280
 3304TIP3   OH231326   3.212   5.979  10.689 -0.5383  0.3559 -0.3038
 3304TIP3    H131327   3.243   6.069  10.693 -2.0596  0.8837  0.0513
 3304TIP3    H231328   3.274   5.935  10.631  2.0687  0.8259  1.9249
 3305TIP3   OH231329   2.519   1.681   0.636 -0.2505 -0.0713  0.5443
 3305TIP3    H131330   2.436   1.707   0.596  0.6012  0.5035 -0.9269
 3305TIP3    H231331   2.585   1.700   0.569  1.0298 -0.8999  1.5252
 3306TIP3   OH231332   3.703   6.188  14.411 -0.1425 -0.5443  0.2776
 3306TIP3    H131333   3.703   6.096  14.435 -0.3998 -0.6865 -0.2598
 3306TIP3    H231334   3.728   6.189  14.319 -1.4332 -0.1848 -0.0895
 3307TIP3   OH231335   5.898   3.619   5.557  0.5248 -0.2027  0.0599
 3307TIP3    H131336   5.814   3.661   5.574 -0.8996 -2.0606 -1.7709
 3307TIP3    H231337   5.887   3.529   5.588  1.4483 -0.7451 -1.0671
 3308TIP3   OH231338   1.670   6.572  15.050  0.6493  0.2312 -0.2523
 3308TIP3    H131339   1.618   6.588  15.129 -0.6512  0.2469 -1.0954
 3308TIP3    H231340   1.688   6.478  15.052 -1.1634 -0.1659 -0.9762
 3309TIP3   OH231341   5.409   0.547   5.279  0.3266  0.0116  0.7118
 3309TIP3    H131342   5.345   0.616   5.263 -0.7293 -1.4099 -1.8201
 3309TIP3    H231343   5.410   0.537   5.374 -2.7263  0.5794  0.9064
 3310TIP3   OH231344   1.322   5.968  15.727 -0.1988 -0.1847 -0.0373
 3310TIP3    H131345   1.409   6.005  15.738 -0.2461 -0.3359  0.8740
 3310TIP3    H231346   1.305   5.920  15.808 -2.1187  1.8451  0.8722
 3311TIP3   OH231347   3.585   0.548  10.881  0.1265 -0.0502 -0.4288
 3311TIP3    H131348   3.640   0.470  10.874  1.4813  0.8614 -0.3309
 3311TIP3    H231349   3.632   0.606  10.942 -0.7446  0.9165 -0.6425
 3312TIP3   OH231350   0.236   4.151  12.883  0.2352 -0.0477  0.1118
 3312TIP3    H131351   0.322   4.167  12.843 -0.2575  2.6812 -0.0423
 3312TIP3    H231352   0.173   4.182  12.818 -0.6570  2.3068  1.9193
 3313TIP3   OH231353   2.591   0.484   5.641  0.0217  0.0664 -0.2147
 3313TIP3    H131354   2.602   0.555   5.578 -0.7175 -1.3462 -2.0275
 3313TIP3    H231355   2.502   0.453   5.627 -0.0654 -0.5005  1.3619
 3314TIP3   OH231356   0.475   3.062  13.622 -0.5758  0.0592  0.5710
 3314TIP3    H131357   0.538   3.099  13.560 -2.0645 -0.3353 -1.3144
 3314TIP3    H231358   0.511   2.977  13.646 -0.5468 -0.3463 -0.8182
 3315TIP3   OH231359   4.063   3.694   1.123 -0.1435 -0.1225 -0.6166
 3315TIP3    H131360   4.013   3.735   1.193  0.0866  0.5336 -0.8295
 3315TIP3    H231361   4.058   3.600   1.141  0.8496  0.0991  0.9143
 3316TIP3   OH231362   3.625   4.163   1.883  0.1718 -0.2167  0.0267
 3316TIP3    H131363   3.691   4.206   1.829 -2.3915  1.0442 -2.3486
 3316TIP3    H231364   3.605   4.225   1.952  0.1120  0.2425 -0.4003
 3317TIP3   OH231365   5.135   4.349  14.780 -0.4961  0.2555  0.0355
 3317TIP3    H131366   5.067   4.415  14.794 -0.4141  0.1846  0.8042
 3317TIP3    H231367   5.097   4.268  14.814 -0.9236 -0.3065 -1.6493
 3318TIP3   OH231368   2.362   3.007  13.973  0.1309  0.2022  0.2956
 3318TIP3    H131369   2.318   2.978  13.893  1.0193  1.8190 -0.8377
 3318TIP3    H231370   2.292   3.019  14.037 -0.6062 -1.0006 -0.2487
 3319TIP3   OH231371   3.975   0.514   1.282 -0.0967 -0.0538 -0.8016
 3319TIP3    H131372   3.966   0.523   1.187 -0.0564  0.9159 -0.7256
 3319TIP3    H231373   4.065   0.542   1.300 -0.3982  0.7008 -0.3902
 3320TIP3   OH231374   6.708   4.583  12.403 -0.4798  0.1668 -0.4054
 3320TIP3    H131375   6.625   4.621  12.376 -0.1572 -0.0122 -1.7149
 3320TIP3    H231376   6.761   4.581  12.324 -0.0399 -1.8650 -0.1322
 3321TIP3   OH231377   3.260   3.344  14.158  0.1267 -0.5107  0.0222
 3321TIP3    H131378   3.233   3.289  14.084 -0.0036 -0.4686  0.0386
 3321TIP3    H231379   3.228   3.432  14.135  0.9138 -0.3002 -0.3218
 3322TIP3   OH231380   4.571   2.926  12.633 -0.1549 -0.3771  0.6014
 3322TIP3    H131381   4.506   2.927  12.703  1.1029  1.0380  1.8194
 3322TIP3    H231382   4.525   2.965  12.558 -1.0062 -0.3328  1.1287
 3323TIP3   OH231383   5.494   1.724  15.702  0.2153  0.4632 -0.3106
 3323TIP3    H131384   5.500   1.628  15.697 -0.6090  0.4490 -1.0867
 3323TIP3    H231385   5.551   1.755  15.632  1.2651  0.5789  0.5637
 3324TIP3   OH231386   5.498   3.840  16.967 -0.0043  0.7469  0.1828
 3324TIP3    H131387   5.426   3.868  16.910  0.3393  0.3947 -0.4311
 3324TIP3    H231388   5.460   3.770  17.020 -0.5194  1.5279  0.8819
 3325TIP3   OH231389   5.923   0.085  11.421  0.2290 -0.0400 -0.5840
 3325TIP3    H131390   5.870   0.153  11.462 -0.2138 -0.5181 -0.3511
 3325TIP3    H231391   5.946   0.119  11.335  0.1501  0.4691 -0.4039
 3326TIP3   OH231392   5.355   1.682   5.719  0.0214  0.2384  0.1793
 3326TIP3    H131393   5.332   1.717   5.633 -2.1845 -1.5465 -0.0619
 3326TIP3    H231394   5.285   1.712   5.777 -0.2051 -1.0930  0.6365
 3327TIP3   OH231395   0.838   4.928  16.366  0.2728  0.5693  0.1868
 3327TIP3    H131396   0.794   4.980  16.299 -0.9281 -2.0337 -1.2231
 3327TIP3    H231397   0.922   4.905  16.326  0.7010  1.1963  0.7077
 3328TIP3   OH231398   4.678   6.088  14.544 -0.5036 -0.5594 -0.1503
 3328TIP3    H131399   4.638   6.172  14.524 -0.2213  0.3518  2.6568
 3328TIP3    H231400   4.606   6.025  14.540 -1.7073  0.5859  2.0306
 3329TIP3   OH231401   0.619   1.341  12.173  0.1460 -0.3593 -0.6169
 3329TIP3    H131402   0.596   1.399  12.100 -2.4171 -0.9651 -0.3982
 3329TIP3    H231403   0.627   1.254  12.133 -1.8796 -0.8005 -0.1651
 3330TIP3   OH231404   3.025   0.415   5.319 -0.0665 -0.0753 -0.3428
 3330TIP3    H131405   2.976   0.392   5.240  0.1606  0.4102 -0.6196
 3330TIP3    H231406   2.960   0.406   5.390 -1.4636  3.4318 -0.9844
 3331TIP3   OH231407   1.920   3.083  10.805 -0.7105 -0.2795 -0.1637
 3331TIP3    H131408   1.829   3.108  10.787 -1.0287 -0.7300  0.7646
 3331TIP3    H231409   1.917   2.989  10.818  0.0855 -0.4724 -1.2073
 3332TIP3   OH231410   1.962   0.773  11.112  0.3001  0.0374 -0.1099
 3332TIP3    H131411   1.901   0.700  11.106 -1.5766  1.4969  0.3829
 3332TIP3    H231412   1.920   0.844  11.064  1.7748  1.0023 -0.0369
 3333TIP3   OH231413   5.958   1.156   1.534  0.1265 -0.3132  0.1774
 3333TIP3    H131414   5.881   1.210   1.517  0.4911  0.1470 -0.0098
 3333TIP3    H231415   6.029   1.218   1.549  0.2933 -0.7209  1.1853
 3334TIP3   OH231416   0.183   3.443   2.455  0.0338 -0.6128  0.0344
 3334TIP3    H131417   0.088   3.429   2.448 -0.0790 -1.0623  1.9741
 3334TIP3    H231418   0.209   3.395   2.533  1.5776  0.9401  0.5366
 3335TIP3   OH231419   4.472   5.411   3.392 -0.1150  0.2775  0.0954
 3335TIP3    H131420   4.515   5.356   3.327  0.7484 -0.8368  1.5560
 3335TIP3    H231421   4.444   5.488   3.343  1.9996  0.2569 -1.2720
 3336TIP3   OH231422   0.376   0.275  16.326  0.4153  0.2469  0.3743
 3336TIP3    H131423   0.364   0.181  16.314  1.6980  0.0016  0.8288
 3336TIP3    H231424   0.329   0.315  16.253  1.3013 -0.8300 -0.8264
 3337TIP3   OH231425   1.749   0.535   3.068 -0.2000  0.1595 -0.0142
 3337TIP3    H131426   1.705   0.465   3.019 -0.5515  0.6461 -0.3958
 3337TIP3    H231427   1.768   0.495   3.153  0.0623 -0.5688 -0.4013
 3338TIP3   OH231428   6.036   3.283   2.434 -0.2619 -0.0870 -0.4695
 3338TIP3    H131429   6.126   3.315   2.439  0.1887 -1.4086  0.5319
 3338TIP3    H231430   5.983   3.354   2.469  0.5501  0.1473  0.3132
 3339TIP3   OH231431   2.587   4.208   5.247  0.2039  0.3670 -0.0426
 3339TIP3    H131432   2.662   4.235   5.194  0.3091 -1.2796 -0.7849
 3339TIP3    H231433   2.602   4.115   5.265 -0.3451  0.6243  2.0537
 3340TIP3   OH231434   4.222   2.269   5.864 -0.3977 -0.0558  0.3276
 3340TIP3    H131435   4.158   2.285   5.934  0.0632 -0.1956  0.7903
 3340TIP3    H231436   4.174   2.219   5.798 -1.0615  0.7728  0.1689
 3341TIP3   OH231437   4.700   2.994   3.909  0.2046  0.1133 -0.1594
 3341TIP3    H131438   4.618   2.994   3.860  0.7157  0.9950 -1.0641
 3341TIP3    H231439   4.677   3.024   3.997 -0.2847  1.3649 -0.7026
 3342TIP3   OH231440   0.880   4.050  12.469 -0.1107  0.5310  0.2172
 3342TIP3    H131441   0.934   3.975  12.493  1.0868  1.3134  0.0647
 3342TIP3    H231442   0.888   4.056  12.374 -1.0218  0.2624  0.1137
 3343TIP3   OH231443   2.119   2.510  16.199  0.1455  0.4755  0.3885
 3343TIP3    H131444   2.153   2.495  16.287 -1.6173  2.8471  1.5783
 3343TIP3    H231445   2.071   2.429  16.178 -0.2426  0.2451  2.0463
 3344TIP3   OH231446   6.197   0.576  12.384  0.1229  0.2801  0.4516
 3344TIP3    H131447   6.103   0.590  12.380 -0.1134 -0.9784  1.0721
 3344TIP3    H231448   6.228   0.642  12.446 -0.4921  0.1081  0.9495
 3345TIP3   OH231449   1.264   3.082   4.808 -0.0825 -0.2255 -0.8463
 3345TIP3    H131450   1.220   3.068   4.892  1.6947  1.1579  0.4234
 3345TIP3    H231451   1.283   3.176   4.807  2.7649 -0.7128 -1.2629
 3346TIP3   OH231452   2.147   5.276  11.115  0.2534 -0.0527  0.6853
 3346TIP3    H131453   2.105   5.358  11.140  1.4623  0.6590  0.4837
 3346TIP3    H231454   2.081   5.229  11.064  0.0391  1.5016 -0.5477
 3347TIP3   OH231455   2.623   0.269  16.131  0.1906 -0.0540 -0.4085
 3347TIP3    H131456   2.535   0.232  16.136  0.2120  0.0170  1.2696
 3347TIP3    H231457   2.613   0.360  16.162  0.6762  0.3072 -1.2794
 3348TIP3   OH231458   0.402   1.477  11.028  0.0474  0.0551  0.2966
 3348TIP3    H131459   0.433   1.510  10.944 -0.3874  0.9728  0.4846
 3348TIP3    H231460   0.316   1.440  11.009 -0.6683  1.5182  0.5698
 3349TIP3   OH231461   2.905   2.838  13.917 -0.3519  0.4225  0.1417
 3349TIP3    H131462   2.971   2.832  13.848 -1.9125  0.7242 -1.4501
 3349TIP3    H231463   2.933   2.912  13.971  1.5594 -0.5845  0.6264
 3350TIP3   OH231464   6.486   5.966   2.225  0.0939  0.3440  0.5087
 3350TIP3    H131465   6.546   6.020   2.277 -0.5112  1.7989 -0.2379
 3350TIP3    H231466   6.450   6.027   2.161 -0.8763 -0.9056 -0.1582
 3351TIP3   OH231467   4.300   1.847   0.016  0.0190  0.0382  0.6892
 3351TIP3    H131468   4.321   1.867  -0.075 -0.3676 -1.0519  0.3393
 3351TIP3    H231469   4.206   1.831   0.016  0.1242 -0.6235  1.1409
 3352TIP3   OH231470   5.627   5.744  15.556  0.6411  0.7335  0.1163
 3352TIP3    H131471   5.580   5.691  15.492  1.6155 -0.0030 -0.0192
 3352TIP3    H231472   5.716   5.750  15.521  1.3095 -0.0423  1.5746
 3353TIP3   OH231473   4.918   6.713   6.110  0.2161  0.5874  0.3259
 3353TIP3    H131474   4.839   6.763   6.091  0.1015  0.3303  0.1256
 3353TIP3    H231475   4.925   6.715   6.206  0.4451  1.3426  0.3014
 3354TIP3   OH231476   1.545   5.049  12.381  0.6328 -0.5700 -0.6592
 3354TIP3    H131477   1.564   5.054  12.474  1.3982 -0.8876 -0.7956
 3354TIP3    H231478   1.516   4.958  12.367 -1.4887  0.0040 -0.3750
 3355TIP3   OH231479   6.748   1.906  13.638  0.4617  0.1701  0.4783
 3355TIP3    H131480   6.803   1.984  13.640 -2.4188  2.3865 -0.1410
 3355TIP3    H231481   6.697   1.915  13.557  0.6475 -2.8965 -0.1106
 3356TIP3   OH231482   5.587   1.348   5.620  0.1731 -0.4131 -0.3264
 3356TIP3    H131483   5.499   1.384   5.634  0.2553 -0.5966  0.7493
 3356TIP3    H231484   5.580   1.256   5.645  1.0389 -0.0576  1.3306
 3357TIP3   OH231485   6.209   6.388  16.318  0.3807 -0.6043  0.4744
 3357TIP3    H131486   6.198   6.309  16.371  0.0680 -0.0496  1.2641
 3357TIP3    H231487   6.121   6.422  16.307  0.6642  0.6912  1.8452
 3358TIP3   OH231488   1.010   6.502   4.392 -0.2787  0.3796 -0.0881
 3358TIP3    H131489   0.973   6.427   4.345  0.0844 -0.3207  0.7197
 3358TIP3    H231490   0.934   6.558   4.410 -1.0298 -1.0798  1.6176
 3359TIP3   OH231491   2.823   1.999  15.075  0.5996 -0.0475 -0.2840
 3359TIP3    H131492   2.776   1.930  15.028  0.4326 -0.1042 -0.0340
 3359TIP3    H231493   2.801   1.984  15.167  0.0677  0.7091 -0.2777
 3360TIP3   OH231494   6.711   6.090  13.179 -0.7963 -0.0757 -0.6653
 3360TIP3    H131495   6.691   6.175  13.218  0.5427  0.1937 -0.4911
 3360TIP3    H231496   6.768   6.110  13.105  0.4184 -0.8628  0.0204
 3361TIP3   OH231497   3.544   3.362   1.309 -0.4335 -0.7431 -0.0928
 3361TIP3    H131498   3.521   3.441   1.358  1.5741 -1.7338  2.6756
 3361TIP3    H231499   3.496   3.292   1.352 -0.2838 -1.3756 -0.9322
 3362TIP3   OH231500   3.744   1.533   0.701  0.2579  0.2027 -0.3628
 3362TIP3    H131501   3.808   1.603   0.716  1.7082 -1.0468 -0.4453
 3362TIP3    H231502   3.724   1.500   0.788  1.1349 -0.5909 -0.4492
 3363TIP3   OH231503   5.520   2.738  15.702 -0.5676  0.4931  0.2120
 3363TIP3    H131504   5.492   2.648  15.721  0.9638 -0.0652  0.0115
 3363TIP3    H231505   5.610   2.729  15.672 -0.5737  2.0617 -0.3738
 3364TIP3   OH231506   0.154   4.319  12.219  0.2986  0.0559  0.2054
 3364TIP3    H131507   0.236   4.301  12.264  0.2444  1.6779  1.0391
 3364TIP3    H231508   0.118   4.395  12.265 -0.4924  0.8606 -1.6440
 3365TIP3   OH231509   5.014   1.082   5.781 -0.3157  0.7176 -0.1820
 3365TIP3    H131510   5.036   1.068   5.873  0.7170  2.1115 -0.1824
 3365TIP3    H231511   4.955   1.010   5.759  1.3936 -1.1246  0.8668
 3366TIP3   OH231512   0.488   2.904  15.467  0.4385 -0.2841 -0.2958
 3366TIP3    H131513   0.410   2.946  15.429 -1.2639 -1.6688  1.4646
 3366TIP3    H231514   0.493   2.819  15.422 -0.3387 -1.0474  0.9952
 3367TIP3   OH231515   0.202   5.457   0.887 -0.9558 -0.0075  0.0710
 3367TIP3    H131516   0.245   5.376   0.861  2.1981  1.0770  1.3568
 3367TIP3    H231517   0.123   5.430   0.934 -0.0716 -2.3179  0.3191
 3368TIP3   OH231518   1.744   6.189   3.074 -0.1948 -0.2940  0.5635
 3368TIP3    H131519   1.704   6.185   3.161 -0.0914 -0.8947  0.5916
 3368TIP3    H231520   1.838   6.200   3.092 -0.0181 -1.6353  0.5698
 3369TIP3   OH231521   4.030   2.264  12.940  0.4224  0.7077 -0.5060
 3369TIP3    H131522   4.099   2.227  12.995  1.0583 -1.1251 -2.3783
 3369TIP3    H231523   3.949   2.241  12.984  0.8454 -2.0284 -0.9529
 3370TIP3   OH231524   0.343   0.659  13.159  0.1967  0.1106 -0.1133
 3370TIP3    H131525   0.416   0.706  13.198  0.6175  0.7494 -1.6109
 3370TIP3    H231526   0.267   0.715  13.175 -0.0186 -0.5498  1.4360
 3371TIP3   OH231527   5.050   2.132  12.232  0.9486 -0.1124  0.1889
 3371TIP3    H131528   4.986   2.061  12.229  1.0438 -0.1621 -1.2566
 3371TIP3    H231529   5.053   2.165  12.142 -0.6016  3.0936  1.1636
 3372TIP3   OH231530   1.671   4.361   3.985 -0.5900  0.1418  0.9686
 3372TIP3    H131531   1.599   4.301   3.964 -1.2461  0.4601  2.2303
 3372TIP3    H231532   1.658   4.384   4.077  0.8125  0.6505  1.0712
 3373TIP3   OH231533   1.179   5.804  10.459  0.4928  0.8354 -0.7999
 3373TIP3    H131534   1.198   5.711  10.462 -1.4226  0.2248 -3.5683
 3373TIP3    H231535   1.089   5.811  10.492  1.6851  2.2443  2.5231
 3374TIP3   OH231536   1.395   6.310   2.850 -0.2973 -0.6386 -0.2390
 3374TIP3    H131537   1.336   6.250   2.896 -1.4191 -0.1446 -1.0004
 3374TIP3    H231538   1.367   6.307   2.759 -1.0846  1.8012 -0.1512
 3375TIP3   OH231539   3.035   6.686   0.164 -0.3306 -0.1571 -0.7533
 3375TIP3    H131540   3.035   6.591   0.171 -0.3421 -0.1231 -0.2679
 3375TIP3    H231541   2.949   6.708   0.129 -0.5783 -0.2810 -0.2301
 3376TIP3   OH231542   4.687   3.541  14.526  0.1018  0.2447 -0.0358
 3376TIP3    H131543   4.697   3.460  14.577  1.6381  0.2450 -0.2929
 3376TIP3    H231544   4.608   3.527  14.473 -1.2733  0.0428  1.9399
 3377TIP3   OH231545   0.744   6.009   0.241  0.4559  0.7856  0.4052
 3377TIP3    H131546   0.649   6.002   0.234  0.4339  1.2244  0.2380
 3377TIP3    H231547   0.766   6.090   0.194  1.0969 -0.2317 -1.1374
 3378TIP3   OH231548   0.674   0.745  14.120  0.5912  0.1480 -0.2484
 3378TIP3    H131549   0.625   0.803  14.062  1.1652  1.1906  0.2670
 3378TIP3    H231550   0.700   0.802  14.193 -0.2040 -1.1459  1.0924
 3379TIP3   OH231551   0.038   0.720  12.779 -0.1864  0.0535  0.3702
 3379TIP3    H131552   0.052   0.752  12.868  1.5801  0.9852 -0.1831
 3379TIP3    H231553  -0.045   0.758  12.752 -0.1084  0.8166  1.1781
 3380TIP3   OH231554   5.890   6.446  15.310  0.1021  0.1552 -0.9527
 3380TIP3    H131555   5.966   6.441  15.252  2.1179 -2.6392  1.5963
 3380TIP3    H231556   5.915   6.510  15.376 -0.5928  0.6248 -1.1421
 3381TIP3   OH231557   0.548   3.816  15.157  0.5253  0.1824 -0.2539
 3381TIP3    H131558   0.509   3.785  15.239  1.5203  0.4027  0.3314
 3381TIP3    H231559   0.631   3.768  15.151  0.7108  0.5671 -0.8456
 3382TIP3   OH231560   5.080   1.961  15.710  0.7644 -0.2636 -0.0925
 3382TIP3    H131561   5.051   2.051  15.720 -1.6992 -1.1730  2.0439
 3382TIP3    H231562   5.099   1.952  15.616 -1.0913  1.8489 -0.7539
 3383TIP3   OH231563   0.958   1.044  10.976 -0.0030  0.1680 -0.6386
 3383TIP3    H131564   0.916   0.966  11.011  2.9213 -1.2282  0.0192
 3383TIP3    H231565   0.927   1.048  10.885 -2.4767  0.0147  0.1208
 3384TIP3   OH231566   5.381   5.400  14.508  0.0568 -0.2305 -0.0812
 3384TIP3    H131567   5.473   5.420  14.521  0.0367 -0.1142 -0.1184
 3384TIP3    H231568   5.381   5.315  14.463  0.0849 -2.5304  3.7498
 3385TIP3   OH231569   6.657   0.037  12.293  0.1130  0.1407  0.0773
 3385TIP3    H131570   6.669   0.118  12.342  0.7424  1.2098 -1.7273
 3385TIP3    H231571   6.572   0.047  12.251  0.0463 -0.2944  0.1013
 3386TIP3   OH231572   3.655   4.774   5.652 -0.3479  0.4809 -0.3988
 3386TIP3    H131573   3.685   4.709   5.715 -2.0823 -2.6170 -2.4984
 3386TIP3    H231574   3.734   4.820   5.624  1.4050 -2.4315 -0.5759
 3387TIP3   OH231575   5.259   6.383   3.481 -0.1529 -0.7390  0.2337
 3387TIP3    H131576   5.208   6.407   3.559 -0.8095 -1.9905  0.1955
 3387TIP3    H231577   5.350   6.387   3.511 -0.1334  2.1794  0.1237
 3388TIP3   OH231578   3.290   4.271   4.926 -0.8352  0.1478  0.4753
 3388TIP3    H131579   3.344   4.324   4.867  0.8376 -1.0903  0.8351
 3388TIP3    H231580   3.252   4.335   4.987  1.0691  0.9886  0.8529
 3389TIP3   OH231581   2.557   4.429  15.654 -0.1256  0.1896  0.0560
 3389TIP3    H131582   2.560   4.494  15.584  1.2277 -1.7768 -1.8494
 3389TIP3    H231583   2.493   4.364  15.624  0.0846 -0.4271  0.8937
 3390TIP3   OH231584   6.191   1.723  13.927 -0.1217  0.0997 -0.1352
 3390TIP3    H131585   6.279   1.759  13.937  0.0511 -0.7842  1.9398
 3390TIP3    H231586   6.205   1.636  13.889 -0.1557  0.2398 -0.4693
 3391TIP3   OH231587   3.290   4.481   0.868 -0.1702  0.0402 -0.2159
 3391TIP3    H131588   3.223   4.413   0.880 -0.0169  0.0232  0.5953
 3391TIP3    H231589   3.349   4.470   0.943  0.1052  0.7843 -0.3175
 3392TIP3   OH231590   4.216   5.591  14.602  0.2792 -0.4033 -0.0094
 3392TIP3    H131591   4.251   5.622  14.686  0.3625 -1.2870  0.2939
 3392TIP3    H231592   4.287   5.606  14.540  0.7382 -1.0176  0.3553
 3393TIP3   OH231593   4.096   0.635  12.281  0.0838 -0.0135  0.4037
 3393TIP3    H131594   4.150   0.574  12.232  0.9915  1.4841 -0.5194
 3393TIP3    H231595   4.006   0.602  12.270  0.6612 -1.9514  1.1321
 3394TIP3   OH231596   1.522   1.165   4.779  0.0399 -0.1351  0.1580
 3394TIP3    H131597   1.583   1.211   4.836  0.2474  0.9250 -0.8586
 3394TIP3    H231598   1.487   1.234   4.722 -2.0694 -0.7085  0.6669
 3395TIP3   OH231599   6.481   4.302  16.028 -0.3527  0.3997  0.1704
 3395TIP3    H131600   6.512   4.367  15.965  0.2914 -0.7491 -0.7395
 3395TIP3    H231601   6.515   4.332  16.112 -2.3967  2.7191  0.2775
 3396TIP3   OH231602   0.539   5.006   3.984 -0.7841  0.0806 -0.2207
 3396TIP3    H131603   0.590   4.957   3.920 -1.2777 -0.1261 -0.4605
 3396TIP3    H231604   0.513   5.086   3.937 -1.3142 -0.1620 -0.3526
 3397TIP3   OH231605   1.536   1.498   3.833  0.0398  0.0444  0.2390
 3397TIP3    H131606   1.621   1.531   3.803  0.1200  0.9637  1.4160
 3397TIP3    H231607   1.540   1.404   3.817  1.0372  0.1636 -0.2924
 3398TIP3   OH231608   0.888   3.087   5.188  0.4238  0.5550 -0.4457
 3398TIP3    H131609   0.868   3.007   5.237  2.0497 -0.7144 -1.7135
 3398TIP3    H231610   0.879   3.158   5.252 -2.3945 -0.4342  0.3989
 3399TIP3   OH231611   2.504   4.814  16.055  0.2673  0.1892 -0.0538
 3399TIP3    H131612   2.490   4.803  16.149 -0.6491 -1.3740 -0.3258
 3399TIP3    H231613   2.599   4.824  16.045  0.5172 -0.9985  0.9380
 3400TIP3   OH231614   3.360   0.811   2.683  0.1997 -0.0330 -0.3536
 3400TIP3    H131615   3.322   0.857   2.758 -0.6004  0.6778 -1.1773
 3400TIP3    H231616   3.298   0.742   2.663  1.3735 -1.5156  0.8487
 3401TIP3   OH231617   3.466   3.308   5.497 -0.1962 -0.0988 -0.2318
 3401TIP3    H131618   3.447   3.249   5.424 -0.8910  1.2307 -1.1689
 3401TIP3    H231619   3.389   3.302   5.554  1.2464 -2.8397  1.6871
 3402TIP3   OH231620   6.071   1.128   0.901  0.4537  0.4771 -0.2453
 3402TIP3    H131621   6.158   1.145   0.867  0.4942 -0.5815 -0.7105
 3402TIP3    H231622   6.080   1.136   0.996  1.3731 -0.8693 -0.1878
 3403TIP3   OH231623   5.903   2.884   0.398 -0.2466  0.2608  0.5124
 3403TIP3    H131624   5.820   2.863   0.440  0.4518 -3.0741  0.5328
 3403TIP3    H231625   5.959   2.916   0.469 -0.8301  0.2907  0.9612
 3404TIP3   OH231626   3.369   4.144   1.528 -0.3460 -0.2551 -0.2106
 3404TIP3    H131627   3.325   4.074   1.481 -0.8209  0.5461 -1.0108
 3404TIP3    H231628   3.448   4.104   1.563 -0.5036 -1.1358 -0.8288
 3405TIP3   OH231629   5.186   2.595  10.577 -0.0325  0.5328  0.9118
 3405TIP3    H131630   5.153   2.672  10.531  0.8284  0.4828  0.1848
 3405TIP3    H231631   5.135   2.522  10.542 -0.2992  0.6718  1.0128
 3406TIP3   OH231632   1.570   3.776  17.002 -0.8824 -0.1483  0.4336
 3406TIP3    H131633   1.661   3.749  16.991 -0.6817  0.8134 -0.4035
 3406TIP3    H231634   1.560   3.788  17.096 -0.3980 -1.0978  0.6182
 3407TIP3   OH231635   1.383   2.051  15.667  0.5067 -0.4385  0.1985
 3407TIP3    H131636   1.429   2.128  15.633  0.6197 -0.5829  0.0186
 3407TIP3    H231637   1.290   2.070  15.651  0.5022 -0.1511  0.5542
 3408TIP3   OH231638   0.663   0.882   3.883  0.1562 -0.0811  0.0759
 3408TIP3    H131639   0.617   0.885   3.799  0.6763  1.3864 -0.1913
 3408TIP3    H231640   0.617   0.945   3.938 -0.3956 -1.2762  1.0447
 3409TIP3   OH231641   4.190   0.164   0.746 -0.4014  0.4924  0.0835
 3409TIP3    H131642   4.097   0.145   0.759 -0.4655  0.2917 -0.6152
 3409TIP3    H231643   4.225   0.176   0.834 -1.1215  0.7217  0.3431
 3410TIP3   OH231644   0.200   0.831   5.912  0.2235  0.5558 -0.1310
 3410TIP3    H131645   0.232   0.815   6.001 -1.4834 -2.8786  0.0210
 3410TIP3    H231646   0.107   0.850   5.923  0.2559  1.3848 -1.1469
 3411TIP3   OH231647   5.861   5.025   5.460  0.0882 -0.3130  0.0948
 3411TIP3    H131648   5.901   4.949   5.419 -1.1967 -1.3827  0.7542
 3411TIP3    H231649   5.931   5.091   5.463  1.6482 -1.9248  0.8112
 3412TIP3   OH231650   6.576   0.308  14.064 -0.8113  0.4675  0.0938
 3412TIP3    H131651   6.494   0.349  14.038 -0.8764  0.4383  0.2555
 3412TIP3    H231652   6.596   0.247  13.993 -1.7974 -0.7656  0.8434
 3413TIP3   OH231653   0.749   0.469  11.980 -0.2925  0.6476  0.2182
 3413TIP3    H131654   0.706   0.517  11.909 -0.7521  0.9980  0.7345
 3413TIP3    H231655   0.796   0.536  12.029  3.7261 -0.0147 -2.2394
 3414TIP3   OH231656   6.747   5.370   5.638 -0.1393 -0.6835  0.0475
 3414TIP3    H131657   6.733   5.277   5.653  2.3038 -0.9339  1.2985
 3414TIP3    H231658   6.827   5.374   5.585 -0.0218  0.6776  0.2816
 3415TIP3   OH231659   0.716   1.285   5.811  0.0583 -0.1281  0.2768
 3415TIP3    H131660   0.741   1.202   5.770 -1.2523 -0.4205  0.0103
 3415TIP3    H231661   0.625   1.298   5.784 -0.0548  0.9221  1.1053
 3416TIP3   OH231662   4.826   3.915   3.148 -0.5195  0.9580  0.2920
 3416TIP3    H131663   4.917   3.908   3.122 -1.0981 -0.3306 -1.5877
 3416TIP3    H231664   4.822   3.996   3.199  1.4281  1.6792 -0.6034
 3417TIP3   OH231665   3.070   2.310  11.614 -0.3139  0.6229  0.0243
 3417TIP3    H131666   3.073   2.405  11.631  0.3276  0.6184 -0.0568
 3417TIP3    H231667   3.075   2.303  11.519  0.1799  0.4909  0.0553
 3418TIP3   OH231668   3.871   2.801  15.643  0.4223 -0.4176  0.2048
 3418TIP3    H131669   3.870   2.712  15.678  0.7605 -0.0336  1.2210
 3418TIP3    H231670   3.793   2.806  15.588  0.5903 -1.4516 -0.1398
 3419TIP3   OH231671   3.410   0.591   0.388 -0.4146  0.2976  0.3147
 3419TIP3    H131672   3.480   0.654   0.407 -0.0169 -0.6026  2.0427
 3419TIP3    H231673   3.332   0.628   0.429 -0.2903 -0.0868  0.9064
 3420TIP3   OH231674   0.220   0.901   2.855  0.2881 -0.6065 -0.4023
 3420TIP3    H131675   0.125   0.911   2.866  0.2984 -0.6631 -0.2593
 3420TIP3    H231676   0.236   0.926   2.764 -0.0545 -1.8926 -0.8372
 3421TIP3   OH231677   0.142   2.471  12.531 -0.0079 -0.1715 -0.1996
 3421TIP3    H131678   0.147   2.548  12.474  0.5574 -0.3325 -0.3702
 3421TIP3    H231679   0.192   2.496  12.609  1.3165 -0.8446 -0.8120
 3422TIP3   OH231680   3.569   5.187   1.165 -0.0517 -0.1858  0.3941
 3422TIP3    H131681   3.501   5.173   1.231 -0.3958  1.3301  0.3896
 3422TIP3    H231682   3.627   5.252   1.204 -0.5693  1.1660 -0.9814
 3423TIP3   OH231683   3.642   2.070  15.180  0.6823  0.3595 -0.0565
 3423TIP3    H131684   3.692   2.146  15.210  0.1420  0.5335  0.4192
 3423TIP3    H231685   3.697   2.030  15.113  0.6587  1.5837 -0.8519
 3424TIP3   OH231686   4.185   0.195  15.861 -0.4889  0.0410  0.3586
 3424TIP3    H131687   4.193   0.109  15.820  1.3739  0.9435 -1.2983
 3424TIP3    H231688   4.154   0.252  15.791 -1.2037  0.8683  1.3099
 3425TIP3   OH231689   5.067   5.049  13.302  0.0232  0.0389  0.0802
 3425TIP3    H131690   5.021   4.978  13.259 -0.4615  1.5405 -2.0349
 3425TIP3    H231691   5.004   5.083  13.366 -0.5246 -0.0742 -0.3975
 3426TIP3   OH231692   0.426   6.700  13.882 -0.5443 -0.2379 -0.2317
 3426TIP3    H131693   0.455   6.688  13.791 -0.4748 -1.0472 -0.1138
 3426TIP3    H231694   0.332   6.682  13.880 -0.3531 -1.3121  0.0344
 3427TIP3   OH231695   4.698   6.702   4.275  0.4087  0.2090 -0.0135
 3427TIP3    H131696   4.750   6.769   4.230 -1.4887  0.8750 -1.3143
 3427TIP3    H231697   4.609   6.714   4.242 -0.8859 -0.1045  2.9839
 3428TIP3   OH231698   5.211   1.544   5.120 -1.0002 -0.1452 -0.0464
 3428TIP3    H131699   5.197   1.587   5.205 -0.6772  0.1971 -0.1639
 3428TIP3    H231700   5.269   1.604   5.072  0.1072 -1.0825  0.0855
 3429TIP3   OH231701   0.788   5.689  11.497  0.1152  0.5788  0.3031
 3429TIP3    H131702   0.698   5.686  11.528  0.0171  1.1388  0.0971
 3429TIP3    H231703   0.783   5.736  11.414  0.2544 -1.6133 -1.0158
 3430TIP3   OH231704   0.732   4.415   5.187 -0.0941  0.2739 -0.1319
 3430TIP3    H131705   0.663   4.470   5.150 -0.1752 -1.0214 -2.0501
 3430TIP3    H231706   0.797   4.408   5.117  1.8667  1.1502  1.4792
 3431TIP3   OH231707   3.775   2.883  16.799  0.4066  0.5272  0.2053
 3431TIP3    H131708   3.792   2.861  16.707 -1.0236  2.9729 -0.7598
 3431TIP3    H231709   3.684   2.914  16.799 -0.2820 -1.1967  2.8643
 3432TIP3   OH231710   2.397   1.954   2.307  0.0228  0.4076  0.3206
 3432TIP3    H131711   2.359   1.868   2.322  0.1314  0.5124  1.2798
 3432TIP3    H231712   2.488   1.945   2.335 -0.0903  0.9528  0.8998
 3433TIP3   OH231713   5.816   1.423   5.463  0.1518 -0.2254 -0.2481
 3433TIP3    H131714   5.838   1.341   5.419  0.5167  0.7029 -1.8890
 3433TIP3    H231715   5.739   1.403   5.516  0.3931 -1.6774 -0.4073
 3434TIP3   OH231716   5.162   5.156   6.526  0.3157 -0.7176 -0.3334
 3434TIP3    H131717   5.079   5.114   6.549  0.8701 -0.7007  1.9299
 3434TIP3    H231718   5.139   5.218   6.457 -1.4043 -1.2795 -0.3155
 3435TIP3   OH231719   6.318   0.431  15.293 -0.0395  0.3145 -0.3379
 3435TIP3    H131720   6.229   0.427  15.256 -0.2225  1.9327 -0.1432
 3435TIP3    H231721   6.320   0.360  15.357 -0.6477 -0.7567 -1.4608
 3436TIP3   OH231722   4.984   3.646   5.359 -0.1392  0.4109 -0.4964
 3436TIP3    H131723   4.969   3.726   5.409 -0.9853 -0.8039  1.3239
 3436TIP3    H231724   4.940   3.578   5.410  2.7594 -1.6840 -0.5124
 3437TIP3   OH231725   3.630   5.187  16.428 -0.4840 -0.3792 -0.5060
 3437TIP3    H131726   3.674   5.178  16.344  0.7730 -1.0621  0.1940
 3437TIP3    H231727   3.685   5.247  16.478 -0.2838 -1.2836  0.4066
 3438TIP3   OH231728   1.227   2.748  11.507 -0.4152 -0.3274 -0.0048
 3438TIP3    H131729   1.279   2.711  11.436  1.8429  2.8132 -0.2264
 3438TIP3    H231730   1.289   2.756  11.580 -2.3205 -2.2164  1.9852
 3439TIP3   OH231731   4.813   2.862   1.332  0.0073  0.6344  0.0316
 3439TIP3    H131732   4.848   2.775   1.314 -1.6397  0.0325 -0.5010
 3439TIP3    H231733   4.784   2.859   1.423 -0.6291  0.3989 -0.1734
 3440TIP3   OH231734   5.295   4.277  12.628 -0.2713 -0.5522  0.1448
 3440TIP3    H131735   5.333   4.351  12.581 -1.9959  0.0836 -0.3182
 3440TIP3    H231736   5.371   4.224  12.654  0.9411  0.9044 -0.2720
 3441TIP3   OH231737   4.912   5.629   0.536  0.8763  0.2997  0.3777
 3441TIP3    H131738   4.904   5.703   0.475  1.2844  0.6372  0.7203
 3441TIP3    H231739   4.940   5.670   0.618  0.0860 -0.1191  0.8598
 3442TIP3   OH231740   3.904   6.554  17.122 -0.4268  0.0675 -0.0515
 3442TIP3    H131741   3.951   6.481  17.163  1.6182  1.3255 -0.0128
 3442TIP3    H231742   3.923   6.545  17.029 -0.7433  0.1351 -0.1211
 3443TIP3   OH231743   4.280   4.153   1.893 -0.7835  0.3281  0.0933
 3443TIP3    H131744   4.234   4.084   1.941 -1.1514 -0.7088 -1.6981
 3443TIP3    H231745   4.356   4.174   1.948 -0.8590 -1.2464  0.8311
 3444TIP3   OH231746   6.578   3.651  13.722 -0.1085  0.8445  0.1062
 3444TIP3    H131747   6.594   3.682  13.811  0.0224  1.9543 -0.2979
 3444TIP3    H231748   6.529   3.721  13.679  0.8553  0.8340 -1.0578
 3445TIP3   OH231749   1.443   3.232  15.070  0.3470  0.1345  0.2114
 3445TIP3    H131750   1.450   3.275  15.155 -1.7236  0.5486  0.2102
 3445TIP3    H231751   1.365   3.177  15.076 -0.2435  0.6789 -1.6276
 3446TIP3   OH231752   3.413   4.043   2.444  0.1518  0.2300  0.1737
 3446TIP3    H131753   3.423   4.026   2.350  0.6758 -1.8483  0.5591
 3446TIP3    H231754   3.318   4.045   2.458  0.0328  1.8155 -0.5491
 3447TIP3   OH231755   5.300   2.518   3.550  0.4076 -0.1532  0.2666
 3447TIP3    H131756   5.382   2.565   3.566  0.4963 -0.0257 -0.5237
 3447TIP3    H231757   5.238   2.585   3.522 -0.0046 -0.2355  0.9510
 3448TIP3   OH231758   2.634   3.765   1.583  0.4934 -0.0389 -0.9309
 3448TIP3    H131759   2.630   3.793   1.675 -1.0700 -1.0533 -0.6609
 3448TIP3    H231760   2.605   3.842   1.534 -1.4940 -0.3776 -0.3554
 3449TIP3   OH231761   1.104   5.014   1.430 -0.7812 -1.3014  0.1224
 3449TIP3    H131762   1.189   5.044   1.399 -1.1761 -1.5433 -1.2399
 3449TIP3    H231763   1.124   4.957   1.505  0.1476 -0.1455  0.7712
 3450TIP3   OH231764   5.924   6.621   5.116 -0.0750 -0.4595 -0.0312
 3450TIP3    H131765   5.926   6.529   5.088  0.1687  0.0218 -1.7100
 3450TIP3    H231766   5.977   6.623   5.195  1.2834 -1.5098 -0.8586
 3451TIP3   OH231767   4.252   3.685   3.369  0.8962 -0.3566 -0.0946
 3451TIP3    H131768   4.215   3.616   3.425  1.8181 -1.7997 -1.2064
 3451TIP3    H231769   4.188   3.756   3.374  0.5573 -0.7431  2.1318
 3452TIP3   OH231770   2.751   4.251  13.347 -0.3985 -0.0194  0.1461
 3452TIP3    H131771   2.707   4.278  13.428  0.3826  0.1508  0.5226
 3452TIP3    H231772   2.784   4.163  13.366  0.9097  0.5126  0.4932
 3453TIP3   OH231773   4.222   3.812   2.844 -0.2606  0.7546  0.2979
 3453TIP3    H131774   4.201   3.734   2.792 -2.1665  0.7605  0.9614
 3453TIP3    H231775   4.170   3.802   2.924 -0.7164  2.7813  0.3082
 3454TIP3   OH231776   3.529   0.576  11.664 -0.1989  0.0243 -0.7363
 3454TIP3    H131777   3.597   0.642  11.653 -0.5162  0.1644 -2.1434
 3454TIP3    H231778   3.561   0.519  11.734  0.2325  1.4574  0.2744
 3455TIP3   OH231779   2.132   5.212  16.991 -0.6937 -0.6059 -0.1173
 3455TIP3    H131780   2.099   5.268  16.921 -0.9349 -0.2787  0.2588
 3455TIP3    H231781   2.212   5.256  17.021 -0.9606 -0.3829  0.2747
 3456TIP3   OH231782   5.348   0.705  12.562 -0.1134  0.6488  1.0489
 3456TIP3    H131783   5.405   0.781  12.575 -1.4895  1.7104  1.1959
 3456TIP3    H231784   5.378   0.641  12.627  0.3629  1.5040  1.6903
 3457TIP3   OH231785   4.947   2.211   2.743  0.2527 -0.2829  0.5867
 3457TIP3    H131786   4.962   2.124   2.778 -0.3377 -0.7616 -0.3048
 3457TIP3    H231787   4.852   2.215   2.729  0.1995  0.7006  1.1100
 3458TIP3   OH231788   4.207   3.574   0.766  0.3930 -0.3985  0.4846
 3458TIP3    H131789   4.254   3.538   0.841 -0.1812 -0.6586  0.7249
 3458TIP3    H231790   4.120   3.595   0.800  0.3219  0.0480  0.0373
 3459TIP3   OH231791   1.943   1.781   5.974 -0.2967 -0.0280 -0.3085
 3459TIP3    H131792   1.885   1.727   5.919  1.4398 -1.1165 -1.1819
 3459TIP3    H231793   1.997   1.718   6.021  0.4821  0.9373  0.1318
 3460TIP3   OH231794   1.224   2.936   5.530  0.6765  0.0854  0.1231
 3460TIP3    H131795   1.262   2.863   5.580 -0.7084 -0.2720  0.6865
 3460TIP3    H231796   1.201   2.898   5.446  1.0431  0.1753 -0.0219
 3461TIP3   OH231797   5.126   5.609  15.722 -0.0301  0.4301  0.1467
 3461TIP3    H131798   5.159   5.699  15.715  0.0770  0.4773  1.1825
 3461TIP3    H231799   5.184   5.566  15.784 -1.7526  0.4596  1.8794
 3462TIP3   OH231800   5.175   3.060  16.749  0.5620 -0.4203 -0.7366
 3462TIP3    H131801   5.169   3.022  16.661  0.1823  3.2059 -2.4632
 3462TIP3    H231802   5.267   3.081  16.760  0.8672 -2.1876  0.4461
 3463TIP3   OH231803   5.022   0.469  15.264  0.2336  0.0281 -0.3609
 3463TIP3    H131804   5.082   0.530  15.220  0.0424  1.1486  0.8921
 3463TIP3    H231805   4.938   0.484  15.221 -0.2711  2.1090  1.2071
 3464TIP3   OH231806   2.641   3.970  11.311  0.0510  0.2321  0.1735
 3464TIP3    H131807   2.716   3.929  11.354  1.4110  1.5315 -0.8719
 3464TIP3    H231808   2.626   3.916  11.233  0.5052  0.5066 -0.1068
 3465TIP3   OH231809   3.791   3.051   3.092 -0.7156 -0.4805  0.2216
 3465TIP3    H131810   3.757   3.001   3.018 -1.3852 -0.4391  0.4966
 3465TIP3    H231811   3.842   2.988   3.143 -0.3833 -0.5445 -0.1887
 3466TIP3   OH231812   1.234   4.992   3.576 -0.5056  0.5107 -0.1853
 3466TIP3    H131813   1.287   4.913   3.582 -0.0666  0.8695  0.9780
 3466TIP3    H231814   1.183   4.993   3.657  0.4631  2.0692  0.4432
 3467TIP3   OH231815   3.861   0.099   3.855  0.2335 -0.0452  0.5525
 3467TIP3    H131816   3.910   0.179   3.834  0.7084 -0.3776  0.3625
 3467TIP3    H231817   3.792   0.128   3.914 -0.3026  0.6978 -0.3961
 3468TIP3   OH231818   4.549   0.805   5.639  0.3248  0.3006 -0.2060
 3468TIP3    H131819   4.583   0.737   5.581 -1.5877 -2.0665  1.2489
 3468TIP3    H231820   4.534   0.760   5.722 -0.3112  2.7235  1.0883
 3469TIP3   OH231821   4.587   4.737   5.581 -0.6655 -0.4505 -0.4276
 3469TIP3    H131822   4.647   4.677   5.624 -2.1752 -0.9743  1.0663
 3469TIP3    H231823   4.597   4.719   5.488  0.3245 -1.6191 -0.1159
 3470TIP3   OH231824   6.028   0.236   2.535  0.4080 -0.0277 -0.0364
 3470TIP3    H131825   5.947   0.191   2.556 -0.3035  1.0979 -0.2772
 3470TIP3    H231826   6.093   0.167   2.526 -0.7270 -1.0345 -0.7946
 3471TIP3   OH231827   6.457   2.821   0.129 -0.2505 -0.0053  0.4345
 3471TIP3    H131828   6.389   2.782   0.182 -1.3252  1.0852 -0.0787
 3471TIP3    H231829   6.434   2.797   0.039 -0.7327  1.4433  0.1446
 3472TIP3   OH231830   3.556   1.934   6.702  0.5954 -0.2298  0.5404
 3472TIP3    H131831   3.607   1.985   6.765  1.3406  1.1174 -1.0527
 3472TIP3    H231832   3.622   1.885   6.652  0.0045 -1.4451  0.9177
 3473TIP3   OH231833   2.504   5.750  12.290 -0.1433 -0.1936  0.3336
 3473TIP3    H131834   2.434   5.801  12.330  0.2177  0.4189  0.1889
 3473TIP3    H231835   2.482   5.659  12.311  0.9304  0.1424  3.4290
 3474TIP3   OH231836   2.372   3.727   6.125  0.0095  0.1920 -0.3106
 3474TIP3    H131837   2.310   3.715   6.053  0.0134  0.1709 -0.3103
 3474TIP3    H231838   2.330   3.791   6.183  1.3302  2.7194 -1.9039
 3475TIP3   OH231839   3.544   5.791   2.165 -0.4989 -0.4517  0.1923
 3475TIP3    H131840   3.626   5.827   2.199 -0.3603  0.2131 -0.8196
 3475TIP3    H231841   3.564   5.762   2.077 -1.2313 -0.7541  0.1126
 3476TIP3   OH231842   2.546   0.930   4.068  0.0566  0.5703 -0.4517
 3476TIP3    H131843   2.543   0.953   4.161 -0.4300  0.0582 -0.3365
 3476TIP3    H231844   2.465   0.968   4.033  1.3617  2.8870 -1.1836
 3477TIP3   OH231845   2.267   6.485   5.218 -0.3720 -0.4321 -0.4730
 3477TIP3    H131846   2.251   6.465   5.125 -0.2124  1.0148 -0.8405
 3477TIP3    H231847   2.362   6.497   5.224 -0.2727 -1.3718  0.0805
 3478TIP3   OH231848   2.676   4.391  11.594 -0.0038  0.2820  0.1479
 3478TIP3    H131849   2.582   4.402  11.601  0.0943  1.4183 -0.2027
 3478TIP3    H231850   2.709   4.477  11.568  1.1059 -0.1565  0.0419
 3479TIP3   OH231851   1.027   4.570   0.216 -0.2063  0.4324 -0.7092
 3479TIP3    H131852   1.002   4.662   0.223 -0.3254  0.3977 -0.6804
 3479TIP3    H231853   1.122   4.570   0.224 -0.0143  0.7575 -2.5568
 3480TIP3   OH231854   4.254   3.810  12.753 -0.0431  0.4081 -0.1944
 3480TIP3    H131855   4.162   3.799  12.776  0.6373 -0.6949  2.4238
 3480TIP3    H231856   4.296   3.840  12.834  2.1866 -0.9163 -0.7543
 3481TIP3   OH231857   5.249   3.880  14.009 -0.0499  0.2908 -0.3727
 3481TIP3    H131858   5.211   3.944  13.949 -2.5811  0.1520  0.9356
 3481TIP3    H231859   5.215   3.905  14.095  0.0973 -1.9051  0.3925
 3482TIP3   OH231860   1.125   3.856  16.168  0.5787  0.6278 -0.8948
 3482TIP3    H131861   1.045   3.805  16.175  0.8876  0.4009  2.8741
 3482TIP3    H231862   1.196   3.792  16.177  1.0882  1.2348 -0.5170
 3483TIP3   OH231863   6.522   6.233   5.921  0.5187 -0.3853  0.1231
 3483TIP3    H131864   6.567   6.296   5.866 -0.9597 -0.2108 -0.9537
 3483TIP3    H231865   6.465   6.286   5.977  0.4236 -0.6755  0.3036
 3484TIP3   OH231866   2.800   3.953   2.828  0.5918  0.2832  0.3283
 3484TIP3    H131867   2.720   3.901   2.832  0.5136  0.4561  1.4315
 3484TIP3    H231868   2.780   4.031   2.879  0.9771  1.0348 -0.6242
 3485TIP3   OH231869   3.787   2.690   5.362  0.4582 -0.4851 -0.1757
 3485TIP3    H131870   3.721   2.756   5.384  0.0389 -1.1145  0.5226
 3485TIP3    H231871   3.739   2.624   5.313  0.8138 -0.4182 -0.6208
 3486TIP3   OH231872   1.501   0.470  13.115 -0.1152  0.0913  0.4475
 3486TIP3    H131873   1.592   0.466  13.145  0.6098 -1.5790 -1.7110
 3486TIP3    H231874   1.507   0.465  13.020 -2.4075  2.2064  0.0818
 3487TIP3   OH231875   2.305   2.724   5.611  0.6132  0.2275  0.1160
 3487TIP3    H131876   2.361   2.725   5.534  0.8656 -1.2701  0.2545
 3487TIP3    H231877   2.356   2.680   5.679  0.1304  0.8930  0.9492
 3488TIP3   OH231878   1.741   3.800   4.863  0.2817  0.2572 -0.0202
 3488TIP3    H131879   1.836   3.805   4.860  0.2410  2.6512  0.3272
 3488TIP3    H231880   1.713   3.891   4.877 -2.1633  0.0286 -2.5320
 3489TIP3   OH231881   0.420   0.372  11.931  0.7105  0.5027 -0.1652
 3489TIP3    H131882   0.435   0.408  12.019  0.3667  2.1658 -0.7617
 3489TIP3    H231883   0.325   0.373  11.921  0.5853 -1.9038  0.3027
 3490TIP3   OH231884   4.937   2.234   0.363  0.0925 -0.2131  0.0415
 3490TIP3    H131885   4.862   2.282   0.328  1.2439  1.4526 -0.2420
 3490TIP3    H231886   4.943   2.155   0.308 -1.0985 -0.1063 -0.2735
 3491TIP3   OH231887   5.197   4.118  16.925  0.5075 -0.0887 -0.9048
 3491TIP3    H131888   5.243   4.044  16.884  0.2178 -0.8352  0.0696
 3491TIP3    H231889   5.107   4.087  16.937  0.0070  0.9618 -1.7941
 3492TIP3   OH231890   5.911   1.035   0.411  0.0716 -0.2614 -0.1217
 3492TIP3    H131891   5.869   1.071   0.332 -0.0908 -1.8509 -0.8012
 3492TIP3    H231892   5.838   1.007   0.466  0.1793  1.0467  0.7238
 3493TIP3   OH231893   3.337   6.051  14.808 -0.6209  0.3189 -0.2997
 3493TIP3    H131894   3.413   6.017  14.760 -1.6242 -0.7564 -1.2154
 3493TIP3    H231895   3.315   6.133  14.763 -2.7902 -1.6461 -3.2158
 3494TIP3   OH231896   5.871   3.034  12.687 -0.9149  0.3375 -0.0152
 3494TIP3    H131897   5.835   3.122  12.699 -0.0019  0.5810  1.1906
 3494TIP3    H231898   5.947   3.047  12.630  1.4817  1.0057  3.0771
 3495TIP3   OH231899   5.570   6.505  17.167 -0.4939 -0.4095  0.4656
 3495TIP3    H131900   5.537   6.468  17.249 -3.6241 -0.8567 -0.8562
 3495TIP3    H231901   5.539   6.445  17.100 -0.1747  1.2609 -1.2572
 3496TIP3   OH231902   5.761   4.594  10.962  0.5118 -0.7967 -0.1466
 3496TIP3    H131903   5.821   4.643  11.017 -0.6787 -0.0500  0.5472
 3496TIP3    H231904   5.705   4.547  11.024 -2.1579  1.6117 -0.5137
 3497TIP3   OH231905   0.281   4.938   0.756  0.3444  0.5090  0.4026
 3497TIP3    H131906   0.215   4.922   0.823 -0.4393 -1.7012 -0.7739
 3497TIP3    H231907   0.244   5.006   0.700 -0.3385  0.2448  0.5342
 3498TIP3   OH231908   1.140   4.071   4.809 -0.5503 -0.3179  0.0594
 3498TIP3    H131909   1.203   4.133   4.846 -0.8063  0.2001 -0.3395
 3498TIP3    H231910   1.147   3.993   4.863  0.4665 -0.2813 -0.0098
 3499TIP3   OH231911   1.741   3.858   1.720  0.2390  0.1700 -0.3907
 3499TIP3    H131912   1.734   3.768   1.687 -0.2904 -0.4548  1.3244
 3499TIP3    H231913   1.829   3.886   1.694  0.3254 -0.7535 -1.1577
 3500TIP3   OH231914   6.270   5.641  17.023 -0.2378 -0.0958  0.1951
 3500TIP3    H131915   6.339   5.678  16.967  0.6120 -2.0574 -0.1220
 3500TIP3    H231916   6.189   5.678  16.988  0.4573  0.4511 -0.9069
 3501TIP3   OH231917   5.508   2.195   5.516  0.3196 -0.1776 -0.5527
 3501TIP3    H131918   5.560   2.256   5.568  0.1595 -0.4862 -0.0278
 3501TIP3    H231919   5.436   2.247   5.481  1.0998  0.3113 -1.4825
 3502TIP3   OH231920   2.797   5.619   2.409 -0.9754  0.5686 -0.0159
 3502TIP3    H131921   2.815   5.526   2.423  0.7486  0.5510 -1.9450
 3502TIP3    H231922   2.778   5.653   2.497  0.5262 -1.1654  1.0617
 3503TIP3   OH231923   2.660   4.725   5.052 -0.0255 -0.0111  0.2973
 3503TIP3    H131924   2.564   4.729   5.051 -0.0288  0.4715 -1.4935
 3503TIP3    H231925   2.687   4.808   5.092 -0.3245 -0.4383  1.4384
 3504TIP3   OH231926   3.303   4.832   3.967  0.1078 -0.1139 -0.6465
 3504TIP3    H131927   3.320   4.739   3.978 -0.1182  0.0775  1.9172
 3504TIP3    H231928   3.389   4.873   3.963  0.4379 -0.0325  3.3374
 3505TIP3   OH231929   1.014   6.273   4.640  0.0275  0.2474  0.1399
 3505TIP3    H131930   0.957   6.224   4.581  1.7560 -0.7180 -0.7872
 3505TIP3    H231931   1.067   6.206   4.683 -0.8180  0.9627  2.4461
 3506TIP3   OH231932   0.621   1.480   2.344 -0.1479 -0.4760 -0.1954
 3506TIP3    H131933   0.619   1.576   2.338 -0.1840 -0.0234  4.1088
 3506TIP3    H231934   0.699   1.461   2.396  0.2398 -2.9194 -1.5339
 3507TIP3   OH231935   6.193   1.036   4.829  0.0513  0.1301  0.1699
 3507TIP3    H131936   6.131   1.094   4.784  0.9738  1.5815  0.6929
 3507TIP3    H231937   6.141   0.993   4.896 -0.9047 -0.5638 -0.9710
 3508TIP3   OH231938   4.731   5.211   2.711 -0.3595 -0.3451  0.4800
 3508TIP3    H131939   4.803   5.270   2.686 -1.0492  0.2785 -0.0698
 3508TIP3    H231940   4.664   5.268   2.748  0.6196 -1.2216  3.9933
 3509TIP3   OH231941   1.880   3.707  11.016 -0.4667  0.2107 -0.3319
 3509TIP3    H131942   1.862   3.643  10.948  0.9410 -0.1981 -0.3556
 3509TIP3    H231943   1.907   3.785  10.969  2.4315 -0.6687 -0.2959
 3510TIP3   OH231944   5.070   3.837  14.602  0.0482 -0.1119  0.4242
 3510TIP3    H131945   5.022   3.778  14.543 -0.3841  1.5196 -0.9600
 3510TIP3    H231946   5.053   3.803  14.689 -2.3314 -0.5461 -0.1282
 3511TIP3   OH231947   0.962   1.141  12.924 -0.2560 -0.2113  0.2015
 3511TIP3    H131948   1.024   1.169  12.991 -0.1378  1.3992 -0.5413
 3511TIP3    H231949   0.883   1.119  12.973 -0.0162  0.4640  0.9159
 3512TIP3   OH231950   4.308   1.815   3.789 -0.1547 -0.0692  0.1543
 3512TIP3    H131951   4.354   1.734   3.809  0.7807  0.8735  2.1014
 3512TIP3    H231952   4.215   1.790   3.789  0.0976 -1.0827  1.0293
 3513TIP3   OH231953   4.697   2.237   1.462 -0.1322  0.1948 -0.2222
 3513TIP3    H131954   4.615   2.240   1.511 -2.3337  1.1476 -3.5548
 3513TIP3    H231955   4.679   2.177   1.389  2.7573 -0.8309 -0.2101
 3514TIP3   OH231956   6.064   3.145  11.668 -0.4198  0.4901 -0.1170
 3514TIP3    H131957   6.083   3.147  11.575  1.1982  0.1477  0.1719
 3514TIP3    H231958   6.105   3.064  11.700  0.1222  1.1984  1.0783
 3515TIP3   OH231959   1.258   4.328  11.640  0.1410 -0.3920 -0.3312
 3515TIP3    H131960   1.331   4.388  11.622 -0.6604  0.6036 -0.3201
 3515TIP3    H231961   1.295   4.241  11.625  1.2837  0.1053 -0.5066
 3516TIP3   OH231962   3.684   2.145   4.956  0.2871  0.3183 -0.4123
 3516TIP3    H131963   3.715   2.231   4.984  2.6486 -0.2520 -1.0415
 3516TIP3    H231964   3.761   2.089   4.960 -0.9322 -1.5186 -1.1024
 3517TIP3   OH231965   3.540   5.832   2.469  0.5999  0.1508 -0.0335
 3517TIP3    H131966   3.511   5.874   2.550  0.6025 -1.9220  1.1259
 3517TIP3    H231967   3.484   5.754   2.462  1.5067 -0.4185 -1.3194
 3518TIP3   OH231968   5.769   0.883  16.739  0.0936  0.2229  0.2285
 3518TIP3    H131969   5.746   0.964  16.692 -1.5753 -1.2914 -1.7230
 3518TIP3    H231970   5.793   0.913  16.827 -2.0570  2.7174  0.0883
 3519TIP3   OH231971   2.424   1.522   4.413 -0.8149  0.3541 -0.2619
 3519TIP3    H131972   2.514   1.548   4.432 -0.7324 -0.2946  0.2830
 3519TIP3    H231973   2.428   1.484   4.326 -0.7875  1.3856 -0.7250
 3520TIP3   OH231974   1.659   1.840   2.555 -0.0613  0.0185 -0.2086
 3520TIP3    H131975   1.706   1.923   2.561  0.6486 -0.4488  0.9953
 3520TIP3    H231976   1.588   1.848   2.619  0.7108 -0.7128  0.7785
 3521TIP3   OH231977   2.914   5.640   3.943  0.3895  0.3969 -0.3025
 3521TIP3    H131978   2.845   5.585   3.904  0.3981 -0.3100  0.6436
 3521TIP3    H231979   2.882   5.729   3.932 -0.7522  0.0779  0.2264
 3522TIP3   OH231980   1.271   1.257   0.677 -0.4262 -0.3557  0.5733
 3522TIP3    H131981   1.356   1.223   0.649 -0.9961 -1.3118 -0.0602
 3522TIP3    H231982   1.267   1.345   0.641  0.2555 -0.3453  0.5237
 3523TIP3   OH231983   4.529   4.216   3.424 -0.4802 -0.0863 -0.1222
 3523TIP3    H131984   4.453   4.272   3.439 -0.1118  0.4865 -0.3681
 3523TIP3    H231985   4.520   4.146   3.489 -0.7713  0.4394  0.4177
 3524TIP3   OH231986   1.643   4.154   4.598 -0.1665  0.4389  0.0220
 3524TIP3    H131987   1.670   4.135   4.689 -1.3337  0.5996  0.4133
 3524TIP3    H231988   1.576   4.222   4.607  0.3130  1.0702 -1.0305
 3525TIP3   OH231989   1.357   4.870   1.535  0.4916  0.0884  0.3850
 3525TIP3    H131990   1.281   4.889   1.589  1.3246  0.5418  1.4423
 3525TIP3    H231991   1.366   4.775   1.537 -0.4701 -0.0418 -0.3876
 3526TIP3   OH231992   0.612   4.432   4.644 -0.7300  0.6134 -0.0089
 3526TIP3    H131993   0.670   4.356   4.650  0.2751  1.2957 -0.5515
 3526TIP3    H231994   0.656   4.489   4.581 -1.4263  1.6702  0.4405
 3527TIP3   OH231995   0.420   5.580  12.145 -0.1738 -0.2936  0.2963
 3527TIP3    H131996   0.435   5.596  12.238  2.0024 -0.2217 -0.0095
 3527TIP3    H231997   0.408   5.667  12.107 -1.2811 -0.3352  0.5034
 3528TIP3   OH231998   5.306   4.260  14.578  0.1747  0.0653  0.0119
 3528TIP3    H131999   5.325   4.166  14.567 -0.4232 -0.1691  0.8699
 3528TIP3    H232000   5.243   4.263  14.650 -0.5477  1.0595 -0.6369
 3529TIP3   OH232001   1.328   2.488  14.736  0.4413  0.0960  0.1175
 3529TIP3    H132002   1.263   2.439  14.787 -0.6694  0.7022 -0.6816
 3529TIP3    H232003   1.404   2.431  14.733 -1.4594 -2.5745 -2.5040
 3530TIP3   OH232004   5.528   3.093  14.541 -0.3773 -0.1358  0.4655
 3530TIP3    H132005   5.523   3.014  14.487  0.9503 -0.1522  0.3345
 3530TIP3    H232006   5.540   3.164  14.477  0.4590 -0.0722  0.6795
 3531TIP3   OH232007   1.928   0.248  13.779  0.2013  0.3837 -0.3336
 3531TIP3    H132008   1.852   0.200  13.746  0.3118 -1.8991  2.2925
 3531TIP3    H232009   1.890   0.323  13.826 -0.1415  1.4088 -2.1655
 3532TIP3   OH232010   2.495   6.722   5.407  0.3437 -0.4624 -0.1507
 3532TIP3    H132011   2.491   6.628   5.387 -0.2468 -0.8806  1.7195
 3532TIP3    H232012   2.466   6.765   5.327 -1.2205 -1.9706 -0.4490
 3533TIP3   OH232013   1.308   4.599   0.247 -0.2193 -0.2459 -0.2554
 3533TIP3    H132014   1.306   4.669   0.311 -0.1349 -1.4944  1.1649
 3533TIP3    H232015   1.375   4.538   0.279 -1.6187 -1.9364 -0.3627
 3534TIP3   OH232016   0.791   6.552   2.600  0.2371  0.6088  0.1661
 3534TIP3    H132017   0.858   6.612   2.567  0.2729  0.0618 -0.7851
 3534TIP3    H232018   0.769   6.497   2.525 -0.3471 -0.0690  0.8196
 3535TIP3   OH232019   3.944   2.868  12.688  0.5801  0.5919  0.1601
 3535TIP3    H132020   3.975   2.907  12.770  0.3862  0.1935  0.4241
 3535TIP3    H232021   3.858   2.832  12.710  0.9412 -0.3693  0.0329
 3536TIP3   OH232022   6.580   0.874   6.223  0.0086  0.6449  0.1801
 3536TIP3    H132023   6.511   0.932   6.256 -0.8691 -0.4994  0.4010
 3536TIP3    H232024   6.607   0.823   6.299  0.7526  0.7140 -0.0257
 3537TIP3   OH232025   1.200   1.581   1.165  0.1255 -0.3314 -0.4712
 3537TIP3    H132026   1.280   1.575   1.217 -1.0845 -0.9475  1.4179
 3537TIP3    H232027   1.230   1.578   1.074  2.2803  0.1555  0.1622
 3538TIP3   OH232028   5.286   1.316  15.782  0.0793 -0.0217 -0.1588
 3538TIP3    H132029   5.334   1.242  15.819 -0.7564 -0.2135  0.5961
 3538TIP3    H232030   5.195   1.286  15.779 -0.1116  0.5994 -0.8518
 3539TIP3   OH232031   3.823   1.794   6.579 -0.7706 -0.8738 -0.0789
 3539TIP3    H132032   3.885   1.731   6.541  1.1050  0.7294  0.1212
 3539TIP3    H232033   3.857   1.811   6.667  0.2392  2.1041 -0.9063
 3540TIP3   OH232034   1.311   4.897  12.923  0.7425  0.4803 -0.5342
 3540TIP3    H132035   1.351   4.976  12.960  0.0177  0.4498  0.3566
 3540TIP3    H232036   1.339   4.826  12.982  0.0367  0.3424 -0.3451
 3541TIP3   OH232037   3.542   2.684   3.239 -0.4291 -0.4520 -0.0127
 3541TIP3    H132038   3.469   2.696   3.179 -1.3285 -1.4557  0.8384
 3541TIP3    H232039   3.522   2.603   3.286 -0.2150  0.7391  2.2833
 3542TIP3   OH232040   1.366   6.226  15.100  0.2017 -0.2974 -0.6295
 3542TIP3    H132041   1.422   6.152  15.125  0.0482  0.1143  1.0387
 3542TIP3    H232042   1.278   6.189  15.096  0.0008 -0.0427  1.0767
 3543TIP3   OH232043   4.595   6.296   0.977  0.1298  0.3283  0.4723
 3543TIP3    H132044   4.591   6.323   1.069 -0.2240  0.1591  0.5104
 3543TIP3    H232045   4.662   6.352   0.938 -1.0330  1.7286  0.3986
 3544TIP3   OH232046   4.679   2.383  16.835 -0.5078 -0.5320  0.1204
 3544TIP3    H132047   4.626   2.303  16.841  0.3316 -1.1164 -0.0426
 3544TIP3    H232048   4.765   2.352  16.808 -0.6897  0.6216 -2.0104
 3545TIP3   OH232049   5.498   4.743   0.900 -0.0547  0.0786 -0.4407
 3545TIP3    H132050   5.462   4.829   0.921  0.6019  0.4112 -0.6300
 3545TIP3    H232051   5.515   4.747   0.806  1.8345  0.4665 -0.1099
 3546TIP3   OH232052   5.646   1.375  13.734 -0.4761  0.4494  0.5678
 3546TIP3    H132053   5.670   1.283  13.741  1.5412  0.9616  0.8386
 3546TIP3    H232054   5.725   1.423  13.756 -1.7149  2.2837  1.3171
 3547TIP3   OH232055   1.865   3.491  15.729 -0.3559  0.1747 -0.7667
 3547TIP3    H132056   1.912   3.575  15.722  0.9170 -0.4782 -0.3848
 3547TIP3    H232057   1.889   3.457  15.816 -1.7562 -0.0820 -0.4503
 3548TIP3   OH232058   3.602   2.503   5.566  0.0356  0.2769 -0.5333
 3548TIP3    H132059   3.652   2.422   5.552 -1.1444 -0.4940 -0.3712
 3548TIP3    H232060   3.572   2.528   5.479  0.4751  0.6064 -0.5960
 3549TIP3   OH232061   0.166   4.238  13.835 -0.0049 -0.6305  0.1890
 3549TIP3    H132062   0.188   4.164  13.891 -1.5207 -1.5637 -0.3889
 3549TIP3    H232063   0.201   4.315  13.881  2.1938 -1.7303  0.4710
 3550TIP3   OH232064   1.077   4.039  15.016  0.4504 -0.0433  0.0790
 3550TIP3    H132065   1.076   3.967  15.079 -0.8802 -0.0230  0.0922
 3550TIP3    H232066   1.019   4.105  15.054  0.1397  0.2387 -0.8666
 3551TIP3   OH232067   2.160   2.832  17.207 -0.6383 -0.0459 -0.3183
 3551TIP3    H132068   2.235   2.865  17.159  2.2507 -0.9738  3.0979
 3551TIP3    H232069   2.152   2.741  17.179 -0.4909  0.0635 -0.7182
 3552TIP3   OH232070   6.528   2.980  13.329 -0.1235  0.2188 -0.2223
 3552TIP3    H132071   6.480   2.980  13.246  0.5202  0.8746 -0.6023
 3552TIP3    H232072   6.472   2.929  13.389 -0.2198 -0.9403 -1.2652
 3553TIP3   OH232073   3.521   4.882  15.290  0.8027 -0.4338 -0.1538
 3553TIP3    H132074   3.593   4.920  15.341  0.5196  0.0861 -0.1289
 3553TIP3    H232075   3.555   4.877  15.201  0.6864  0.3379 -0.2523
 3554TIP3   OH232076   5.279   0.980   6.433 -0.0786  0.3542 -0.2265
 3554TIP3    H132077   5.346   0.993   6.500 -0.4321  0.1650  0.1673
 3554TIP3    H232078   5.294   1.052   6.370  0.3202  0.4679 -0.0051
 3555TIP3   OH232079   0.026   1.327  11.848  0.0865 -0.2294 -0.4845
 3555TIP3    H132080   0.049   1.420  11.846 -0.3073 -0.1451 -1.3375
 3555TIP3    H232081  -0.045   1.318  11.784 -1.0443 -0.8053  0.7957
 3556TIP3   OH232082   4.701   5.530   0.844  0.1531 -0.5844  0.4744
 3556TIP3    H132083   4.688   5.568   0.757 -1.1888  0.0608  0.9207
 3556TIP3    H232084   4.791   5.552   0.868 -0.1992  1.2802  0.2003
 3557TIP3   OH232085   2.023   6.330  13.388 -0.0573 -0.2599 -0.3133
 3557TIP3    H132086   2.075   6.350  13.310  1.5129 -1.8484  0.2822
 3557TIP3    H232087   1.995   6.416  13.420 -1.5903  0.4066 -3.1185
 3558TIP3   OH232088   5.336   5.976  11.791  0.0115  0.5299  0.0309
 3558TIP3    H132089   5.400   6.046  11.805  0.9124 -0.2013 -0.3457
 3558TIP3    H232090   5.375   5.921  11.723 -0.4569 -0.5887  0.6334
 3559TIP3   OH232091   0.436   1.655   5.316 -0.6769  0.1884  0.2117
 3559TIP3    H132092   0.516   1.698   5.347  0.8820 -0.1020 -3.0494
 3559TIP3    H232093   0.452   1.562   5.328 -0.3625  0.1117 -0.7986
 3560TIP3   OH232094   1.236   5.244   1.249  0.1818 -0.1185 -0.3455
 3560TIP3    H132095   1.317   5.235   1.199  0.8097  2.0229  0.1471
 3560TIP3    H232096   1.166   5.222   1.187  1.0771 -0.8549 -1.1198
 3561TIP3   OH232097   1.275   5.623   2.909  0.6646 -0.0265  0.0948
 3561TIP3    H132098   1.307   5.569   2.981  0.1293 -0.2110  0.1964
 3561TIP3    H232099   1.198   5.667   2.944  1.2596  1.0294  0.1059
 3562TIP3   OH232100   2.871   4.565   1.679 -0.3320  0.0015 -0.3065
 3562TIP3    H132101   2.872   4.655   1.646  0.4300  0.5946  1.2236
 3562TIP3    H232102   2.955   4.556   1.725 -0.6065 -1.3400 -0.0246
 3563TIP3   OH232103   0.709   3.744  16.023 -0.0401 -0.2345 -0.1585
 3563TIP3    H132104   0.678   3.708  15.940 -0.1379 -1.6843  0.4870
 3563TIP3    H232105   0.643   3.719  16.087  0.5444 -0.0284  0.5455
 3564TIP3   OH232106   5.511   3.695   1.299  0.0356  0.2602 -0.1486
 3564TIP3    H132107   5.587   3.752   1.283 -0.2415  1.2919  1.8821
 3564TIP3    H232108   5.548   3.607   1.307  0.8839  0.6082 -0.1365
 3565TIP3   OH232109   3.593   1.694  11.936  0.0379  0.1743  0.1417
 3565TIP3    H132110   3.531   1.622  11.925  0.4288 -0.3857  1.4979
 3565TIP3    H232111   3.660   1.679  11.869 -0.6415  0.1189 -0.5437
 3566TIP3   OH232112   1.031   4.183  11.318 -0.3342  0.3834 -0.1107
 3566TIP3    H132113   0.990   4.176  11.232  0.0867  0.9889 -0.3663
 3566TIP3    H232114   0.964   4.224  11.373 -0.7559 -0.3868 -0.0333
 3567TIP3   OH232115   4.078   6.714   5.376 -0.3130  0.7545 -0.1072
 3567TIP3    H132116   4.021   6.718   5.300  0.1382  0.1530 -0.4892
 3567TIP3    H232117   4.139   6.643   5.356  0.5775  1.3982  0.2847
 3568TIP3   OH232118   3.771   3.469   3.481  0.0260  0.0484 -0.1214
 3568TIP3    H132119   3.777   3.442   3.390  0.4370  0.3086 -0.1722
 3568TIP3    H232120   3.683   3.441   3.509 -0.5400  0.9819 -0.9108
 3569TIP3   OH232121   6.267   0.227   2.980  0.1097 -0.2086  0.2768
 3569TIP3    H132122   6.273   0.168   3.055 -0.2414 -0.7915 -0.1431
 3569TIP3    H232123   6.212   0.180   2.917 -0.2412  0.6010 -0.0379
 3570TIP3   OH232124   5.293   2.926   2.898 -0.1564 -0.0310  1.0736
 3570TIP3    H132125   5.363   2.861   2.887 -0.2685 -0.2809  1.7614
 3570TIP3    H232126   5.255   2.905   2.984 -2.4073 -1.2054 -0.1138
 3571TIP3   OH232127   6.686   5.572   6.443 -0.1528  0.5358 -0.7119
 3571TIP3    H132128   6.775   5.542   6.463 -0.4237 -0.6528 -1.2016
 3571TIP3    H232129   6.638   5.492   6.423 -1.0985  1.2529 -1.3800
 3572TIP3   OH232130   6.615   0.377   6.006  0.1743  0.5401  0.3339
 3572TIP3    H132131   6.564   0.382   5.925  2.0639  1.5199 -0.8638
 3572TIP3    H232132   6.595   0.458   6.053 -1.4090 -0.3083  1.2284
 3573TIP3   OH232133   1.813   2.784   1.160  0.1539 -0.1721  0.7734
 3573TIP3    H132134   1.833   2.846   1.230  1.3251 -0.2136  0.5037
 3573TIP3    H232135   1.752   2.830   1.102  0.5539  0.5089  0.8893
 3574TIP3   OH232136   6.189   1.379   3.227  0.3918 -0.0581 -0.2905
 3574TIP3    H132137   6.140   1.460   3.242  2.1824  1.4342 -1.8993
 3574TIP3    H232138   6.234   1.363   3.310 -0.4823  0.2226  0.2494
 3575TIP3   OH232139   6.737   3.125   0.005  0.0681  0.4060  0.0198
 3575TIP3    H132140   6.730   3.071   0.084  4.4207 -0.8989 -0.1793
 3575TIP3    H232141   6.806   3.189   0.026 -0.9460  2.1584 -1.7050
 3576TIP3   OH232142   6.378   1.776   0.156  0.0856 -0.8669 -0.1048
 3576TIP3    H132143   6.396   1.855   0.205  0.9305  0.2074 -2.0255
 3576TIP3    H232144   6.310   1.731   0.206 -1.3652  1.7028  0.3971
 3577TIP3   OH232145   4.472   6.056   1.275 -0.2389 -0.4584  0.8844
 3577TIP3    H132146   4.395   6.110   1.258  0.9218  0.6767 -1.1553
 3577TIP3    H232147   4.516   6.099   1.349  1.3631  2.3771 -1.4919
 3578TIP3   OH232148   6.691   3.440   2.569  0.0500 -0.2544  0.9959
 3578TIP3    H132149   6.666   3.438   2.662 -2.2128  0.7788  0.4885
 3578TIP3    H232150   6.616   3.403   2.523  1.5763 -1.7818 -0.4149
 3579TIP3   OH232151   6.227   4.318  12.244 -0.3170 -0.2670  0.3348
 3579TIP3    H132152   6.289   4.385  12.276 -0.7076  0.3521 -0.1864
 3579TIP3    H232153   6.283   4.251  12.204 -0.0072  1.5310 -2.5544
 3580TIP3   OH232154   0.345   1.643   1.800  0.0801 -0.3459 -0.1034
 3580TIP3    H132155   0.399   1.598   1.735 -1.2750 -0.1392 -1.4211
 3580TIP3    H232156   0.399   1.717   1.829  0.3577  0.1138 -1.7016
 3581TIP3   OH232157   4.980   4.203  14.196 -0.1083  0.3199  0.3591
 3581TIP3    H132158   4.999   4.253  14.116  1.3428 -0.1078  0.4153
 3581TIP3    H232159   4.952   4.270  14.259  0.7841  0.9374  0.1176
 3582TIP3   OH232160   0.965   6.758   0.990  0.4183  0.1376 -0.3719
 3582TIP3    H132161   0.912   6.698   1.043 -0.2781 -0.0771 -1.2931
 3582TIP3    H232162   0.966   6.840   1.039  1.5626 -0.6580  1.0217
 3583TIP3   OH232163   1.924   0.151   3.474  0.0010  0.2738 -0.2197
 3583TIP3    H132164   1.957   0.229   3.431  2.4300 -0.3134  0.4532
 3583TIP3    H232165   1.852   0.121   3.418  1.5311  0.8265 -2.6332
 3584TIP3   OH232166   1.463   2.201  16.568 -0.2918 -0.2589 -0.1408
 3584TIP3    H132167   1.520   2.129  16.539  0.9152  0.0100  1.4012
 3584TIP3    H232168   1.470   2.267  16.499  2.9480  0.6100  0.8408
 3585TIP3   OH232169   3.448   1.681   4.311 -0.2852 -0.0297 -0.1709
 3585TIP3    H132170   3.409   1.667   4.225  2.8404 -0.2523 -1.6905
 3585TIP3    H232171   3.470   1.593   4.343 -2.1794 -0.0249  1.3342
 3586TIP3   OH232172   5.290   2.784  12.956 -0.5318 -0.2160 -0.1055
 3586TIP3    H132173   5.362   2.724  12.940 -0.5397  0.0902 -1.3836
 3586TIP3    H232174   5.303   2.856  12.893 -1.0933  0.6043  0.6883
 3587TIP3   OH232175   5.176   6.473  16.302  0.2271 -0.4874  0.3594
 3587TIP3    H132176   5.115   6.490  16.374 -0.4163 -1.9613  0.2076
 3587TIP3    H232177   5.123   6.428  16.236  0.7585  0.9878 -1.1406
 3588TIP3   OH232178   4.469   2.099   2.682 -0.5516 -0.2376  0.2636
 3588TIP3    H132179   4.458   2.176   2.738  0.1342  0.0591  0.0033
 3588TIP3    H232180   4.424   2.122   2.601  0.3385  0.2226 -0.1116
 3589TIP3   OH232181   5.666   6.235   5.135  0.2361  0.2801  0.4691
 3589TIP3    H132182   5.625   6.281   5.209 -1.9931 -0.9654  0.0934
 3589TIP3    H232183   5.672   6.144   5.163  0.8292  0.0654 -0.3084
 3590TIP3   OH232184   0.661   2.636   1.693  0.5596  0.1509 -0.1896
 3590TIP3    H132185   0.578   2.595   1.668  0.5481 -0.3339  0.5956
 3590TIP3    H232186   0.710   2.642   1.612  0.4983 -1.3006 -0.3723
 3591TIP3   OH232187   5.845   0.879  15.272 -0.6298  0.4879 -0.0671
 3591TIP3    H132188   5.901   0.956  15.275 -0.9853  0.7132  1.3268
 3591TIP3    H232189   5.871   0.834  15.191  1.2834  0.7733  0.3394
 3592TIP3   OH232190   2.621   0.297   0.041  0.0158  0.0354  0.2866
 3592TIP3    H132191   2.602   0.249   0.121 -1.9890 -0.0269 -0.1619
 3592TIP3    H232192   2.605   0.233  -0.029  3.1213 -0.3639 -0.2187
 3593TIP3   OH232193   3.954   5.073  11.254 -0.6014 -0.3912 -0.0322
 3593TIP3    H132194   3.980   5.029  11.173 -0.8993  0.3339 -0.5339
 3593TIP3    H232195   4.010   5.034  11.322 -1.1070 -1.8008 -0.3820
 3594TIP3   OH232196   1.439   4.589   4.690 -0.9247  0.1284 -0.5516
 3594TIP3    H132197   1.345   4.581   4.703 -1.2113  0.5293 -2.1512
 3594TIP3    H232198   1.463   4.670   4.737 -1.7909  1.2223 -1.9213
 3595TIP3   OH232199   2.784   6.150   2.107  1.1818  0.5139 -0.4902
 3595TIP3    H132200   2.795   6.150   2.012  1.3956 -0.1691 -0.4711
 3595TIP3    H232201   2.818   6.065   2.135  0.0905  0.2515  0.0764
 3596TIP3   OH232202   1.362   5.553   5.913  0.3288 -0.0045  0.7798
 3596TIP3    H132203   1.290   5.565   5.851 -1.1188  0.4702  2.4624
 3596TIP3    H232204   1.405   5.639   5.917  1.0223 -0.2912 -0.2323
 3597TIP3   OH232205   4.985   1.742   5.531 -0.6036 -0.5210 -0.4964
 3597TIP3    H132206   4.945   1.816   5.485 -0.4421 -0.7188 -0.9609
 3597TIP3    H232207   5.008   1.776   5.617 -0.5397 -0.0364 -0.7046
 3598TIP3   OH232208   4.207   1.192  15.808  0.6469 -0.2501 -0.5892
 3598TIP3    H132209   4.284   1.209  15.754 -1.3184  1.9338 -2.9889
 3598TIP3    H232210   4.147   1.146  15.749 -0.2932 -0.9739  0.8908
 3599TIP3   OH232211   5.139   5.473  10.544  0.1266  0.0310  0.3321
 3599TIP3    H132212   5.193   5.543  10.508 -1.6756  1.2012 -0.2081
 3599TIP3    H232213   5.179   5.393  10.511  0.2723  0.9442 -1.8486
 3600TIP3   OH232214   4.757   4.406  13.772  0.3604  0.1039  0.0276
 3600TIP3    H132215   4.662   4.402  13.780 -0.1348 -0.3910 -4.1826
 3600TIP3    H232216   4.784   4.315  13.762  1.1422  0.3163  0.1123
 3601TIP3   OH232217   4.993   0.810  14.894 -0.3529  0.2343 -0.6626
 3601TIP3    H132218   5.021   0.833  14.983 -1.2976  1.7523 -0.7184
 3601TIP3    H232219   5.073   0.779  14.852  0.2551  0.1348  0.5071
 3602TIP3   OH232220   2.487   4.002  14.539  0.1789  0.2474  0.2635
 3602TIP3    H132221   2.550   4.073  14.555  1.0739 -0.3319 -0.6193
 3602TIP3    H232222   2.407   4.032  14.582 -0.3863  3.1547 -2.4019
 3603TIP3   OH232223   5.203   4.171  15.598 -0.1019 -0.0300  0.1655
 3603TIP3    H132224   5.107   4.170  15.599 -0.1104  0.0858 -0.3635
 3603TIP3    H232225   5.227   4.203  15.685 -0.5072 -1.6910  0.9211
 3604TIP3   OH232226   6.363   4.491  15.753  0.3567 -0.0932 -0.0634
 3604TIP3    H132227   6.383   4.568  15.700  0.6858  1.0500  1.6290
 3604TIP3    H232228   6.440   4.479  15.809 -0.6309 -0.1958  1.3273
 3605TIP3   OH232229   6.621   0.163  16.875 -0.0574 -0.0021 -0.1485
 3605TIP3    H132230   6.648   0.203  16.792  0.9382 -2.2812 -1.0075
 3605TIP3    H232231   6.624   0.235  16.938  0.1058  1.5972 -1.8675
 3606TIP3   OH232232   2.238   4.795  12.416  0.5988  0.1825  0.1732
 3606TIP3    H132233   2.231   4.795  12.512 -2.0071 -0.3586  0.0457
 3606TIP3    H232234   2.209   4.882  12.390 -3.0993 -0.9927 -0.2277
 3607TIP3   OH232235   4.054   2.412  15.393 -0.2812  0.6490  0.0559
 3607TIP3    H132236   4.124   2.418  15.458  1.0535  0.3750 -1.2719
 3607TIP3    H232237   4.022   2.502  15.384  1.0220  1.1030 -0.4199
 3608TIP3   OH232238   2.616   1.834  11.708 -0.1931  0.0301  0.7857
 3608TIP3    H132239   2.539   1.777  11.700 -0.6291  0.3205  2.4228
 3608TIP3    H232240   2.618   1.858  11.801  0.9278  1.3662  0.4482
 3609TIP3   OH232241   4.374   5.886  12.126 -0.2070 -0.0454  0.3619
 3609TIP3    H132242   4.346   5.976  12.142  1.5498  0.2467  2.1680
 3609TIP3    H232243   4.410   5.887  12.037  0.4283  1.2135  0.6192
 3610TIP3   OH232244   1.916   1.892  11.771  0.4765  0.3088 -0.0541
 3610TIP3    H132245   1.870   1.975  11.763  1.0609  0.5501 -0.9058
 3610TIP3    H232246   1.994   1.912  11.822 -0.1072 -0.0217  1.0228
 3611TIP3   OH232247   2.642   5.722  17.155  0.4267  0.4815  0.0939
 3611TIP3    H132248   2.720   5.765  17.121 -0.4708  1.2308 -1.0793
 3611TIP3    H232249   2.615   5.661  17.086  0.2449 -0.1452  0.6962
 3612TIP3   OH232250   0.925   3.003  16.112 -0.1503  0.0180  0.1253
 3612TIP3    H132251   0.924   3.007  16.017  1.0104 -0.5513  0.0657
 3612TIP3    H232252   0.839   2.969  16.136 -0.5964  0.5500 -0.6930
 3613TIP3   OH232253   1.235   4.340  14.558  0.2381 -0.1945 -0.2214
 3613TIP3    H132254   1.189   4.372  14.480  2.0448  0.6736 -0.9960
 3613TIP3    H232255   1.214   4.405  14.626 -1.3306 -0.9467  0.0747
 3614TIP3   OH232256   3.109   2.000  11.693  0.1258  0.4976  0.2665
 3614TIP3    H132257   3.062   1.930  11.739 -0.6421 -0.5365 -1.9308
 3614TIP3    H232258   3.042   2.065  11.672 -0.1789 -0.4145 -1.8246
 3615TIP3   OH232259   1.231   4.813  12.038 -0.0263 -0.3050  0.2346
 3615TIP3    H132260   1.157   4.755  12.055  0.2115 -0.9032 -0.7181
 3615TIP3    H232261   1.190   4.897  12.017 -0.3665 -0.0269  1.8855
 3616TIP3   OH232262   2.074   4.347   0.250 -0.4483 -0.1842 -0.1162
 3616TIP3    H132263   1.979   4.345   0.259 -0.3173 -1.3973  1.4619
 3616TIP3    H232264   2.093   4.434   0.214 -2.0045  0.9711  1.6580
 3617TIP3   OH232265   6.553   4.821   5.413 -0.3283  0.0376 -0.1956
 3617TIP3    H132266   6.562   4.916   5.408 -1.7871  0.3218  1.5206
 3617TIP3    H232267   6.476   4.807   5.467  1.6339 -2.1395  2.2761
 3618TIP3   OH232268   6.470   2.886  13.074 -0.5265  0.2878  0.2560
 3618TIP3    H132269   6.531   2.949  13.035 -1.8570  0.1056 -2.3112
 3618TIP3    H232270   6.472   2.810  13.016 -2.0420 -0.3362  0.9559
 3619TIP3   OH232271   5.828   0.619  13.757  0.1405 -0.4266  0.1411
 3619TIP3    H132272   5.894   0.601  13.824  0.3296  1.1478  0.3997
 3619TIP3    H232273   5.808   0.533  13.720  2.9852 -0.8613 -0.5994
 3620TIP3   OH232274   1.845   3.906  13.201 -0.1959 -0.1063  0.9624
 3620TIP3    H132275   1.786   3.831  13.207  0.5690 -0.8380 -0.2931
 3620TIP3    H232276   1.895   3.904  13.283  0.6912 -1.7548  0.4385
 3621TIP3   OH232277   4.129   4.165   4.611 -0.6196 -0.7461  0.1688
 3621TIP3    H132278   4.206   4.117   4.642  0.4043  0.9105  0.3500
 3621TIP3    H232279   4.066   4.097   4.586  0.3329 -2.1484  1.3972
 3622TIP3   OH232280   0.406   3.819   4.815  0.7416  0.4369 -0.3497
 3622TIP3    H132281   0.381   3.785   4.729  0.7111  0.2219 -0.2557
 3622TIP3    H232282   0.502   3.823   4.812  0.6866  1.8972 -0.9545
 3623TIP3   OH232283   0.672   4.326   2.279 -0.1603 -0.0306 -0.0192
 3623TIP3    H132284   0.716   4.395   2.328  0.3497  1.3614 -2.2953
 3623TIP3    H232285   0.579   4.341   2.294 -0.0248  0.5919  0.2401
 3624TIP3   OH232286   0.701   3.926   1.997  0.0529 -0.4887 -0.3197
 3624TIP3    H132287   0.772   3.909   2.058  0.8845  1.6999 -0.6052
 3624TIP3    H232288   0.671   4.014   2.018 -1.8891 -0.9527 -0.9123
 3625TIP3   OH232289   6.592   1.633   4.147  0.5841 -0.3254 -0.2645
 3625TIP3    H132290   6.640   1.713   4.168  1.1723 -0.8778  0.5435
 3625TIP3    H232291   6.652   1.583   4.091  1.3916 -1.4389  1.4999
 3626TIP3   OH232292   5.670   4.788  15.693  0.1736 -0.0043 -0.0469
 3626TIP3    H132293   5.716   4.738  15.760 -0.6675 -0.1559  0.4145
 3626TIP3    H232294   5.738   4.808  15.628  0.4379 -2.0935 -0.4595
 3627TIP3   OH232295   5.131   3.350   2.766 -0.4577 -0.5610 -0.0212
 3627TIP3    H132296   5.183   3.366   2.687 -0.8506  0.3255 -0.1108
 3627TIP3    H232297   5.124   3.255   2.771  4.3372 -1.0972  2.0241
 3628TIP3   OH232298   3.469   0.116   5.027  0.3798  0.4055  0.2801
 3628TIP3    H132299   3.392   0.150   5.073 -0.2813  0.4967 -0.8575
 3628TIP3    H232300   3.472   0.023   5.050  0.7015  0.6619  1.3521
 3629TIP3   OH232301   5.499   1.267   1.834  0.5159 -0.1559 -0.0110
 3629TIP3    H132302   5.520   1.201   1.900  1.6279 -0.9317 -1.0668
 3629TIP3    H232303   5.417   1.237   1.795  1.2304 -1.2191 -0.7797
 3630TIP3   OH232304   5.286   1.757  10.420 -0.0004 -0.2916  0.1779
 3630TIP3    H132305   5.327   1.843  10.430  3.6440 -1.2911 -3.4762
 3630TIP3    H232306   5.225   1.769  10.347 -0.1928 -0.5761  0.2941
 3631TIP3   OH232307   2.781   6.138  10.668 -0.2448 -0.2211 -0.1698
 3631TIP3    H132308   2.843   6.159  10.738 -1.0830  0.4297  0.3810
 3631TIP3    H232309   2.695   6.141  10.710 -0.8970  1.6028 -1.5238
 3632TIP3   OH232310   4.525   1.015   3.794  0.1274 -0.2523  0.2456
 3632TIP3    H132311   4.552   0.923   3.798  0.4289 -0.2742 -1.5086
 3632TIP3    H232312   4.521   1.035   3.701 -0.5231  1.3595  0.5820
 3633TIP3   OH232313   6.628   3.569  16.454 -0.0969  0.0552  0.1714
 3633TIP3    H132314   6.548   3.610  16.421 -0.7408 -1.3553 -0.0672
 3633TIP3    H232315   6.692   3.640  16.454 -0.8922  0.8238 -1.2423
 3634TIP3   OH232316   3.880   3.039  13.716  0.5879 -0.1904 -0.4980
 3634TIP3    H132317   3.843   3.006  13.634  1.4263 -2.0261 -0.2095
 3634TIP3    H232318   3.971   3.060  13.695  0.6067  0.0162 -0.2169
 3635TIP3   OH232319   1.040   6.701   6.075  0.3476  0.2694 -0.3887
 3635TIP3    H132320   0.967   6.640   6.082 -0.8422  1.7119  0.3979
 3635TIP3    H232321   1.000   6.781   6.042  1.6473  0.9853 -0.2767
 3636TIP3   OH232322   6.678   5.234   4.879 -0.2090  0.0965 -0.3466
 3636TIP3    H132323   6.735   5.289   4.933  1.9258 -1.6587 -0.6652
 3636TIP3    H232324   6.614   5.199   4.941  1.6473 -1.1700  1.0052
 3637TIP3   OH232325   0.337   4.829  12.970 -0.3182 -0.3351  0.3705
 3637TIP3    H132326   0.349   4.857  12.880 -1.8793 -0.4225  0.1056
 3637TIP3    H232327   0.328   4.911  13.020  0.9363 -0.2755  0.5366
 3638TIP3   OH232328   0.853   2.549  12.694 -0.5192  0.0105 -0.0181
 3638TIP3    H132329   0.845   2.485  12.623 -0.6466  0.1069 -0.0920
 3638TIP3    H232330   0.941   2.535  12.728 -1.3093 -1.7297  1.4583
 3639TIP3   OH232331   1.477   3.442  15.283  0.0124 -0.3382 -0.0690
 3639TIP3    H132332   1.507   3.513  15.226  0.6798 -0.3877  0.2079
 3639TIP3    H232333   1.554   3.419  15.335 -0.8338  0.3418  1.5300
 3640TIP3   OH232334   6.189   0.449  11.468  0.2722  0.0624  0.0481
 3640TIP3    H132335   6.196   0.400  11.386 -3.0421  0.5416 -0.6601
 3640TIP3    H232336   6.248   0.523  11.458  3.1685 -2.0784 -0.0467
 3641TIP3   OH232337   0.303   0.988   5.069  0.0127  0.4407  0.1821
 3641TIP3    H132338   0.242   1.040   5.121  0.1515  2.1089 -1.2080
 3641TIP3    H232339   0.254   0.909   5.046 -0.3293  0.0538  2.0792
 3642TIP3   OH232340   4.210   2.177  11.153  0.0021 -0.1482 -0.1006
 3642TIP3    H132341   4.247   2.209  11.071 -2.0889  2.7709 -0.0221
 3642TIP3    H232342   4.116   2.191  11.145 -0.2495  0.5305  2.8842
 3643TIP3   OH232343   0.279   0.799  14.611  0.2156  0.4809 -0.2681
 3643TIP3    H132344   0.297   0.726  14.669  1.4811  1.0919  0.1431
 3643TIP3    H232345   0.332   0.782  14.533 -0.4937  0.3153 -0.7307
 3644TIP3   OH232346   2.897   6.528  11.143 -0.0059 -0.8810  0.3227
 3644TIP3    H132347   2.961   6.472  11.099 -0.0563 -1.0859  0.5074
 3644TIP3    H232348   2.839   6.467  11.188  0.0695 -0.6705  0.7071
 3645TIP3   OH232349   1.012   4.256  15.954 -0.0922  0.0289 -0.2255
 3645TIP3    H132350   0.976   4.188  15.899 -0.4059  0.3440 -0.4127
 3645TIP3    H232351   1.035   4.212  16.036 -1.8457  0.0146  0.2809
 3646TIP3   OH232352   1.715   5.940  13.002  0.0836 -0.6886 -0.5715
 3646TIP3    H132353   1.773   5.998  13.050 -0.9823 -1.2675  1.5219
 3646TIP3    H232354   1.635   5.991  12.990  0.2270 -0.6625 -1.4880
 3647TIP3   OH232355   5.978   0.218   4.970 -0.6256  0.5711 -0.4389
 3647TIP3    H132356   5.940   0.175   4.894 -0.1400  2.2044 -1.6884
 3647TIP3    H232357   5.904   0.257   5.016 -0.9751 -0.8406  0.2441
 3648TIP3   OH232358   5.585   6.198  11.183  0.1473 -0.1132  0.1149
 3648TIP3    H132359   5.569   6.236  11.096 -0.6889  0.5287  0.5316
 3648TIP3    H232360   5.624   6.113  11.165 -0.0398 -0.0001 -0.8986
 3649TIP3   OH232361   4.597   6.323   5.138  0.5222  0.3842  0.1760
 3649TIP3    H132362   4.535   6.251   5.152  0.9781 -0.6148 -2.3494
 3649TIP3    H232363   4.541   6.400   5.129 -0.3591 -0.3525 -1.1179
 3650TIP3   OH232364   5.579   1.740   0.485 -0.1818 -0.0245  0.2754
 3650TIP3    H132365   5.515   1.683   0.529 -1.3264  1.6860  0.9208
 3650TIP3    H232366   5.590   1.701   0.398 -1.2021 -1.0266  0.5670
 3651TIP3   OH232367   5.708   6.437   3.377  0.6408  0.0213 -0.3831
 3651TIP3    H132368   5.662   6.354   3.364 -1.2774  1.0818 -0.7323
 3651TIP3    H232369   5.781   6.434   3.315  0.1609 -1.0922 -0.9235
 3652TIP3   OH232370   2.113   5.493   1.071  0.3898 -0.2493 -0.0052
 3652TIP3    H132371   2.185   5.530   1.020  0.1909  2.9307  1.8070
 3652TIP3    H232372   2.153   5.466   1.153  0.2567 -2.9918 -0.7388
 3653TIP3   OH232373   2.207   5.862  15.424  0.0231  0.0828 -0.0469
 3653TIP3    H132374   2.220   5.956  15.408 -0.2019  0.2036  0.4602
 3653TIP3    H232375   2.295   5.829  15.444  0.2087  0.0509 -0.8658
 3654TIP3   OH232376   0.783   3.593   6.503  0.2185  0.2724  0.3180
 3654TIP3    H132377   0.692   3.622   6.501  0.7628  2.0493  0.2816
 3654TIP3    H232378   0.792   3.539   6.424 -0.6935  0.3930  0.1241
 3655TIP3   OH232379   6.121   3.539   5.406 -0.4196  0.2895 -0.3037
 3655TIP3    H132380   6.099   3.494   5.325 -2.5839  0.5519  0.0746
 3655TIP3    H232381   6.036   3.563   5.444  0.5432  0.7343  1.7155
 3656TIP3   OH232382   0.874   0.742   3.978  0.1602  0.4229 -0.4329
 3656TIP3    H132383   0.859   0.768   4.069  0.8200  2.2781 -0.8158
 3656TIP3    H232384   0.818   0.800   3.927 -0.0717 -0.4829 -1.2475
 3657TIP3   OH232385   3.728   5.046   4.565  0.5029 -0.0827  0.4036
 3657TIP3    H132386   3.746   5.075   4.476  0.5842  2.0771  1.0701
 3657TIP3    H232387   3.774   5.109   4.621 -1.5629  0.1343  1.9902
 3658TIP3   OH232388   4.303   0.984  14.552 -0.4107  0.2683 -0.4218
 3658TIP3    H132389   4.299   1.032  14.635 -0.3360  0.4540 -0.5247
 3658TIP3    H232390   4.335   1.049  14.489  1.2780 -0.3343 -0.2369
 3659TIP3   OH232391   6.551   3.166   2.671 -0.3726  0.3303 -0.4546
 3659TIP3    H132392   6.612   3.094   2.684 -0.8882  0.0509  0.4802
 3659TIP3    H232393   6.513   3.150   2.585  0.2301  0.0296 -0.6693
 3660TIP3   OH232394   0.794   2.025   5.789  0.1392 -0.3554  0.3109
 3660TIP3    H132395   0.870   2.024   5.732 -0.3055  2.9227 -0.5407
 3660TIP3    H232396   0.814   2.091   5.855 -1.5311 -0.1520  0.6588
 3661TIP3   OH232397   1.923   1.608  11.988  0.4473 -0.0049 -0.0076
 3661TIP3    H132398   1.846   1.555  11.969 -0.1701  1.4066 -1.6631
 3661TIP3    H232399   1.909   1.639  12.078  0.5155 -2.0441  0.7480
 3662TIP3   OH232400   5.747   5.077   3.679 -0.1223  0.5858  0.2886
 3662TIP3    H132401   5.800   5.154   3.697  2.1805 -0.7169 -0.5252
 3662TIP3    H232402   5.799   5.003   3.711 -1.0559 -0.8329 -1.2690
 3663TIP3   OH232403   5.842   3.132   1.793 -0.6409 -0.5806  0.1320
 3663TIP3    H132404   5.934   3.136   1.768 -0.3873 -2.4162  0.6585
 3663TIP3    H232405   5.808   3.219   1.770  0.7759 -0.4402 -1.7101
 3664TIP3   OH232406   3.642   5.076   5.219 -0.1937  0.1601 -0.6053
 3664TIP3    H132407   3.715   5.100   5.276 -0.0937  2.0502 -1.4670
 3664TIP3    H232408   3.566   5.069   5.278 -0.0916  2.0713 -0.1966
 3665TIP3   OH232409   3.280   0.724  12.254 -0.3127 -0.3213  0.0266
 3665TIP3    H132410   3.329   0.646  12.280 -2.5706 -3.4141 -3.9921
 3665TIP3    H232411   3.333   0.764  12.185  0.1165  0.9682  1.0492
 3666TIP3   OH232412   3.597   0.759  12.814 -0.6656  0.2975  0.2956
 3666TIP3    H132413   3.673   0.700  12.817 -1.4301 -0.6726  2.7737
 3666TIP3    H232414   3.522   0.700  12.809 -1.3771  1.1275  1.0975
 3667TIP3   OH232415   2.962   1.981  13.608  0.3996 -0.1919  0.3450
 3667TIP3    H132416   2.911   1.980  13.528  2.6037  2.0078 -1.2558
 3667TIP3    H232417   2.946   2.068  13.646  0.1851 -0.8222  1.7789
 3668TIP3   OH232418   0.515   3.840   3.558 -0.0195  0.7675  0.2347
 3668TIP3    H132419   0.520   3.931   3.587 -1.0774  1.3829 -1.3758
 3668TIP3    H232420   0.444   3.802   3.609  0.4646  0.8026  0.9552
 3669TIP3   OH232421   2.245   2.492   5.002  0.4475  0.1371  0.4107
 3669TIP3    H132422   2.290   2.437   5.066 -2.2608 -1.0543  1.4573
 3669TIP3    H232423   2.238   2.578   5.045 -0.7570 -0.4702  1.5217
 3670TIP3   OH232424   6.724   1.453   2.187 -0.0392  0.8107 -0.9925
 3670TIP3    H132425   6.687   1.521   2.244 -0.0855 -0.3357  0.4070
 3670TIP3    H232426   6.658   1.442   2.118  0.0609  2.2936 -1.3642
 3671TIP3   OH232427   0.322   5.075  13.104 -0.9313 -0.2715 -0.1019
 3671TIP3    H132428   0.239   5.119  13.086 -0.2220  1.1465 -0.0787
 3671TIP3    H232429   0.373   5.139  13.153  0.1157 -1.1859  0.0537
 3672TIP3   OH232430   6.483   2.346   5.409 -0.5741  0.3301  0.3428
 3672TIP3    H132431   6.575   2.350   5.435  0.2277  1.2350 -2.3261
 3672TIP3    H232432   6.464   2.252   5.404  0.8895  0.0510 -1.0649
 3673TIP3   OH232433   4.508   4.672  14.847 -0.1212 -0.3300 -0.3416
 3673TIP3    H132434   4.590   4.624  14.858  0.6436  0.8086 -0.8734
 3673TIP3    H232435   4.535   4.758  14.813 -1.5624 -0.0909 -0.9618
 3674TIP3   OH232436   2.789   1.063  16.960 -0.2604 -0.1341  0.3148
 3674TIP3    H132437   2.743   1.052  16.877 -0.3305  0.1096  0.3206
 3674TIP3    H232438   2.873   1.102  16.937  1.3003 -3.3409 -0.0542
 3675TIP3   OH232439   1.920   5.804  15.051  0.2543  0.0851  0.3883
 3675TIP3    H132440   1.974   5.870  15.007 -0.8392  1.6822  1.3677
 3675TIP3    H232441   1.942   5.722  15.006  0.4513  1.3480 -1.9868
 3676TIP3   OH232442   5.090   2.286   4.549 -0.6928 -0.0991 -0.3770
 3676TIP3    H132443   5.077   2.214   4.488 -0.3172  0.6976 -1.4238
 3676TIP3    H232444   5.065   2.250   4.634  0.7883 -1.9001 -0.6373
 3677TIP3   OH232445   3.914   2.071   2.895 -0.1467 -0.3115 -0.0615
 3677TIP3    H132446   3.826   2.107   2.901 -0.8385 -2.0642  1.5159
 3677TIP3    H232447   3.963   2.113   2.965  0.8499  1.9182 -1.9739
 3678TIP3   OH232448   0.928   0.651   3.244 -0.8687 -0.0846  0.7696
 3678TIP3    H132449   0.927   0.739   3.207 -0.0421 -0.3769  0.0277
 3678TIP3    H232450   0.886   0.597   3.179  2.1715 -0.9204 -0.6968
 3679TIP3   OH232451   1.818   2.194   1.001  0.0687 -0.1345 -0.1042
 3679TIP3    H132452   1.840   2.285   1.017  0.3534 -0.2437  0.1374
 3679TIP3    H232453   1.762   2.169   1.074 -0.7748  0.1062 -0.6520
 3680TIP3   OH232454   5.681   5.515  17.011  0.3891  0.6110  0.3941
 3680TIP3    H132455   5.614   5.583  17.011  0.8947  1.2014 -1.7056
 3680TIP3    H232456   5.754   5.552  17.060  0.0037  0.8623  0.7788
 3681TIP3   OH232457   3.787   5.948  11.545  0.5582 -0.3963 -0.1876
 3681TIP3    H132458   3.777   6.044  11.549  0.0463 -0.4496 -0.2204
 3681TIP3    H232459   3.871   5.932  11.588  0.2248 -0.0132  0.6186
 3682TIP3   OH232460   2.393   4.236  15.549  0.0533 -0.0371 -0.2221
 3682TIP3    H132461   2.433   4.155  15.578  0.1816 -0.3588 -1.2675
 3682TIP3    H232462   2.305   4.235  15.587  0.4444 -0.1018  0.7176
 3683TIP3   OH232463   2.003   5.657  10.485 -0.5022 -0.2517 -0.0466
 3683TIP3    H132464   2.042   5.583  10.438 -0.1559  0.9114 -1.6725
 3683TIP3    H232465   2.077   5.713  10.508 -0.8190 -0.1042  0.6401
 3684TIP3   OH232466   5.614   4.043  16.745 -0.1575  0.2061 -0.0820
 3684TIP3    H132467   5.652   3.977  16.803  0.6669  0.2979 -0.4980
 3684TIP3    H232468   5.557   4.095  16.802 -0.3029 -0.4520  0.3853
 3685TIP3   OH232469   6.542   3.990  16.053 -0.6811  0.4970 -0.1489
 3685TIP3    H132470   6.449   3.969  16.058 -0.8438  1.4393  1.3337
 3685TIP3    H232471   6.545   4.086  16.053  0.2697  0.4793 -0.6707
 3686TIP3   OH232472   5.058   3.964   3.018 -0.3526  0.5797  0.1676
 3686TIP3    H132473   5.090   3.944   2.930 -1.4389 -1.7733  0.2345
 3686TIP3    H232474   5.136   3.990   3.066  0.7758 -0.8260 -0.7840
 3687TIP3   OH232475   0.734   4.546  11.004 -0.0245  0.1865 -0.0839
 3687TIP3    H132476   0.743   4.457  10.969 -0.3799  1.0721 -2.5885
 3687TIP3    H232477   0.811   4.592  10.972  0.2770  0.7518  1.3945
 3688TIP3   OH232478   0.884   2.471   5.256  0.0667 -0.5243 -0.3259
 3688TIP3    H132479   0.877   2.408   5.184 -0.9870 -1.2064  0.3574
 3688TIP3    H232480   0.833   2.547   5.228  0.5526 -0.3479 -0.7456
 3689TIP3   OH232481   5.764   1.945  14.852  0.4769  0.1887 -0.5062
 3689TIP3    H132482   5.679   1.967  14.815 -0.1172 -0.5744  0.3461
 3689TIP3    H232483   5.790   1.865  14.807  1.7312  1.5059 -2.2303
 3690TIP3   OH232484   0.081   1.435   4.287 -0.2010  0.0853  0.1739
 3690TIP3    H132485   0.041   1.351   4.264  0.0157  0.2463 -0.8299
 3690TIP3    H232486   0.072   1.489   4.208  2.6094 -0.0929 -0.3848
 3691TIP3   OH232487   4.249   4.613  15.168  0.3775 -0.2429  0.5709
 3691TIP3    H132488   4.194   4.687  15.145  0.6995 -0.6896 -1.9131
 3691TIP3    H232489   4.302   4.644  15.242  1.5844  2.5940 -1.3204
 3692TIP3   OH232490   0.044   0.575   5.329  0.3180 -0.2593  0.1152
 3692TIP3    H132491  -0.026   0.515   5.354  1.3569 -0.9605  1.5313
 3692TIP3    H232492   0.123   0.520   5.326  1.2778  0.9706  1.3061
 3693TIP3   OH232493   4.223   1.441  12.675 -0.6941  0.2373 -0.2892
 3693TIP3    H132494   4.197   1.366  12.728 -0.5165 -1.3069 -2.2912
 3693TIP3    H232495   4.145   1.497  12.674 -0.7924  0.1851  1.3135
 3694TIP3   OH232496   6.438   4.976  16.559 -0.2363  0.2206  0.7045
 3694TIP3    H132497   6.366   4.952  16.500  0.2993  1.9708 -0.7424
 3694TIP3    H232498   6.402   4.964  16.647 -1.9980  0.2126  0.0181
 3695TIP3   OH232499   3.987   1.794  14.727  0.5981  0.1537 -0.3883
 3695TIP3    H132500   4.071   1.776  14.770  1.0751  0.1472 -1.2850
 3695TIP3    H232501   3.921   1.780  14.795  1.2544 -0.8229  0.0694
 3696TIP3   OH232502   1.551   5.041   1.412 -0.5834  0.3236  0.2158
 3696TIP3    H132503   1.547   5.093   1.492 -0.5942 -2.1230  1.9133
 3696TIP3    H232504   1.485   4.973   1.424  2.2885 -2.7471  0.2234
 3697TIP3   OH232505   4.441   4.160  12.861 -0.5122 -0.0763 -0.0616
 3697TIP3    H132506   4.532   4.171  12.834  0.1355 -2.3688  0.9579
 3697TIP3    H232507   4.393   4.145  12.780  0.8560 -3.4769 -0.4256
 3698TIP3   OH232508   0.105   0.908  15.671  0.4367  0.0968  0.1796
 3698TIP3    H132509   0.156   0.894  15.751 -0.7185 -0.9452  0.7620
 3698TIP3    H232510   0.034   0.966  15.698 -1.2237 -1.9620  0.5071
 3699TIP3   OH232511   1.628   0.705   2.765  0.5313 -0.3548 -0.1466
 3699TIP3    H132512   1.723   0.699   2.769  0.5810  0.8990  2.4791
 3699TIP3    H232513   1.598   0.614   2.769  1.5675 -0.8009 -1.5576
 3700TIP3   OH232514   1.120   6.549   1.148 -0.2449  0.0598  0.1172
 3700TIP3    H132515   1.043   6.493   1.148 -0.1724 -0.0421 -0.2234
 3700TIP3    H232516   1.172   6.520   1.073 -0.0589  0.3804  0.1164
 3701TIP3   OH232517   2.151   2.119   5.095 -0.1300 -0.0154  0.4697
 3701TIP3    H132518   2.214   2.191   5.099  0.6300 -0.4417 -1.9927
 3701TIP3    H232519   2.184   2.054   5.157  1.4733  0.0862 -0.2362
 3702TIP3   OH232520   5.443   5.243  15.960 -0.2127  0.3335 -0.0310
 3702TIP3    H132521   5.466   5.281  16.045  0.3565  0.9262 -0.4441
 3702TIP3    H232522   5.465   5.150  15.969 -0.9386  0.2152  0.7435
 3703TIP3   OH232523   5.801   4.397   6.398 -0.6588 -0.0095  0.5058
 3703TIP3    H132524   5.830   4.391   6.489 -0.0743  1.8462  0.4873
 3703TIP3    H232525   5.707   4.379   6.401 -0.7154  0.3924  1.5343
 3704TIP3   OH232526   0.732   1.131   4.947  0.2209  0.0075 -0.3794
 3704TIP3    H132527   0.753   1.193   5.017 -0.6833  0.0896 -0.1717
 3704TIP3    H232528   0.815   1.086   4.930  0.2583 -0.7174  1.4405
 3705TIP3   OH232529   5.433   0.840  11.062  0.4929  0.5388  0.0947
 3705TIP3    H132530   5.497   0.878  11.001  0.1726 -0.6070 -1.0075
 3705TIP3    H232531   5.352   0.836  11.011 -0.2771  1.2753  1.2267
 3706TIP3   OH232532   1.654   2.299  12.133 -0.1980 -0.3738  0.0852
 3706TIP3    H132533   1.728   2.245  12.106 -1.9294 -2.0759 -1.6232
 3706TIP3    H232534   1.691   2.362  12.195  2.9729 -0.1018 -1.8221
 3707TIP3   OH232535   5.213   1.320   0.589  0.3858 -0.0852  0.0146
 3707TIP3    H132536   5.136   1.291   0.637  0.6058 -1.8197 -0.6220
 3707TIP3    H232537   5.284   1.319   0.654  0.6564 -2.2978 -0.2509
 3708TIP3   OH232538   3.989   5.724  14.058 -0.0383 -0.1279  0.1097
 3708TIP3    H132539   4.067   5.738  14.111 -0.0232 -0.0038  0.0535
 3708TIP3    H232540   3.925   5.786  14.093  0.2902  0.6779 -0.6882
 3709TIP3   OH232541   2.147   1.757   6.638  0.4906 -0.8675  0.3792
 3709TIP3    H132542   2.145   1.679   6.583  0.3278 -0.3423 -0.3844
 3709TIP3    H232543   2.216   1.739   6.702 -0.1762 -2.0044  0.8027
 3710TIP3   OH232544   1.884   4.448   4.584  0.1007 -0.5356 -0.2379
 3710TIP3    H132545   1.952   4.495   4.536 -0.4734  0.7707  0.1752
 3710TIP3    H232546   1.805   4.500   4.571  0.0980  0.4016  2.8000
 3711TIP3   OH232547   0.104   1.457   0.346 -0.1926  0.2677  0.1635
 3711TIP3    H132548   0.199   1.468   0.355 -0.1394 -0.9345  1.3919
 3711TIP3    H232549   0.079   1.408   0.424 -1.9150  1.0208  0.1175
 3712TIP3   OH232550   5.057   4.902   4.018  0.1193  0.0625  0.2806
 3712TIP3    H132551   5.021   4.988   4.043  1.7778  0.6216  0.8743
 3712TIP3    H232552   5.009   4.879   3.939 -0.4018  1.5331  0.1244
 3713TIP3   OH232553   6.038   3.384  17.204 -0.1356 -0.0794 -0.2653
 3713TIP3    H132554   6.132   3.383  17.217 -0.0311 -0.8152 -0.9667
 3713TIP3    H232555   6.013   3.291  17.204 -1.0219  0.1348  0.9671
 3714TIP3   OH232556   0.081   6.097  16.090  0.3912  0.0484  0.0783
 3714TIP3    H132557   0.091   6.161  16.019  2.8285 -1.0702 -0.7056
 3714TIP3    H232558  -0.007   6.063  16.078 -0.2193  1.7704 -0.7451
 3715TIP3   OH232559   5.753   6.700  11.536 -0.9640  0.1051 -0.6345
 3715TIP3    H132560   5.757   6.650  11.454  0.5284 -0.6440 -0.1222
 3715TIP3    H232561   5.812   6.774  11.522 -1.1076  0.2651 -0.4101
 3716TIP3   OH232562   1.527   4.959   6.593  0.4873  0.1423  0.3105
 3716TIP3    H132563   1.517   5.053   6.578  0.4531  0.4159  1.8373
 3716TIP3    H232564   1.621   4.943   6.585  0.5581  0.4180  0.5664
 3717TIP3   OH232565   1.674   1.209  12.717  0.0692 -0.5058  0.2184
 3717TIP3    H132566   1.754   1.218  12.770 -0.0121 -0.0409  0.2714
 3717TIP3    H232567   1.696   1.252  12.635 -0.6688  1.1549  0.8374
 3718TIP3   OH232568   4.560   1.715  13.912 -0.2176 -0.2791  1.2559
 3718TIP3    H132569   4.518   1.801  13.906  0.8974  0.2412  0.4408
 3718TIP3    H232570   4.506   1.659  13.857  1.2518  0.8931 -1.6066
 3719TIP3   OH232571   0.790   6.045  13.877  0.0656 -0.3567 -0.0804
 3719TIP3    H132572   0.810   6.079  13.789 -0.8020 -1.3594 -0.6928
 3719TIP3    H232573   0.845   5.967  13.886 -0.2523 -0.5688  0.0371
 3720TIP3   OH232574   3.223   5.751   5.001  0.2083 -0.2879 -0.2661
 3720TIP3    H132575   3.267   5.777   4.920  1.5240  0.7098  0.7155
 3720TIP3    H232576   3.282   5.780   5.070 -0.5532 -1.7524  1.0449
 3721TIP3   OH232577   5.573   3.569   1.009 -0.4349 -0.3280  0.1308
 3721TIP3    H132578   5.557   3.530   1.095  0.7761 -2.8765 -0.7004
 3721TIP3    H232579   5.489   3.562   0.964 -0.9141  0.4548  0.8754
 3722TIP3   OH232580   5.896   0.753  13.021 -0.6090  0.0597 -0.6810
 3722TIP3    H132581   5.889   0.789  13.109 -0.3769 -0.7252 -0.3380
 3722TIP3    H232582   5.948   0.818  12.973  0.3273 -0.0898  0.0944
 3723TIP3   OH232583   5.336   2.117  15.583  0.9596 -0.5408 -0.4336
 3723TIP3    H132584   5.398   2.093  15.652  0.3069  0.6266  0.5993
 3723TIP3    H232585   5.288   2.037  15.565  2.5055 -1.3811 -1.0112
 3724TIP3   OH232586   6.736   3.030   6.259  0.7451  0.1123  0.0249
 3724TIP3    H132587   6.684   3.102   6.223 -0.3519 -0.9224 -0.5734
 3724TIP3    H232588   6.672   2.975   6.304  1.0250 -1.8834 -1.8169
 3725TIP3   OH232589   0.018   2.884   1.949 -0.1143 -0.0868  0.0426
 3725TIP3    H132590   0.068   2.825   2.005  0.4479  0.2492 -0.0957
 3725TIP3    H232591  -0.073   2.853   1.955  0.2351 -1.2288 -0.3622
 3726TIP3   OH232592   0.364   2.259   0.220 -0.1812  0.5381 -0.4210
 3726TIP3    H132593   0.315   2.180   0.244  0.6122  0.5781  1.4529
 3726TIP3    H232594   0.348   2.320   0.292 -0.4273  1.9679 -1.6249
 3727TIP3   OH232595   1.368   3.401   0.012 -0.2681  0.2433 -0.1480
 3727TIP3    H132596   1.348   3.316  -0.026 -0.2440  0.4615 -0.6587
 3727TIP3    H232597   1.312   3.462  -0.036 -1.0485  0.3880  0.9099
 3728TIP3   OH232598   2.903   4.420  14.510 -0.3761 -0.5689 -0.2160
 3728TIP3    H132599   2.883   4.353  14.445 -0.4587  0.0910 -0.8779
 3728TIP3    H232600   2.993   4.447  14.490 -1.1005  1.1018 -1.3846
 3729TIP3   OH232601   0.011   1.869   6.005 -0.0236 -0.4156  0.5872
 3729TIP3    H132602  -0.009   1.777   5.988  0.2007 -0.4266  0.3848
 3729TIP3    H232603   0.105   1.876   5.993  0.1214 -0.3751  1.5936
 3730TIP3   OH232604   2.208   0.957  12.461  0.3317  0.1455 -0.1475
 3730TIP3    H132605   2.115   0.973  12.446  0.4932  2.0043  0.5719
 3730TIP3    H232606   2.231   0.888  12.399 -1.0043  1.2419 -1.9542
 3731TIP3   OH232607   4.606   3.117  13.972 -0.1355  0.2303 -0.1732
 3731TIP3    H132608   4.642   3.192  14.019 -0.5722  0.2669  0.1093
 3731TIP3    H232609   4.682   3.062  13.952  0.1305  0.5360 -0.0011
 3732TIP3   OH232610   0.709   4.896   3.794  0.3108 -0.1929  0.1668
 3732TIP3    H132611   0.802   4.877   3.783  0.4295  0.7201 -0.5098
 3732TIP3    H232612   0.666   4.811   3.784  0.9176 -0.3408 -1.5536
 3733TIP3   OH232613   2.018   3.828   1.645 -0.1851 -0.2178  0.2955
 3733TIP3    H132614   2.066   3.895   1.693 -0.2082 -0.1439  0.2157
 3733TIP3    H232615   2.049   3.745   1.681 -0.9063 -0.1451  1.1191
 3734TIP3   OH232616   2.243   2.686   3.552 -0.3065 -0.0981 -0.0753
 3734TIP3    H132617   2.287   2.725   3.628  2.6047 -1.3779 -1.0003
 3734TIP3    H232618   2.232   2.594   3.576  0.6771 -0.5188 -1.2077
 3735TIP3   OH232619   0.588   3.436   3.819  0.7565 -0.0774  0.1029
 3735TIP3    H132620   0.590   3.423   3.724  0.1877  1.7619 -0.2144
 3735TIP3    H232621   0.601   3.531   3.830  1.4257 -0.3396  1.8995
 3736TIP3   OH232622   1.004   5.817   0.727 -0.2507 -0.1233  0.4174
 3736TIP3    H132623   0.989   5.781   0.639 -1.3342 -1.1972  1.0102
 3736TIP3    H232624   1.024   5.910   0.712 -2.4975  0.2414 -0.8692
 3737TIP3   OH232625   4.697   3.302   5.108 -0.2037 -0.5196  0.0773
 3737TIP3    H132626   4.652   3.223   5.077 -2.1766  1.1250 -1.5422
 3737TIP3    H232627   4.700   3.292   5.203 -3.8468 -0.9542  0.2979
 3738TIP3   OH232628   1.279   4.312   0.139  0.0341  0.1726 -0.0522
 3738TIP3    H132629   1.210   4.372   0.112 -0.6907 -0.9930 -0.8678
 3738TIP3    H232630   1.264   4.299   0.233  0.2170  1.2573  0.1402
 3739TIP3   OH232631   4.856   5.470   0.171  0.5387 -0.5515 -0.1760
 3739TIP3    H132632   4.824   5.549   0.214  1.5060 -1.0151  1.4557
 3739TIP3    H232633   4.944   5.457   0.205  0.5473 -2.1188 -0.6968
 3740TIP3   OH232634   1.256   5.929   0.548 -0.1834 -0.5498 -0.6929
 3740TIP3    H132635   1.171   5.968   0.565 -0.2282 -0.3088 -1.4503
 3740TIP3    H232636   1.319   5.995   0.578 -0.2616 -0.1074 -1.4692
 3741TIP3   OH232637   6.346   1.600  16.230  0.3748 -0.0190  0.4280
 3741TIP3    H132638   6.352   1.622  16.323  0.3697 -1.1160  0.7019
 3741TIP3    H232639   6.389   1.515  16.223 -3.9614 -2.5228  0.3794
 3742TIP3   OH232640   5.845   6.440  17.167  0.0434  0.1124  0.0969
 3742TIP3    H132641   5.762   6.487  17.157 -0.9365 -1.2911  1.1698
 3742TIP3    H232642   5.839   6.399  17.253  0.9542 -1.7412 -0.6690
 3743TIP3   OH232643   5.470   0.367   6.404  0.1868  0.7518  0.0498
 3743TIP3    H132644   5.380   0.360   6.373  0.9195  0.7655 -2.2188
 3743TIP3    H232645   5.518   0.301   6.355  1.5527  1.1927  0.7393
 3744TIP3   OH232646   3.377   2.177   2.411  0.4107 -0.1432 -0.2706
 3744TIP3    H132647   3.300   2.222   2.445  0.0889 -1.5164  0.8906
 3744TIP3    H232648   3.448   2.202   2.471  0.8044  0.8148 -1.1143
 3745TIP3   OH232649   6.422   3.466  11.455 -0.1537  0.4974  0.0233
 3745TIP3    H132650   6.348   3.407  11.468 -0.2539  0.7553  0.7115
 3745TIP3    H232651   6.416   3.527  11.529  0.2207  1.0711 -0.4147
 3746TIP3   OH232652   1.559   4.084  13.770  0.4683  0.5347  0.2035
 3746TIP3    H132653   1.515   4.154  13.818  1.4976  1.7162 -0.5067
 3746TIP3    H232654   1.490   4.022  13.748 -0.8522  2.2705 -0.7855
 3747TIP3   OH232655   3.221   3.191  13.911  0.2534  0.6889 -0.0016
 3747TIP3    H132656   3.197   3.275  13.872  0.5717  1.8254  2.0912
 3747TIP3    H232657   3.271   3.146  13.843  1.4669  2.8753 -0.6618
 3748TIP3   OH232658   5.897   4.475   6.157 -0.2524 -0.0208  0.1619
 3748TIP3    H132659   5.985   4.513   6.167 -0.7736  1.0139  1.0848
 3748TIP3    H232660   5.888   4.415   6.230 -0.1052 -0.5673 -0.2644
 3749TIP3   OH232661   3.239   1.155  13.929  0.0288 -0.0666  0.2061
 3749TIP3    H132662   3.189   1.103  13.992 -0.3617 -0.0772 -0.1138
 3749TIP3    H232663   3.173   1.201  13.877  0.3723  1.7940  1.3343
 3750TIP3   OH232664   3.070   0.328  13.165  0.2628 -0.3698 -0.2839
 3750TIP3    H132665   3.040   0.341  13.255  2.3927  2.5453  0.1360
 3750TIP3    H232666   3.028   0.399  13.115  0.4496 -0.9023 -1.2239
 3751TIP3   OH232667   6.145   3.891  14.606 -0.8356 -0.1484 -0.2895
 3751TIP3    H132668   6.175   3.873  14.695 -0.7964  2.0680  0.2020
 3751TIP3    H232669   6.175   3.816  14.555 -0.6321 -1.3415  1.4989
 3752TIP3   OH232670   5.740   2.894  13.386  0.1243 -0.6181 -0.1954
 3752TIP3    H132671   5.666   2.861  13.437  0.8166 -1.2542  0.4064
 3752TIP3    H232672   5.748   2.986  13.413 -1.2572 -0.1465 -1.2383
 3753TIP3   OH232673   1.328   5.496   3.681 -0.0101 -0.4177 -0.3383
 3753TIP3    H132674   1.342   5.425   3.743  0.2494 -0.4008 -0.3763
 3753TIP3    H232675   1.414   5.538   3.671 -0.2480  0.1727  0.0177
 3754TIP3   OH232676   2.205   4.035  11.904 -0.4357 -0.4728  0.5842
 3754TIP3    H132677   2.122   4.040  11.952 -0.0735 -1.3991  1.3454
 3754TIP3    H232678   2.261   4.099  11.949 -0.1320 -1.2592  1.3612
 3755TIP3   OH232679   2.175   4.126   2.823 -0.1078 -0.6346 -0.6879
 3755TIP3    H132680   2.096   4.123   2.877  1.3162  1.0942  1.7095
 3755TIP3    H232681   2.212   4.038   2.830 -1.1357 -1.0904 -0.7614
 3756TIP3   OH232682   0.392   0.514  12.429 -0.2962  0.7954  0.6251
 3756TIP3    H132683   0.455   0.512  12.358 -0.7484 -0.1532  0.2252
 3756TIP3    H232684   0.443   0.537  12.506  0.2756  1.4257  0.0681
 3757TIP3   OH232685   1.864   4.801  11.512  0.0431  0.9095  0.2839
 3757TIP3    H132686   1.832   4.797  11.422  0.4326  1.7179  0.0974
 3757TIP3    H232687   1.845   4.714  11.548  1.0724  0.1246 -0.9770
 3758TIP3   OH232688   6.172   3.682  13.792  0.4244  0.4659 -0.7089
 3758TIP3    H132689   6.159   3.599  13.748  1.1586  0.3692 -0.7457
 3758TIP3    H232690   6.245   3.667  13.852 -0.2140  0.7417  0.1574
 3759TIP3   OH232691   3.160   4.783   6.192 -0.4741  0.1898  0.4295
 3759TIP3    H132692   3.216   4.861   6.195  0.0328 -0.0680 -1.3493
 3759TIP3    H232693   3.216   4.712   6.222  0.6052 -0.2590 -2.3263
 3760TIP3   OH232694   6.165   4.866   3.535  0.0304  0.1501 -0.4553
 3760TIP3    H132695   6.124   4.883   3.450 -0.1535 -0.3989 -0.4830
 3760TIP3    H232696   6.103   4.900   3.599  0.4188  1.0608 -0.5506
 3761TIP3   OH232697   5.081   5.475  12.131 -0.4688 -0.2673  0.2638
 3761TIP3    H132698   5.164   5.466  12.179 -1.0577 -0.4246  1.2759
 3761TIP3    H232699   5.055   5.566  12.146 -0.8674 -0.4369  0.5816
 3762TIP3   OH232700   1.421   4.578   3.952 -0.3963  0.4377  0.1169
 3762TIP3    H132701   1.496   4.540   3.906  0.4777  1.3606  0.7519
 3762TIP3    H232702   1.430   4.547   4.042 -0.4557  1.0133  0.3239
 3763TIP3   OH232703   1.745   3.026  15.283 -0.0227 -0.5182  0.0225
 3763TIP3    H132704   1.838   3.010  15.266  0.1982 -0.7665  1.3672
 3763TIP3    H232705   1.701   2.949  15.247  0.3041 -0.4668 -0.4979
 3764TIP3   OH232706   2.892   2.878  16.222 -0.1357 -0.4698 -0.0484
 3764TIP3    H132707   2.866   2.834  16.303  3.5609 -0.8972  1.0704
 3764TIP3    H232708   2.883   2.811  16.155  0.1871 -1.2348  0.6566
 3765TIP3   OH232709   1.608   5.043  12.634  0.2684 -0.2238 -0.0201
 3765TIP3    H132710   1.674   4.974  12.627 -1.2086 -1.6142 -1.3549
 3765TIP3    H232711   1.641   5.102  12.701  1.4563 -2.4230  1.4484
 3766TIP3   OH232712   0.913   0.792   4.273 -0.2740 -0.2652  0.2806
 3766TIP3    H132713   0.918   0.868   4.331 -1.5341 -0.3065  0.4778
 3766TIP3    H232714   0.833   0.746   4.301  0.4087 -1.6157  0.1153
 3767TIP3   OH232715   5.267   4.080  11.406  1.1076  1.0346 -0.1560
 3767TIP3    H132716   5.352   4.041  11.385 -0.1479 -1.0407 -1.8028
 3767TIP3    H232717   5.278   4.173  11.385  2.8851  0.7610 -0.6234
 3768TIP3   OH232718   2.721   4.856  10.807  0.1384  0.8807 -0.7597
 3768TIP3    H132719   2.740   4.925  10.743  0.4106  0.6008 -0.9838
 3768TIP3    H232720   2.742   4.774  10.762 -1.9918  0.5095 -1.1787
 3769TIP3   OH232721   2.182   5.694  12.856  0.3726 -0.3257 -0.1707
 3769TIP3    H132722   2.215   5.655  12.936  1.1578 -0.2063 -0.4251
 3769TIP3    H232723   2.134   5.623  12.812  0.1477 -0.4552  0.2813
 3770TIP3   OH232724   3.650   6.107  17.006  0.0780  0.1806 -0.2344
 3770TIP3    H132725   3.732   6.128  16.960  0.4681 -0.3073  0.2331
 3770TIP3    H232726   3.602   6.051  16.945  0.0427  0.5490 -0.5488
 3771TIP3   OH232727   3.370   3.901   1.122 -0.0235  0.2299  0.3326
 3771TIP3    H132728   3.438   3.844   1.086  0.6007  1.6646 -0.8645
 3771TIP3    H232729   3.370   3.884   1.216  1.6045 -0.2034  0.2684
 3772TIP3   OH232730   0.088   1.612   6.222 -0.0655  0.2575  0.0911
 3772TIP3    H132731   0.057   1.567   6.144  0.2215  0.3336 -0.0690
 3772TIP3    H232732   0.181   1.628   6.205 -0.0788  0.5697  0.3068
 3773TIP3   OH232733   4.553   2.605  14.800 -0.2163  0.2930 -0.0857
 3773TIP3    H132734   4.585   2.691  14.827 -0.9736  0.9816 -1.2696
 3773TIP3    H232735   4.506   2.573  14.877  1.9200 -0.0829  1.1458
 3774TIP3   OH232736   6.050   0.632   1.836  0.5426  0.2489 -0.5533
 3774TIP3    H132737   6.134   0.593   1.814  1.1757  1.5721 -0.5538
 3774TIP3    H232738   6.072   0.710   1.887 -0.7129  0.2233  0.0709
 3775TIP3   OH232739   6.647   4.860   3.208  0.2582 -0.0846 -0.2022
 3775TIP3    H132740   6.712   4.795   3.180 -1.3693 -1.1709 -1.7004
 3775TIP3    H232741   6.667   4.938   3.156 -0.1122 -0.6890 -1.2928
 3776TIP3   OH232742   1.409   2.703  12.057 -0.1020  0.0924  0.1529
 3776TIP3    H132743   1.399   2.744  12.143 -1.1685  0.6333 -0.2108
 3776TIP3    H232744   1.324   2.662  12.040 -0.8715  2.2599 -1.7721
 3777TIP3   OH232745   3.421   1.477   5.393 -0.0927  0.0835 -0.6243
 3777TIP3    H132746   3.399   1.445   5.481 -0.7310  0.4346 -0.6451
 3777TIP3    H232747   3.440   1.398   5.343 -0.3872 -0.1734 -0.3393
 3778TIP3   OH232748   1.478   1.342   1.705 -0.5598 -0.1732 -0.1230
 3778TIP3    H132749   1.501   1.431   1.732 -1.2774  0.0899 -0.3507
 3778TIP3    H232750   1.391   1.328   1.743  0.0492 -1.2404  0.9449
 3779TIP3   OH232751   0.861   5.763  12.805 -0.5673 -0.5559  0.0325
 3779TIP3    H132752   0.864   5.687  12.863 -2.9718 -0.2621  0.6290
 3779TIP3    H232753   0.873   5.838  12.863 -0.4119 -0.3793 -0.2273
 3780TIP3   OH232754   6.384   4.319   4.463 -0.7713 -0.0251 -0.1443
 3780TIP3    H132755   6.478   4.337   4.458 -0.8201  0.1241 -0.6279
 3780TIP3    H232756   6.359   4.300   4.372 -0.9858 -1.2201  0.1559
 3781TIP3   OH232757   1.807   0.564   0.452  0.3804  0.1222 -0.1551
 3781TIP3    H132758   1.881   0.512   0.483 -0.1453  0.2521  1.4288
 3781TIP3    H232759   1.818   0.649   0.494  0.2424  0.6922 -1.2563
 3782TIP3   OH232760   3.010   3.517  14.401 -0.4938  0.4102 -0.5154
 3782TIP3    H132761   2.939   3.580  14.407  0.1675  1.2182 -1.0159
 3782TIP3    H232762   3.085   3.562  14.440 -0.2119 -0.3701 -0.1372
 3783TIP3   OH232763   4.738   0.329  10.304 -0.2575 -0.0379  0.7431
 3783TIP3    H132764   4.667   0.279  10.344  0.5953  0.7965  3.5190
 3783TIP3    H232765   4.753   0.402  10.365  1.9033  0.7058 -0.5817
 3784TIP3   OH232766   6.480   2.306   0.667 -0.3778 -0.2072 -0.1489
 3784TIP3    H132767   6.393   2.345   0.667  0.3693  1.5715  0.1126
 3784TIP3    H232768   6.540   2.381   0.660  1.1878 -1.1864  1.5761
 3785TIP3   OH232769   6.643   6.664  11.472  0.1886 -0.1805 -0.3885
 3785TIP3    H132770   6.586   6.618  11.533 -1.0911  1.5306 -0.2018
 3785TIP3    H232771   6.654   6.751  11.511  2.1632 -0.1505 -0.9115
 3786TIP3   OH232772   4.336   2.162   4.205 -0.4073 -0.2649  0.4200
 3786TIP3    H132773   4.417   2.140   4.160 -0.0025 -0.1521  1.0851
 3786TIP3    H232774   4.341   2.117   4.289 -1.2234 -0.5982  0.3058
 3787TIP3   OH232775   0.819   0.368  11.611  0.0181  0.0198 -0.1933
 3787TIP3    H132776   0.729   0.344  11.634  0.4090  0.0125  1.4691
 3787TIP3    H232777   0.839   0.442  11.668  1.0874 -0.0317 -0.4932
 3788TIP3   OH232778   6.336   0.319  12.610 -0.4794  0.2097 -0.3728
 3788TIP3    H132779   6.306   0.288  12.524 -1.8886 -1.8161  0.7746
 3788TIP3    H232780   6.430   0.332  12.598 -0.8807  1.7047 -2.6651
 3789TIP3   OH232781   4.899   5.398  14.174  0.2292 -0.0776 -0.2168
 3789TIP3    H132782   4.880   5.492  14.166  1.1038  0.0381 -1.1610
 3789TIP3    H232783   4.995   5.393  14.170  0.2753 -0.9032  1.2194
 3790TIP3   OH232784   1.903   4.822   5.202  0.6653  0.0294 -0.0663
 3790TIP3    H132785   1.818   4.845   5.240  1.0850 -0.6191  1.3629
 3790TIP3    H232786   1.905   4.726   5.205  0.8787 -0.0193 -1.4115
 3791TIP3   OH232787   4.235   6.076  13.203  0.3141  0.0257  0.1945
 3791TIP3    H132788   4.185   6.117  13.133  0.6999 -0.3570 -0.3112
 3791TIP3    H232789   4.219   6.131  13.280 -0.1163  0.4421 -0.1906
 3792TIP3   OH232790   4.280   4.943   5.043  0.1728 -0.0102 -0.1938
 3792TIP3    H132791   4.327   4.905   5.118  0.0356  0.4191  0.1190
 3792TIP3    H232792   4.189   4.915   5.056  0.1522  0.0503 -0.2072
 3793TIP3   OH232793   5.565   1.233   3.736  0.9066  0.3956 -0.6617
 3793TIP3    H132794   5.530   1.228   3.647  0.3090  0.9679 -0.4666
 3793TIP3    H232795   5.653   1.269   3.725  0.9980  0.0627 -1.0553
 3794TIP3   OH232796   2.372   3.832   2.941 -0.4317  0.3424  0.1211
 3794TIP3    H132797   2.405   3.842   2.852  1.6078  0.8339  0.8734
 3794TIP3    H232798   2.370   3.738   2.956  0.7086  0.2883  0.0363
 3795TIP3   OH232799   1.694   4.485  16.309  0.3935  0.1701  0.3844
 3795TIP3    H132800   1.730   4.569  16.335 -1.5829  0.9133  0.8885
 3795TIP3    H232801   1.632   4.505  16.239  1.9627 -1.2433 -1.5265
 3796TIP3   OH232802   3.174   3.430  13.794 -0.0662  0.0863  0.2672
 3796TIP3    H132803   3.087   3.468  13.780  0.4241  0.7143 -1.3514
 3796TIP3    H232804   3.233   3.506  13.797  0.7060 -0.4092 -1.1585
 3797TIP3   OH232805   6.283   6.009   3.305 -0.2621 -0.1844 -0.5180
 3797TIP3    H132806   6.298   5.962   3.387 -2.3851 -1.0064 -0.5365
 3797TIP3    H232807   6.298   6.101   3.326  0.2628 -0.4963  0.5087
 3798TIP3   OH232808   5.628   5.085  13.783 -0.2628 -0.2422  0.3224
 3798TIP3    H132809   5.631   5.119  13.873 -0.1144 -0.2021  0.3028
 3798TIP3    H232810   5.535   5.069  13.766 -0.2134 -1.2218  0.8519
 3799TIP3   OH232811   6.630   5.469  14.269  0.2841  0.0152  0.1502
 3799TIP3    H132812   6.610   5.508  14.354 -0.1575 -0.6445  0.3592
 3799TIP3    H232813   6.719   5.434  14.278  0.0834 -0.4150  0.4802
 3800TIP3   OH232814   5.601   0.457  11.842  0.1353 -0.3537 -0.8632
 3800TIP3    H132815   5.524   0.457  11.898 -0.3111 -0.2953 -1.4718
 3800TIP3    H232816   5.624   0.364  11.832  0.5566 -0.3404 -0.1390
 3801TIP3   OH232817   3.649   5.155   3.281 -0.3490  0.4534 -0.3136
 3801TIP3    H132818   3.742   5.162   3.260  0.0178 -1.0590  0.6853
 3801TIP3    H232819   3.619   5.246   3.286  0.8785  0.9525 -1.4183
 3802TIP3   OH232820   6.773   3.734   2.437 -0.0656  0.4603 -0.7298
 3802TIP3    H132821   6.689   3.698   2.465  1.5835 -2.2990  1.1642
 3802TIP3    H232822   6.778   3.715   2.343 -0.7738 -1.0969 -0.4803
 3803TIP3   OH232823   6.616   1.529  12.373  0.2161  1.0837 -0.2689
 3803TIP3    H132824   6.528   1.560  12.349  0.3262  1.9257  0.3722
 3803TIP3    H232825   6.653   1.498  12.290 -0.5913  0.9616 -0.5946
 3804TIP3   OH232826   4.020   0.814   5.044 -0.5763 -0.2738 -0.0366
 3804TIP3    H132827   4.031   0.849   4.955 -0.6827 -0.3078 -0.0629
 3804TIP3    H232828   4.078   0.868   5.098 -0.6524 -0.1312 -0.0972
 3805TIP3   OH232829   2.997   0.606  16.219  0.4328  0.0679  0.0382
 3805TIP3    H132830   3.068   0.601  16.155  1.3452  0.4524  0.9829
 3805TIP3    H232831   2.917   0.594  16.168  1.2310 -1.6859 -0.8759
 3806TIP3   OH232832   3.877   3.515  15.768  0.1751 -0.1189  0.1161
 3806TIP3    H132833   3.836   3.588  15.721  1.3366  0.6440  0.2424
 3806TIP3    H232834   3.816   3.442  15.757 -1.1799  0.9492  0.2474
 3807TIP3   OH232835   0.605   2.120   0.459 -0.1128 -0.3990  0.0525
 3807TIP3    H132836   0.615   2.071   0.541 -0.2491 -0.5877 -0.0421
 3807TIP3    H232837   0.536   2.074   0.412  1.7090 -1.8556 -1.3269
 3808TIP3   OH232838   3.187   6.101  15.020  0.4845 -0.5716 -0.1487
 3808TIP3    H132839   3.240   6.058  14.953  0.0031 -2.5192  0.6512
 3808TIP3    H232840   3.247   6.114  15.094  0.8192  0.8776 -0.6454
 3809TIP3   OH232841   4.721   6.717  11.046 -0.1469  0.1227 -0.1607
 3809TIP3    H132842   4.766   6.694  10.965 -1.2206 -1.8012 -0.2758
 3809TIP3    H232843   4.645   6.658  11.048 -0.7468  0.9037  1.6955
 3810TIP3   OH232844   3.362   6.162   4.683  0.2160  0.5266  0.4572
 3810TIP3    H132845   3.381   6.127   4.595 -2.3753  1.1461 -0.4292
 3810TIP3    H232846   3.449   6.175   4.722  1.4266 -1.3247 -1.3554
 3811TIP3   OH232847   6.118   2.235   2.400  0.0044  0.2602 -0.1060
 3811TIP3    H132848   6.037   2.188   2.421  0.2847 -0.9184 -1.4977
 3811TIP3    H232849   6.139   2.284   2.480 -1.2234 -0.6478  0.8101
 3812TIP3   OH232850   0.198   5.272   5.953 -0.1263 -0.1370 -0.5240
 3812TIP3    H132851   0.166   5.201   6.008  0.7810 -1.7564 -1.9934
 3812TIP3    H232852   0.127   5.290   5.892  0.2299 -0.9305 -1.1882
 3813TIP3   OH232853   0.105   4.838   4.208 -0.4523  0.1371  0.1835
 3813TIP3    H132854   0.096   4.902   4.279 -0.3446 -0.8606  1.1046
 3813TIP3    H232855   0.188   4.860   4.166 -0.5423  0.7642  0.3192
 3814TIP3   OH232856   5.251   3.489  14.514 -0.3194 -0.0474  0.2331
 3814TIP3    H132857   5.333   3.440  14.515 -0.0007  0.3868 -1.3221
 3814TIP3    H232858   5.260   3.554  14.584  0.1619 -0.7499  0.8415
 3815TIP3   OH232859   0.604   6.753   0.245 -0.2302 -0.0226 -0.3479
 3815TIP3    H132860   0.523   6.701   0.243 -0.1785 -0.0822 -0.9420
 3815TIP3    H232861   0.590   6.815   0.316  0.3046 -1.8329  1.4295
 3816TIP3   OH232862   0.123   5.859  13.024  0.0559  0.7378  0.1496
 3816TIP3    H132863   0.049   5.804  13.000 -0.7685  0.8326  2.2351
 3816TIP3    H232864   0.168   5.877  12.942 -1.9342  0.2587 -1.1044
 3817TIP3   OH232865   3.525   2.083   1.848  0.0617  0.6112 -0.0243
 3817TIP3    H132866   3.493   2.084   1.938  0.9113 -2.3469  0.4150
 3817TIP3    H232867   3.619   2.067   1.856  0.7257  3.2539 -1.4407
 3818TIP3   OH232868   2.791   1.826  16.985  0.5765  0.3850 -0.0287
 3818TIP3    H132869   2.861   1.889  16.971  1.0960  0.6900  3.1087
 3818TIP3    H232870   2.834   1.741  16.983  0.6809  0.4381  0.0006
 3819TIP3   OH232871   2.528   6.582   0.778  0.2999 -0.6203 -0.6268
 3819TIP3    H132872   2.532   6.626   0.693 -0.3233 -0.0704 -0.3755
 3819TIP3    H232873   2.451   6.619   0.821 -1.3450 -3.2028 -1.1097
 3820TIP3   OH232874   4.483   1.129  14.379  0.1294  0.4234  0.0290
 3820TIP3    H132875   4.518   1.217  14.368 -0.1317  0.3688 -1.6448
 3820TIP3    H232876   4.547   1.083  14.433 -0.5495  2.0706  2.3845
 3821TIP3   OH232877   4.607   0.128  11.802  0.1153 -0.3159 -0.1280
 3821TIP3    H132878   4.654   0.179  11.868 -1.5533 -0.5674  1.3109
 3821TIP3    H232879   4.655   0.145  11.720  2.1563  0.1096  1.0837
 3822TIP3   OH232880   5.481   5.307  11.501  0.2607  0.7586 -0.2292
 3822TIP3    H132881   5.482   5.245  11.573  0.6870  2.6364  1.4617
 3822TIP3    H232882   5.391   5.339  11.499  0.6891  2.1212  0.7994
 3823TIP3   OH232883   2.390   3.203   2.450 -0.2830  0.2084  0.0586
 3823TIP3    H132884   2.359   3.292   2.468  1.1038  0.3935  1.8885
 3823TIP3    H232885   2.320   3.146   2.482 -0.5855  0.6417  0.1739
 3824TIP3   OH232886   4.583   2.283  12.184  0.4253  0.0841  0.1178
 3824TIP3    H132887   4.587   2.370  12.144  0.8809  1.2523  2.5355
 3824TIP3    H232888   4.656   2.236  12.145 -1.0182 -0.0124 -2.7731
 3825TIP3   OH232889   6.491   5.109   2.928 -0.1292  0.1718  0.0293
 3825TIP3    H132890   6.486   5.197   2.891  0.4069 -0.4513 -1.5966
 3825TIP3    H232891   6.565   5.113   2.989  0.3448  0.6762 -0.5619
 3826TIP3   OH232892   3.371   1.076  12.881  0.1752  0.1543 -0.4035
 3826TIP3    H132893   3.290   1.121  12.859 -0.1162  0.5844  1.3571
 3826TIP3    H232894   3.351   0.983  12.868 -0.8047  0.2132  0.4945
 3827TIP3   OH232895   4.104   6.760  13.916 -0.2767  0.2162 -0.4166
 3827TIP3    H132896   4.149   6.812  13.849 -0.0551  0.1472 -0.3222
 3827TIP3    H232897   4.171   6.702  13.950 -0.5321 -0.1584 -0.5435
 3828TIP3   OH232898   3.374   1.229   0.979  0.2706  0.2239 -0.6065
 3828TIP3    H132899   3.334   1.244   1.065 -0.3269  1.5138 -1.0836
 3828TIP3    H232900   3.341   1.144   0.952 -1.2562  0.7395 -0.4678
 3829TIP3   OH232901   1.868   1.512   4.928 -0.8428 -0.2571  0.2041
 3829TIP3    H132902   1.940   1.460   4.890 -0.5620 -1.3728  2.1507
 3829TIP3    H232903   1.897   1.603   4.918  0.0779 -0.6011 -0.5040
 3830TIP3   OH232904   6.318   6.122  14.579  0.4620 -0.1349 -0.0228
 3830TIP3    H132905   6.284   6.127  14.668  0.8903  1.0969  0.0885
 3830TIP3    H232906   6.275   6.194  14.533  0.8026 -0.3080 -0.6224
 3831TIP3   OH232907   5.264   5.948   0.395  0.2366 -0.3363  0.2367
 3831TIP3    H132908   5.314   5.950   0.476 -0.9387  0.0394  0.9727
 3831TIP3    H232909   5.209   6.026   0.398 -0.1146 -0.5239 -0.7318
 3832TIP3   OH232910   4.429   3.745   0.710  0.3950 -0.4011 -0.3042
 3832TIP3    H132911   4.493   3.709   0.773 -0.6991 -0.9180  0.5473
 3832TIP3    H232912   4.349   3.694   0.726 -1.0647  2.0092  0.5402
 3833TIP3   OH232913   4.292   0.332  12.805 -0.3370  0.0778  0.2721
 3833TIP3    H132914   4.229   0.263  12.782 -0.7092  0.6578 -0.4788
 3833TIP3    H232915   4.338   0.351  12.723 -0.1058  0.5982  0.5182
 3834TIP3   OH232916   1.856   3.681   1.940  0.3747  0.3957 -0.0244
 3834TIP3    H132917   1.837   3.767   1.903 -2.0221  0.4899  1.1997
 3834TIP3    H232918   1.878   3.699   2.032  1.2744 -0.2117 -0.1069
 3835TIP3   OH232919   6.179   4.868   5.759  0.3201  0.5472  0.2501
 3835TIP3    H132920   6.094   4.835   5.730  0.5587  0.6576 -0.6123
 3835TIP3    H232921   6.203   4.813   5.833 -0.3355  0.2803  0.2696
 3836TIP3   OH232922   2.381   0.198  14.051 -0.1479 -0.2090  0.1418
 3836TIP3    H132923   2.336   0.151  14.121  0.4622  0.9737  1.3882
 3836TIP3    H232924   2.319   0.266  14.024 -0.0143 -0.0454  0.2389
 3837TIP3   OH232925   0.780   5.254   0.284 -0.2933  0.2500  0.0908
 3837TIP3    H132926   0.729   5.334   0.300  0.8440  1.0145 -0.0332
 3837TIP3    H232927   0.739   5.215   0.206  1.0629  2.3943 -1.8090
 3838TIP3   OH232928   4.492   5.270  13.608 -0.5436  0.6184  0.6687
 3838TIP3    H132929   4.458   5.327  13.677  1.5125  0.6491  1.7485
 3838TIP3    H232930   4.514   5.188  13.654 -0.9086 -0.0597 -0.3347
 3839TIP3   OH232931   3.169   2.360   3.368  0.0211  0.0821  0.4858
 3839TIP3    H132932   3.157   2.455   3.366 -0.1484  0.1003  1.8182
 3839TIP3    H232933   3.084   2.326   3.397 -1.0243 -0.7422 -2.9836
 3840TIP3   OH232934   1.694   1.560   1.832  0.0705  0.1132 -0.6480
 3840TIP3    H132935   1.711   1.487   1.773 -0.6947  0.4123 -1.2591
 3840TIP3    H232936   1.670   1.633   1.775 -2.0461  0.0415  0.0468
 3841TIP3   OH232937   4.219   3.174  14.163  0.4483  0.4586 -0.0034
 3841TIP3    H132938   4.200   3.218  14.081 -3.6203 -1.2090 -0.1971
 3841TIP3    H232939   4.209   3.241  14.230  0.0368  1.0232 -0.6238
 3842TIP3   OH232940   2.482   1.818  10.781  0.0245  0.1234  0.1403
 3842TIP3    H132941   2.525   1.780  10.704  0.5046 -1.6397  1.2111
 3842TIP3    H232942   2.429   1.747  10.816  0.5508  0.5693  1.9527
 3843TIP3   OH232943   0.268   4.109   3.552 -0.2835 -0.0763  0.2051
 3843TIP3    H132944   0.231   4.049   3.616 -0.7251 -0.9547 -0.8331
 3843TIP3    H232945   0.280   4.056   3.473  1.9259  0.5117  0.0671
 3844TIP3   OH232946   0.532   2.118   3.464 -0.3377 -0.2339 -0.0553
 3844TIP3    H132947   0.496   2.048   3.409 -0.2000 -1.3426  1.2234
 3844TIP3    H232948   0.553   2.188   3.402 -2.0551 -0.6402 -1.1740
 3845TIP3   OH232949   0.421   4.617   5.491 -0.1229  0.9582 -0.7054
 3845TIP3    H132950   0.509   4.640   5.462  1.0794 -1.1358  0.9814
 3845TIP3    H232951   0.413   4.655   5.578 -0.7937  0.8832 -0.7263
 3846TIP3   OH232952   2.286   0.312  10.868  0.1100  0.4342  0.5937
 3846TIP3    H132953   2.316   0.357  10.788 -0.0992  1.7935  1.2539
 3846TIP3    H232954   2.198   0.283  10.847 -0.0388  1.0098  0.4106
 3847TIP3   OH232955   3.940   6.137   3.899 -0.0665  0.4856  0.4255
 3847TIP3    H132956   3.986   6.129   3.815 -2.8994  2.6528 -1.5277
 3847TIP3    H232957   3.894   6.054   3.909 -1.0836  0.8243 -1.1335
 3848TIP3   OH232958   4.809   6.209   4.550 -0.1328 -0.2456  0.2407
 3848TIP3    H132959   4.872   6.161   4.604 -1.8788  0.9561  3.6431
 3848TIP3    H232960   4.727   6.206   4.599 -1.7412  1.6006 -2.0559
 3849TIP3   OH232961   3.237   4.670   2.056  0.4430  0.9108  0.3152
 3849TIP3    H132962   3.163   4.613   2.036  1.8274 -0.7384 -0.4176
 3849TIP3    H232963   3.213   4.714   2.137 -1.2760  0.3453  0.1490
 3850TIP3   OH232964   5.221   2.981  11.500  0.2316  0.2129  0.0524
 3850TIP3    H132965   5.300   3.030  11.478  0.6167 -1.0120 -1.4208
 3850TIP3    H232966   5.196   2.937  11.419 -2.3448  1.0446  0.3036
 3851TIP3   OH232967   2.824   3.045   0.894 -0.2412  0.2172 -0.1237
 3851TIP3    H132968   2.870   3.062   0.976 -0.2259  2.6165 -0.5605
 3851TIP3    H232969   2.803   3.132   0.859 -2.5764 -0.7361 -1.3686
 3852TIP3   OH232970   3.261   0.668   2.039 -0.1052  0.5848 -0.5362
 3852TIP3    H132971   3.293   0.750   2.002  1.9919 -0.1395 -0.4803
 3852TIP3    H232972   3.340   0.620   2.064 -1.2798 -1.1912  0.0305
 3853TIP3   OH232973   4.540   5.253  13.285 -0.5050 -0.0911 -0.2464
 3853TIP3    H132974   4.572   5.192  13.219 -1.5593 -0.7872 -0.1286
 3853TIP3    H232975   4.455   5.218  13.311 -1.7459  2.0610 -1.0885
 3854TIP3   OH232976   6.661   3.612   3.595 -0.3047  0.8747  0.2233
 3854TIP3    H132977   6.650   3.702   3.566  2.2173  1.3166  0.4163
 3854TIP3    H232978   6.659   3.617   3.691 -1.7694  0.4350  0.2456
 3855TIP3   OH232979   6.268   6.508  16.575  0.0074  0.2491 -0.4522
 3855TIP3    H132980   6.224   6.461  16.504 -0.8694  0.1089  0.1575
 3855TIP3    H232981   6.219   6.590  16.584 -0.1097  0.1132  0.2074
 3856TIP3   OH232982   5.587   1.202  17.209 -0.0198 -0.6215 -0.2538
 3856TIP3    H132983   5.610   1.238  17.123  0.4660 -0.7276 -0.1757
 3856TIP3    H232984   5.565   1.111  17.192 -0.1841 -0.5715 -0.3040
 3857TIP3   OH232985   3.017   4.030   0.495 -0.2087 -0.1141  0.5014
 3857TIP3    H132986   3.055   4.118   0.497 -1.7044  0.6438 -1.2244
 3857TIP3    H232987   3.086   3.976   0.456  0.3102  0.5300  0.4946
 3858TIP3   OH232988   3.115   3.563  14.106 -0.3718 -0.2657 -0.0299
 3858TIP3    H132989   3.040   3.521  14.064  0.5207 -0.8279 -1.1212
 3858TIP3    H232990   3.090   3.571  14.198 -0.2167 -4.2183  0.5224
 3859TIP3   OH232991   4.534   4.008   0.757 -0.1647 -0.1227  0.0810
 3859TIP3    H132992   4.503   4.086   0.712  0.1305  0.1636  0.3654
 3859TIP3    H232993   4.458   3.950   0.761 -0.3519  0.0977 -0.2405
 3860TIP3   OH232994   5.839   2.724  12.165  0.0251  0.2570 -0.1014
 3860TIP3    H132995   5.788   2.648  12.192 -0.5703  1.1986  1.5998
 3860TIP3    H232996   5.775   2.782  12.124  0.1756  0.4694 -0.0384
 3861TIP3   OH232997   1.248   0.656  14.307 -0.5994 -0.3449 -0.2428
 3861TIP3    H132998   1.224   0.563  14.307 -1.1080 -0.2344  1.1225
 3861TIP3    H232999   1.302   0.666  14.386 -0.0378  0.4032 -0.7123
 3862TIP3   OH233000   0.501   1.243   4.837 -0.0000  0.6761 -0.0436
 3862TIP3    H133001   0.573   1.208   4.890  0.5024 -0.7641 -1.5988
 3862TIP3    H233002   0.443   1.284   4.901  0.5074 -1.0887  1.6529
 3863TIP3   OH233003   5.458   0.611  12.842  1.1593  0.3197 -0.0528
 3863TIP3    H133004   5.364   0.596  12.851  1.1501 -0.1084 -0.8632
 3863TIP3    H233005   5.474   0.690  12.894  0.2590  0.7185 -0.3651
 3864TIP3   OH233006   6.319   1.580   2.560 -0.8679  0.4085 -0.0502
 3864TIP3    H133007   6.346   1.637   2.632 -1.7938 -0.2782  0.8751
 3864TIP3    H233008   6.375   1.606   2.487 -0.3734  1.5967  0.7116
 3865TIP3   OH233009   5.164   5.204   4.870 -0.1221 -0.3992 -0.6735
 3865TIP3    H133010   5.120   5.174   4.950  0.3279  2.4705  0.7378
 3865TIP3    H233011   5.173   5.298   4.880  2.7786 -0.3205 -2.7421
 3866TIP3   OH233012   1.670   4.557   3.326  0.1598  0.5730 -0.3961
 3866TIP3    H133013   1.667   4.475   3.277  0.7332 -0.1506  0.7363
 3866TIP3    H233014   1.704   4.621   3.263 -1.9490  0.3901 -1.8341
 3867TIP3   OH233015   1.905   4.909   3.756  0.6000 -0.1494 -0.4377
 3867TIP3    H133016   1.961   4.983   3.733 -0.1027  0.5133 -0.0920
 3867TIP3    H233017   1.920   4.895   3.849 -0.0609  0.2743 -0.2566
 3868TIP3   OH233018   0.967   4.095   3.444 -0.6855  0.4540 -0.2206
 3868TIP3    H133019   1.006   4.118   3.360 -2.3133  1.2164 -0.8205
 3868TIP3    H233020   0.873   4.107   3.431 -1.2260 -1.7825  0.9742
 3869TIP3   OH233021   4.631   2.463   0.670  0.0848  0.2157  0.0085
 3869TIP3    H133022   4.721   2.428   0.665  0.0147 -0.0077  0.2962
 3869TIP3    H233023   4.586   2.404   0.731  0.2784  1.4748  1.4326
 3870TIP3   OH233024   5.237   2.535  17.024  0.0916 -0.0470 -0.3546
 3870TIP3    H133025   5.283   2.491  16.952  0.2118  1.1887 -1.0569
 3870TIP3    H233026   5.145   2.531  17.000 -0.0606 -1.2526  0.3494
 3871TIP3   OH233027   0.455   5.540  17.018  0.1793 -0.2372 -0.5594
 3871TIP3    H133028   0.516   5.474  17.053 -0.0964 -0.1055  0.1811
 3871TIP3    H233029   0.411   5.575  17.095  0.2200  0.7220 -0.9592
 3872TIP3   OH233030   3.620   1.968   0.823  0.1676 -0.4711 -0.2356
 3872TIP3    H133031   3.629   1.942   0.731 -0.9438 -2.2543  0.1056
 3872TIP3    H233032   3.628   1.885   0.872  2.6437  0.6443  1.4491
 3873TIP3   OH233033   6.291   5.500   1.048 -0.5616  0.0003  0.9615
 3873TIP3    H133034   6.292   5.452   0.965 -0.1436  1.2694  0.2020
 3873TIP3    H233035   6.364   5.464   1.097 -0.0747  0.0324  0.2837
 3874TIP3   OH233036   2.250   5.822  13.208  0.3770  0.0545 -0.2151
 3874TIP3    H133037   2.166   5.853  13.172  0.1371  0.1549  0.4257
 3874TIP3    H233038   2.310   5.895  13.194  0.1655  0.2746  0.0156
 3875TIP3   OH233039   0.472   0.807   3.238 -0.3166  0.7494 -0.2901
 3875TIP3    H133040   0.394   0.856   3.264 -0.3915  0.2845  0.3598
 3875TIP3    H233041   0.524   0.800   3.318  0.2612  0.8048 -0.6542
 3876TIP3   OH233042   1.289   6.750  13.552 -0.1834  0.0476 -0.4528
 3876TIP3    H133043   1.345   6.674  13.566  0.4934  0.8529  1.6274
 3876TIP3    H233044   1.200   6.719  13.567  0.0122 -0.5201 -0.4755
 3877TIP3   OH233045   1.189   5.050   0.532 -1.0413 -0.3197 -0.1639
 3877TIP3    H133046   1.122   5.066   0.466 -0.6298  1.3413 -0.2093
 3877TIP3    H233047   1.142   5.051   0.616 -0.9129  2.4623 -0.0484
 3878TIP3   OH233048   4.745   5.994  15.691 -0.1504  0.4551 -0.0452
 3878TIP3    H133049   4.762   5.900  15.682  1.1459  0.7714 -1.2922
 3878TIP3    H233050   4.678   6.000  15.759  0.2094 -1.3300  0.5196
 3879TIP3   OH233051   1.570   5.788  10.584  0.4234  0.0148  0.0443
 3879TIP3    H133052   1.523   5.870  10.574  1.1664  0.4214 -0.1850
 3879TIP3    H233053   1.584   5.780  10.679 -1.3522 -0.8365  0.2669
 3880TIP3   OH233054   2.082   1.600  11.408  0.2958  0.2721 -0.2258
 3880TIP3    H133055   2.046   1.625  11.493  0.6212  0.2766 -0.0875
 3880TIP3    H233056   2.177   1.601  11.420  0.3387 -0.0652 -0.4931
 3881TIP3   OH233057   1.846   3.617  12.930 -0.1511  0.3150 -0.2586
 3881TIP3    H133058   1.929   3.586  12.967 -0.5931  0.1984  0.6695
 3881TIP3    H233059   1.781   3.553  12.959 -0.0886 -1.6918 -3.9906
 3882TIP3   OH233060   4.110   0.110   6.249  0.2755 -0.5666 -0.7374
 3882TIP3    H133061   4.051   0.174   6.208  1.1979 -0.2780 -1.6408
 3882TIP3    H233062   4.105   0.130   6.343 -0.3856  0.0272 -0.8926
 3883TIP3   OH233063   1.274   4.434   3.422 -0.3170  0.3921  0.6747
 3883TIP3    H133064   1.306   4.354   3.381 -1.2935  0.5040 -0.3617
 3883TIP3    H233065   1.213   4.472   3.358  0.1206  1.9697  1.1314
 3884TIP3   OH233066   2.455   0.542   1.856 -0.7598  0.1601  0.3608
 3884TIP3    H133067   2.469   0.505   1.769  1.1922 -0.7954  1.0317
 3884TIP3    H233068   2.482   0.633   1.848  0.7039 -0.2671  0.2706
 3885TIP3   OH233069   5.892   0.539  12.082  0.2698 -0.0980 -0.0481
 3885TIP3    H133070   5.913   0.528  12.175  1.2143 -0.7109 -0.3276
 3885TIP3    H233071   5.815   0.596  12.082 -0.3049 -0.8196  1.1522
 3886TIP3   OH233072   3.813   4.673  13.333 -0.3933 -0.1352  0.1912
 3886TIP3    H133073   3.800   4.767  13.319  1.2638  0.1716  0.5203
 3886TIP3    H233074   3.738   4.632  13.289  0.0200  1.2086 -1.9378
 3887TIP3   OH233075   4.109   2.277   2.277 -0.5323  0.4417 -0.0911
 3887TIP3    H133076   4.140   2.264   2.367 -1.3433 -0.5487  0.0631
 3887TIP3    H233077   4.118   2.371   2.262 -0.5397  0.6473  1.0854
 3888TIP3   OH233078   5.874   0.948   0.686 -0.5919  0.2271 -0.3748
 3888TIP3    H133079   5.944   0.979   0.742  0.1948  1.3922 -1.9282
 3888TIP3    H233080   5.807   0.915   0.747 -0.3286  2.5409  1.2981
 3889TIP3   OH233081   3.999   1.758   0.487 -0.1143  0.8198 -0.0499
 3889TIP3    H133082   3.964   1.739   0.574 -0.1455 -0.9690 -0.4252
 3889TIP3    H233083   3.922   1.756   0.429  0.1152  0.4344 -0.3465
 3890TIP3   OH233084   5.225   5.003  16.296  0.2736  0.4281  0.0512
 3890TIP3    H133085   5.317   4.987  16.319  0.0258  2.0535  2.5534
 3890TIP3    H233086   5.179   4.924  16.326  0.6399  0.3710  0.4850
 3891TIP3   OH233087   2.414   0.060   1.826  0.5851  0.5551 -0.6572
 3891TIP3    H133088   2.449  -0.025   1.855  2.4254  0.5819 -2.5966
 3891TIP3    H233089   2.445   0.122   1.891  2.5688  0.2699 -1.2657
 3892TIP3   OH233090   1.415   0.168   3.334  0.3975 -0.1641 -0.2963
 3892TIP3    H133091   1.384   0.097   3.391 -0.0345 -0.6294 -1.0938
 3892TIP3    H233092   1.486   0.208   3.383 -0.7797  0.2575  1.1326
 3893TIP3   OH233093   3.106   0.184   2.411 -0.2845 -0.3119  0.3492
 3893TIP3    H133094   3.068   0.193   2.324 -2.8967 -1.2573  1.2955
 3893TIP3    H233095   3.083   0.096   2.439  1.9856 -0.6462  1.3766
 3894TIP3   OH233096   6.557   0.236   1.010  0.5753  0.2169  0.6277
 3894TIP3    H133097   6.569   0.316   1.060 -0.5790 -1.1616  3.3283
 3894TIP3    H233098   6.643   0.194   1.010  0.2501 -0.6135  3.1925
 3895TIP3   OH233099   0.615   6.688  15.351  0.1168  0.0862 -0.4051
 3895TIP3    H133100   0.707   6.669  15.369 -0.0260  1.0485  1.5985
 3895TIP3    H233101   0.609   6.784  15.354 -1.0424  0.0139  0.0350
 3896TIP3   OH233102   5.916   5.567  14.443 -0.3607 -0.1541 -0.3180
 3896TIP3    H133103   5.930   5.550  14.349  0.9199  2.4513 -0.6974
 3896TIP3    H233104   5.982   5.512  14.486  1.0379  0.7714 -1.1776
 3897TIP3   OH233105   6.084   1.741   3.960 -0.1734  0.1921  0.1077
 3897TIP3    H133106   6.121   1.805   3.900 -2.8418  1.4405 -0.3757
 3897TIP3    H233107   6.070   1.790   4.041  1.4019 -0.9053  1.0984
 3898TIP3   OH233108   3.716   1.583  15.986  0.6106  0.1659  0.3767
 3898TIP3    H133109   3.669   1.580  15.902 -1.5157  0.8688  1.4780
 3898TIP3    H233110   3.755   1.670  15.988  1.5648 -0.2216 -0.2963
 3899TIP3   OH233111   4.046   2.758   0.289  0.0621  0.1455 -0.2361
 3899TIP3    H133112   3.955   2.732   0.271  0.4027 -1.0505 -0.3266
 3899TIP3    H233113   4.042   2.853   0.301 -1.2665  0.0599  0.1629
 3900TIP3   OH233114   5.023   4.893   0.381 -0.4217 -0.0808  0.6273
 3900TIP3    H133115   5.006   4.818   0.437 -0.4644 -0.0798  0.6155
 3900TIP3    H233116   4.967   4.879   0.305 -0.1355 -0.2399  0.4436
 3901TIP3   OH233117   5.586   6.436  10.689  0.6274  0.0376 -0.5125
 3901TIP3    H133118   5.589   6.531  10.700  0.1618 -0.0878  0.9014
 3901TIP3    H233119   5.516   6.421  10.626 -1.4183  0.5275  1.4922
 3902TIP3   OH233120   6.470   3.345  13.282  0.1839 -0.3436 -0.5722
 3902TIP3    H133121   6.410   3.287  13.236 -0.4084 -2.3112  2.3872
 3902TIP3    H233122   6.415   3.414  13.317  0.1391 -0.4685 -0.3945
 3903TIP3   OH233123   2.182   1.212   0.510 -0.6266 -0.0762 -0.3504
 3903TIP3    H133124   2.209   1.303   0.500  1.5198 -0.3134  2.1042
 3903TIP3    H233125   2.232   1.164   0.444  2.2832  0.0133  1.5845
 3904TIP3   OH233126   5.921   1.231   2.847  0.2213 -0.4860 -0.5475
 3904TIP3    H133127   5.931   1.285   2.926  1.2511 -0.6527 -0.5508
 3904TIP3    H233128   5.847   1.271   2.800  0.6738  0.6580 -0.3330
 3905TIP3   OH233129   6.014   6.252  14.241  0.6173 -0.2295  0.3427
 3905TIP3    H133130   5.935   6.265  14.294 -0.2187 -1.2327 -0.6146
 3905TIP3    H233131   6.024   6.335  14.194  0.2977 -0.0029  0.6596
 3906TIP3   OH233132   0.688   0.081  11.899 -0.3172 -0.3291 -0.2484
 3906TIP3    H133133   0.607   0.031  11.887  0.0567 -0.9385 -0.2646
 3906TIP3    H233134   0.685   0.111  11.990  0.1851 -1.7118  0.2498
 3907TIP3   OH233135   3.905   2.656  12.295  0.1534 -0.0351 -0.1997
 3907TIP3    H133136   3.941   2.683  12.211  1.1740 -1.5068 -0.2534
 3907TIP3    H233137   3.881   2.739  12.338  0.1666  0.7612 -1.6662
 3908TIP3   OH233138   4.522   3.514  12.045  0.5136 -0.1998 -0.2913
 3908TIP3    H133139   4.439   3.556  12.068  1.5174  2.1980 -0.7068
 3908TIP3    H233140   4.517   3.502  11.950 -0.2235 -2.1890 -0.0391
 3909TIP3   OH233141   6.053   4.161  12.990 -0.4134  0.0393 -0.7356
 3909TIP3    H133142   6.009   4.222  12.931 -0.2633  0.1713 -0.7132
 3909TIP3    H233143   6.143   4.156  12.957 -0.1608  0.6018 -0.1516
 3910TIP3   OH233144   1.186   4.729   3.998 -0.1706 -0.0877 -0.0571
 3910TIP3    H133145   1.124   4.664   4.031  0.3729 -0.3619  0.4343
 3910TIP3    H233146   1.269   4.682   3.990  0.6660  0.9460  1.9314
 3911TIP3   OH233147   5.279   1.805   5.162  0.3563 -0.1402  0.3430
 3911TIP3    H133148   5.362   1.848   5.183  1.9303 -1.5053 -2.5706
 3911TIP3    H233149   5.225   1.874   5.124 -0.4867  1.0723  3.4522
 3912TIP3   OH233150   3.444   5.710  13.868  0.3068 -0.0460  0.1981
 3912TIP3    H133151   3.385   5.634  13.863 -0.4423  0.5238  0.1545
 3912TIP3    H233152   3.443   5.735  13.960  1.5722 -0.8639  0.4493
 3913TIP3   OH233153   0.708   3.337  17.011 -0.3686  0.1069 -0.3332
 3913TIP3    H133154   0.789   3.372  17.047  0.1731 -0.3938 -1.0269
 3913TIP3    H233155   0.664   3.413  16.973  0.0181  0.2985 -0.4015
 3914TIP3   OH233156   5.517   3.471   4.389 -0.6253 -0.2922  0.2518
 3914TIP3    H133157   5.590   3.421   4.425 -0.9350 -0.2524  0.9579
 3914TIP3    H233158   5.533   3.472   4.294  1.6004  1.8224  0.5710
 3915TIP3   OH233159   4.417   5.663  14.420  0.1232 -0.4239 -0.4241
 3915TIP3    H133160   4.411   5.587  14.362  0.6764 -1.2232  0.5213
 3915TIP3    H233161   4.505   5.698  14.405  0.9679 -1.7252  1.1834
 3916TIP3   OH233162   2.228   6.095  16.395 -0.2265  0.0665 -0.1337
 3916TIP3    H133163   2.314   6.081  16.356 -0.8413 -0.4765 -1.3412
 3916TIP3    H233164   2.196   6.175  16.353 -0.3350  0.2473  0.2867
 3917TIP3   OH233165   6.041   2.615  16.181 -0.3615 -0.0165  0.2479
 3917TIP3    H133166   6.050   2.706  16.211 -0.4820 -0.6858  2.5397
 3917TIP3    H233167   5.956   2.612  16.139 -0.6233  0.8139  0.6914
 3918TIP3   OH233168   6.640   6.475  12.775  0.3607 -0.3468  0.0173
 3918TIP3    H133169   6.612   6.392  12.737 -0.4203  0.5226 -1.3691
 3918TIP3    H233170   6.563   6.531  12.770  1.5334  1.2524 -1.4085
 3919TIP3   OH233171   3.001   2.050   6.779 -0.0691  0.7018  0.0177
 3919TIP3    H133172   2.933   2.051   6.847  0.4189 -0.6424  0.5456
 3919TIP3    H233173   2.959   2.008   6.704  0.1015  0.0470  0.2803
 3920TIP3   OH233174   6.356   3.184   0.855 -0.5902 -0.1401  0.4300
 3920TIP3    H133175   6.443   3.224   0.858 -0.5599 -0.1621 -0.0048
 3920TIP3    H233176   6.336   3.179   0.761 -2.0477  1.9992  0.5670
 3921TIP3   OH233177   1.073   4.359   1.777  0.1082 -0.0066 -0.2921
 3921TIP3    H133178   1.055   4.437   1.723  1.2584  0.3199 -0.2369
 3921TIP3    H233179   1.141   4.388   1.838  0.3544 -0.9791 -0.0921
 3922TIP3   OH233180   5.942   6.157  13.347 -0.2226 -0.0258  0.2615
 3922TIP3    H133181   5.856   6.149  13.305  0.3337 -1.1950 -0.7086
 3922TIP3    H233182   5.999   6.194  13.279  0.1281  0.4289  0.7939
 3923TIP3   OH233183   1.521   0.820   5.853 -0.2034  0.3208  0.7372
 3923TIP3    H133184   1.471   0.797   5.775 -0.1513 -0.4282  0.9156
 3923TIP3    H233185   1.463   0.797   5.926  0.2706 -0.2318  0.9407
 3924TIP3   OH233186   3.882   4.700  13.710 -0.4437  0.4337  0.4983
 3924TIP3    H133187   3.861   4.742  13.627 -0.5573 -0.1524  0.2208
 3924TIP3    H233188   3.945   4.758  13.752  1.4668 -0.3952 -1.0680
 3925TIP3   OH233189   2.020   4.771  14.072 -0.0052  0.2198 -0.1663
 3925TIP3    H133190   1.960   4.771  14.147  0.0657 -0.7682 -0.1034
 3925TIP3    H233191   2.088   4.834  14.096 -1.3951  1.9557 -0.5672
 3926TIP3   OH233192   4.924   6.312   0.663  0.0289  0.0076  0.3744
 3926TIP3    H133193   4.946   6.379   0.598 -1.4346 -0.7167 -0.9205
 3926TIP3    H233194   4.970   6.340   0.742  1.3933  1.2312 -0.7938
 3927TIP3   OH233195   1.685   6.103   3.787 -0.3265 -0.1792 -0.2205
 3927TIP3    H133196   1.628   6.029   3.767  0.1619 -0.7014  0.2670
 3927TIP3    H233197   1.758   6.095   3.726 -0.1580 -0.2365 -0.0132
 3928TIP3   OH233198   2.538   2.672   1.165 -0.5473 -0.2428 -0.3428
 3928TIP3    H133199   2.527   2.745   1.104  0.0167 -0.8068 -1.1565
 3928TIP3    H233200   2.506   2.596   1.116 -2.0977 -0.4154  0.8571
 3929TIP3   OH233201   2.466   4.295  16.264  0.3359 -0.0878 -0.8804
 3929TIP3    H133202   2.554   4.288  16.300 -0.0140  1.2631  0.3208
 3929TIP3    H233203   2.475   4.356  16.191  0.5929 -0.8942 -1.5403
 3930TIP3   OH233204   5.345   2.474  14.789 -0.6196 -0.6921  0.5007
 3930TIP3    H133205   5.400   2.503  14.716  0.7750  2.4189  2.5626
 3930TIP3    H233206   5.407   2.454  14.859 -1.9869 -1.3937  1.5605
 3931TIP3   OH233207   2.894   3.619  11.980  0.0587  0.1535 -0.2547
 3931TIP3    H133208   2.973   3.617  11.925  2.1698  0.5484  2.5452
 3931TIP3    H233209   2.845   3.695  11.949  1.2506  0.4853 -1.4178
 3932TIP3   OH233210   1.348   3.192   1.536 -0.7304 -0.1310  0.5099
 3932TIP3    H133211   1.349   3.254   1.608 -1.2615  0.6745 -0.1570
 3932TIP3    H233212   1.391   3.238   1.464 -1.1213 -0.5291  0.0086
 3933TIP3   OH233213   0.500   6.654  13.102 -0.0338  0.1154  0.3242
 3933TIP3    H133214   0.575   6.705  13.073 -0.8526  0.2051 -1.8039
 3933TIP3    H233215   0.466   6.702  13.178 -0.5149  2.5700 -1.3282
 3934TIP3   OH233216   5.906   6.397   1.260  0.1659 -0.3474  0.1994
 3934TIP3    H133217   5.940   6.482   1.232 -0.8070  0.5498  1.6008
 3934TIP3    H233218   5.903   6.403   1.356 -3.3098 -0.5386  0.2306
 3935TIP3   OH233219   2.207   4.060  14.911 -0.8887 -0.0024  0.4185
 3935TIP3    H133220   2.202   4.137  14.966 -1.5793 -0.2547  0.7157
 3935TIP3    H233221   2.296   4.061  14.876 -1.1315  1.3495 -0.2073
 3936TIP3   OH233222   0.031   5.556   2.079  0.0404 -0.5715 -0.8202
 3936TIP3    H133223   0.084   5.548   2.158 -0.7428 -2.7008 -0.4553
 3936TIP3    H233224  -0.006   5.645   2.083 -0.1688 -0.7197  1.3273
 3937TIP3   OH233225   5.635   6.031  15.474  0.3680  0.3295 -0.5687
 3937TIP3    H133226   5.666   5.943  15.495  0.8805  0.4454 -0.8165
 3937TIP3    H233227   5.544   6.019  15.448 -0.1291  0.1110  1.1599
 3938TIP3   OH233228   6.308   3.807   4.950 -0.0650 -0.0913 -0.4862
 3938TIP3    H133229   6.245   3.862   4.997  0.1960 -1.0967  1.1118
 3938TIP3    H233230   6.275   3.718   4.960  2.0161 -0.7650  1.2070
 3939TIP3   OH233231   3.617   2.235   1.527 -0.4043 -0.1157 -0.3661
 3939TIP3    H133232   3.570   2.194   1.600 -0.6226  0.3477 -0.2385
 3939TIP3    H233233   3.615   2.329   1.547 -0.1570 -0.0146 -0.7915
 3940TIP3   OH233234   3.850   4.247  12.459 -0.3367  0.2794 -0.3291
 3940TIP3    H133235   3.941   4.275  12.445 -1.0088  3.2405  0.4125
 3940TIP3    H233236   3.853   4.196  12.540  0.6933  0.0893 -0.4740
 3941TIP3   OH233237   5.233   4.627   2.223 -0.1270  0.2021 -0.0828
 3941TIP3    H133238   5.162   4.589   2.275 -1.2510  1.8973 -0.2900
 3941TIP3    H233239   5.300   4.649   2.287 -0.6238  0.3865  0.3858
 3942TIP3   OH233240   5.251   2.052   1.993 -0.7115 -0.2047 -0.2787
 3942TIP3    H133241   5.242   1.993   2.068  0.9942 -0.7548 -0.4525
 3942TIP3    H233242   5.310   2.121   2.024 -1.1122  0.3261 -0.6905
 3943TIP3   OH233243   1.849   3.747  14.755 -0.7532 -0.0148  0.4539
 3943TIP3    H133244   1.779   3.806  14.783 -2.9242 -2.1483 -0.1828
 3943TIP3    H233245   1.812   3.700  14.680  1.7666 -0.5316 -0.5735
 3944TIP3   OH233246   6.336   3.571  14.002 -0.6411 -0.5340 -0.3162
 3944TIP3    H133247   6.331   3.657  14.044 -0.7669 -0.2473 -0.9135
 3944TIP3    H233248   6.427   3.562  13.974 -0.3840 -1.0238  0.6202
 3945TIP3   OH233249   3.811   2.378  15.732 -0.1521 -0.2006  0.3997
 3945TIP3    H133250   3.755   2.455  15.723  0.1286 -0.0981 -0.6468
 3945TIP3    H233251   3.756   2.311  15.772 -0.6303  0.2967  0.5750
 3946TIP3   OH233252   3.566   2.907  13.462 -0.2631 -0.0878 -0.5563
 3946TIP3    H133253   3.652   2.875  13.491  0.4804 -1.0917 -3.4817
 3946TIP3    H233254   3.519   2.828  13.435 -1.8586  0.5279  0.3025
 3947TIP3   OH233255   3.641   0.060   0.904 -0.3334  0.3580 -0.6288
 3947TIP3    H133256   3.606   0.146   0.925 -0.4671  0.2512 -0.4113
 3947TIP3    H233257   3.640   0.056   0.808  0.3541  0.8809 -0.6692
 3948TIP3   OH233258   6.640   4.255  13.801  0.3605 -0.5502  0.0921
 3948TIP3    H133259   6.613   4.272  13.711  0.4775  0.0876  0.1684
 3948TIP3    H233260   6.728   4.217  13.793  1.3466  1.5706 -0.0170
 3949TIP3   OH233261   2.681   0.190  14.112 -0.4188 -0.2716 -0.5496
 3949TIP3    H133262   2.636   0.242  14.045  0.9051  1.7377  0.0120
 3949TIP3    H233263   2.678   0.100  14.079 -1.3478  0.3908 -2.4183
 3950TIP3   OH233264   1.524   4.128   5.684  0.1805 -0.5705 -0.0371
 3950TIP3    H133265   1.516   4.037   5.712  0.2767 -0.3887  0.5833
 3950TIP3    H233266   1.438   4.166   5.699 -0.1540 -0.7992 -1.2143
 3951TIP3   OH233267   3.693   4.735  15.593  0.2206 -0.2092 -0.3020
 3951TIP3    H133268   3.598   4.748  15.601  0.1743  0.1365 -1.2269
 3951TIP3    H233269   3.731   4.816  15.625  0.2715 -0.8484  1.3134
 3952TIP3   OH233270   6.542   1.692   3.265 -0.0279  0.1508 -0.5708
 3952TIP3    H133271   6.636   1.674   3.261 -0.3642 -1.7333 -1.4406
 3952TIP3    H233272   6.533   1.783   3.237  1.5603  0.4688 -0.1143
 3953TIP3   OH233273   3.075   4.677  14.687  0.2668  0.2857  0.2568
 3953TIP3    H133274   3.139   4.734  14.644 -0.8744  0.7187 -0.9471
 3953TIP3    H233275   3.092   4.689  14.781  0.3111  2.3531  0.0366
 3954TIP3   OH233276   4.605   2.852   2.107  0.0891  0.2336 -0.3047
 3954TIP3    H133277   4.572   2.938   2.081 -1.8048  0.2789  1.8898
 3954TIP3    H233278   4.609   2.856   2.203  1.1069 -1.7443 -0.2204
 3955TIP3   OH233279   3.529   4.624  14.342  0.0476  0.5748  0.2445
 3955TIP3    H133280   3.468   4.556  14.370  1.5798 -0.9846 -0.0517
 3955TIP3    H233281   3.504   4.701  14.394 -1.1463 -0.4470  1.2587
 3956TIP3   OH233282   4.962   2.856   2.039  0.1883 -0.0154  0.1478
 3956TIP3    H133283   4.946   2.895   1.954 -0.1203 -0.2501  0.0965
 3956TIP3    H233284   4.897   2.786   2.047 -0.6394  0.8232  1.1091
 3957TIP3   OH233285   1.631   0.244   2.373  1.1465  0.2796  0.2356
 3957TIP3    H133286   1.687   0.291   2.434  1.9178 -1.1709  0.6874
 3957TIP3    H233287   1.661   0.271   2.286  1.8608  0.2909  0.4859
 3958TIP3   OH233288   5.190   1.442   0.313 -0.2828  0.9076 -0.4013
 3958TIP3    H133289   5.166   1.532   0.338 -0.7640  0.5580  0.4483
 3958TIP3    H233290   5.263   1.420   0.370  0.1864  0.9422 -0.9835
 3959TIP3   OH233291   1.069   6.600   2.725 -0.2553  0.0225 -0.3147
 3959TIP3    H133292   1.122   6.624   2.800 -0.1661  2.0838 -0.9664
 3959TIP3    H233293   1.051   6.507   2.736  2.0574 -0.3419  0.7949
 3960TIP3   OH233294   6.203   5.670  16.233 -0.1099  0.2573 -0.4900
 3960TIP3    H133295   6.197   5.706  16.322  0.4624 -1.5209  0.3161
 3960TIP3    H233296   6.131   5.712  16.186 -1.9832 -0.5480  1.4760
 3961TIP3   OH233297   1.973   0.881  10.673 -0.6131 -0.1460  0.9442
 3961TIP3    H133298   1.948   0.925  10.754 -2.4834  1.3857 -0.3471
 3961TIP3    H233299   2.047   0.932  10.640  1.8764 -2.3265  2.8645
 3962TIP3   OH233300   1.466   5.117  12.928 -0.7477 -0.1835  0.1075
 3962TIP3    H133301   1.534   5.051  12.944 -2.2705 -1.8138  0.2044
 3962TIP3    H233302   1.497   5.195  12.973  0.5690 -1.1804  1.0251
 3963TIP3   OH233303   6.313   6.229  11.086  0.0175  0.5085  0.3452
 3963TIP3    H133304   6.346   6.256  11.001 -0.6168  0.0097 -0.0641
 3963TIP3    H233305   6.223   6.260  11.089 -0.8700 -1.8025 -0.2983
 3964TIP3   OH233306   3.873   3.594   3.960  0.3669  0.1832 -0.2110
 3964TIP3    H133307   3.941   3.533   3.988  0.7369  0.7077  0.0674
 3964TIP3    H233308   3.795   3.567   4.007  0.6182  0.1466  0.1897
 3965TIP3   OH233309   3.810   1.520  16.737  0.1082  0.4759  0.5098
 3965TIP3    H133310   3.761   1.601  16.725  0.6426  0.9523  1.4382
 3965TIP3    H233311   3.892   1.534  16.688 -0.0526  0.2534  0.1712
 3966TIP3   OH233312   2.635   1.349  12.271  0.2516  0.4632  0.0034
 3966TIP3    H133313   2.570   1.420  12.272 -1.6864 -1.1696  2.2871
 3966TIP3    H233314   2.669   1.347  12.361  0.6269 -1.1313 -0.1535
 3967TIP3   OH233315   4.884   2.443   1.843  0.5377  0.2837 -0.1315
 3967TIP3    H133316   4.974   2.411   1.836  0.0081 -1.2658 -0.1074
 3967TIP3    H233317   4.881   2.518   1.783  1.1157 -1.3482 -2.3579
 3968TIP3   OH233318   6.362   6.613  12.728  0.3892 -0.1696 -0.1482
 3968TIP3    H133319   6.309   6.630  12.806  0.2807  0.4953 -0.3629
 3968TIP3    H233320   6.369   6.698  12.685  0.2084 -0.5941 -1.0185
 3969TIP3   OH233321   6.574   4.443   0.282 -0.2248 -0.5467 -0.6287
 3969TIP3    H133322   6.574   4.349   0.303  0.0265 -0.7497 -1.5012
 3969TIP3    H233323   6.513   4.481   0.345  0.3117 -1.1633  0.2979
 3970TIP3   OH233324   2.769   2.619  11.379  0.2727 -0.3877 -0.3694
 3970TIP3    H133325   2.686   2.660  11.402 -0.1955 -2.0864  1.3298
 3970TIP3    H233326   2.748   2.563  11.304  0.0380 -0.3168 -0.3581
 3971TIP3   OH233327   0.272   1.638   3.762  0.5325 -0.1056 -0.1501
 3971TIP3    H133328   0.293   1.690   3.685 -0.6310 -0.3431 -0.6547
 3971TIP3    H233329   0.275   1.701   3.835 -0.0851  0.5172 -0.6435
 3972TIP3   OH233330   1.553   3.894   3.664 -0.3070 -0.9006  0.4694
 3972TIP3    H133331   1.584   3.821   3.717  0.8722 -0.4806  0.3955
 3972TIP3    H233332   1.619   3.963   3.677 -0.0300 -0.7471 -1.4101
 3973TIP3   OH233333   6.292   6.167  15.709  0.2217  0.3139 -0.5425
 3973TIP3    H133334   6.248   6.250  15.731  1.4603  0.7276  0.4726
 3973TIP3    H233335   6.345   6.147  15.786 -0.1572 -1.5135 -0.7301
 3974TIP3   OH233336   5.572   6.609   1.751  0.5107  0.2473  0.3251
 3974TIP3    H133337   5.648   6.557   1.778  0.0787 -1.2339 -1.1606
 3974TIP3    H233338   5.595   6.641   1.664 -0.2063  0.5760  0.2517
 3975TIP3   OH233339   1.104   0.041  15.968  0.1671 -0.0553 -0.2157
 3975TIP3    H133340   1.110  -0.025  15.899  0.1881 -0.9518  0.6274
 3975TIP3    H233341   1.054   0.113  15.928 -0.7244 -0.9952 -0.8280
 3976TIP3   OH233342   3.816   5.179  15.932  0.0729 -0.3621 -0.0787
 3976TIP3    H133343   3.785   5.186  15.842 -0.6998 -1.1746  0.1077
 3976TIP3    H233344   3.871   5.101  15.932 -0.9207 -1.0983  0.3928
 3977TIP3   OH233345   0.076   2.537   3.775  0.4789 -0.3116  0.2072
 3977TIP3    H133346   0.160   2.500   3.802  0.1125 -0.0844  1.7329
 3977TIP3    H233347   0.037   2.570   3.856 -0.8720  0.0198 -0.5509
 3978TIP3   OH233348   2.437   0.023  17.213 -0.0287 -0.7149  0.2337
 3978TIP3    H133349   2.482  -0.024  17.143  1.2697 -0.6368  0.9756
 3978TIP3    H233350   2.422   0.110  17.177 -1.2003 -1.2504 -0.6502
 3979TIP3   OH233351   4.564   1.082  11.242  0.0824 -0.2442 -0.5881
 3979TIP3    H133352   4.564   0.987  11.252 -1.0231 -0.0831  1.4072
 3979TIP3    H233353   4.652   1.109  11.270  0.6077 -0.7108 -1.7555
 3980TIP3   OH233354   0.892   5.732  10.403 -0.2697 -0.3257  0.4721
 3980TIP3    H133355   0.837   5.756  10.478 -1.6899 -1.0291 -0.3083
 3980TIP3    H233356   0.835   5.739  10.327  0.5368 -1.6487 -0.3123
 3981TIP3   OH233357   0.336   1.556  16.378  0.6340  0.0390  0.2967
 3981TIP3    H133358   0.348   1.463  16.361 -0.0209 -0.2047  1.0816
 3981TIP3    H233359   0.399   1.600  16.321  1.0882 -0.8931  0.0684
 3982TIP3   OH233360   1.302   2.685  15.442 -0.0126 -0.2218  0.3355
 3982TIP3    H133361   1.240   2.636  15.496  0.6151 -1.4396 -0.0063
 3982TIP3    H233362   1.249   2.721  15.371 -0.5181 -0.2700  0.6834
 3983TIP3   OH233363   4.527   2.162  12.445 -0.6384  0.3570  0.1235
 3983TIP3    H133364   4.537   2.234  12.507  0.2199  0.2647  0.1084
 3983TIP3    H233365   4.569   2.193  12.365 -0.2369 -0.1617  0.1257
 3984TIP3   OH233366   0.144   5.620  16.452  0.7655  0.1549  0.1043
 3984TIP3    H133367   0.056   5.633  16.417  1.0691 -1.3056 -1.3230
 3984TIP3    H233368   0.131   5.569  16.533  0.3638 -3.3197 -1.9281
 3985TIP3   OH233369   3.410   1.819  11.497  0.2356  0.1466  0.3360
 3985TIP3    H133370   3.439   1.907  11.469 -0.1022  0.3862  0.7303
 3985TIP3    H233371   3.325   1.807  11.454  1.5606 -1.2084 -2.1227
 3986TIP3   OH233372   3.213   6.466   5.432 -0.2129  0.2265 -0.2924
 3986TIP3    H133373   3.279   6.407   5.396 -1.1386  0.2824 -2.1776
 3986TIP3    H233374   3.260   6.548   5.448  0.1068  0.4254 -2.0849
 3987TIP3   OH233375   3.588   4.752   5.202  0.0469  0.2667 -0.0250
 3987TIP3    H133376   3.675   4.787   5.179 -0.2416  0.7046 -0.4766
 3987TIP3    H233377   3.533   4.775   5.128 -1.0997  2.4054  1.3856
 3988TIP3   OH233378   1.831   2.441  12.354 -0.3781  0.3090  0.0811
 3988TIP3    H133379   1.826   2.522  12.304  0.3834  1.4647  1.7496
 3988TIP3    H233380   1.828   2.470  12.446  1.3081 -1.4000  0.7570
 3989TIP3   OH233381   5.696   0.894   0.202  0.6749 -0.1905 -0.7514
 3989TIP3    H133382   5.611   0.896   0.159 -0.2504  0.0840  0.9872
 3989TIP3    H233383   5.707   0.982   0.238  1.2200 -0.5094 -0.1062
 3990TIP3   OH233384   3.844   3.250  12.041 -0.6352  0.1397  0.1568
 3990TIP3    H133385   3.785   3.197  11.987  2.0051 -1.5558 -1.2681
 3990TIP3    H233386   3.869   3.193  12.113  0.3010  0.3439  0.0020
 3991TIP3   OH233387   4.020   6.281  12.731  0.6629 -0.0078  0.1294
 3991TIP3    H133388   4.016   6.194  12.690  0.4048  0.0349  0.0611
 3991TIP3    H233389   3.996   6.341  12.660 -0.4166  0.0188  0.4889
 3992TIP3   OH233390   5.857   5.734   0.835 -0.1827 -0.1416 -0.0157
 3992TIP3    H133391   5.826   5.755   0.923  1.1640 -0.8778  0.6764
 3992TIP3    H233392   5.938   5.685   0.850  0.7095  0.7393 -1.6977
 3993TIP3   OH233393   0.658   5.877   4.360  0.2161 -0.2074  0.1921
 3993TIP3    H133394   0.588   5.878   4.425 -0.0052  1.0931 -0.0557
 3993TIP3    H233395   0.678   5.784   4.349 -1.0976 -0.5750  0.6632
 3994TIP3   OH233396   5.341   4.075  13.599  0.2325 -0.1268 -0.0912
 3994TIP3    H133397   5.387   4.067  13.683  0.8411  0.2419 -0.3783
 3994TIP3    H233398   5.263   4.021  13.609 -0.1818  0.6532  1.0351
 3995TIP3   OH233399   2.360   3.128   0.029 -0.1507 -0.3984 -0.1875
 3995TIP3    H133400   2.411   3.072   0.087 -1.0917 -1.6921 -0.5689
 3995TIP3    H233401   2.399   3.116  -0.057  0.9851  1.2056  0.0654
 3996TIP3   OH233402   3.619   4.117  16.136  0.0423  0.4819  0.6447
 3996TIP3    H133403   3.558   4.181  16.099 -0.4168 -0.3443 -0.0571
 3996TIP3    H233404   3.667   4.166  16.203 -0.7785  1.3714  0.6026
 3997TIP3   OH233405   3.705   1.392  11.975 -0.8142  0.0388  0.5370
 3997TIP3    H133406   3.615   1.426  11.976 -0.0081  2.4882 -0.5222
 3997TIP3    H233407   3.736   1.403  12.065 -1.5590 -0.8867  0.9266
 3998TIP3   OH233408   6.233   5.925   1.372 -0.2235 -0.6445 -0.0667
 3998TIP3    H133409   6.138   5.937   1.372 -0.6490 -3.2719  0.6192
 3998TIP3    H233410   6.251   5.876   1.292  0.0802 -2.6149  1.1226
 3999TIP3   OH233411   5.665   5.547  10.475 -0.1695 -0.5037 -0.6337
 3999TIP3    H133412   5.589   5.604  10.462 -0.4912 -0.2324  1.9346
 3999TIP3    H233413   5.733   5.585  10.418 -1.9650 -1.0210 -3.3404
 4000TIP3   OH233414   2.789   4.250  13.843 -0.7842 -0.3850  0.7860
 4000TIP3    H133415   2.715   4.190  13.857  0.0345 -1.6380 -0.0823
 4000TIP3    H233416   2.793   4.302  13.923 -1.9171 -1.0409  1.2976
 4001TIP3   OH233417   4.365   3.111   5.481 -0.4813  0.3139  0.0652
 4001TIP3    H133418   4.318   3.115   5.564 -0.0803  0.8300  0.2733
 4001TIP3    H233419   4.296   3.106   5.415 -0.7983 -1.0086  0.4616
 4002TIP3   OH233420   3.177   6.003  13.529  0.1151 -0.4376 -0.2338
 4002TIP3    H133421   3.086   6.034  13.528  0.0547 -0.5913  0.2130
 4002TIP3    H233422   3.215   6.043  13.607  0.7230  0.4282 -0.9653
 4003TIP3   OH233423   1.370   0.281  16.802 -0.5060 -0.0943 -0.7984
 4003TIP3    H133424   1.301   0.287  16.868 -0.2941  0.2203 -0.6039
 4003TIP3    H233425   1.359   0.361  16.750  0.4360  0.5382 -0.0544
 4004TIP3   OH233426   5.682   2.126   4.897  0.2385  0.6765  0.1708
 4004TIP3    H133427   5.673   2.063   4.826  2.7020  0.0502  0.3306
 4004TIP3    H233428   5.620   2.196   4.875  0.0688 -0.0690 -1.9353
 4005TIP3   OH233429   1.009   1.620   3.254  0.3410  0.0325  0.5497
 4005TIP3    H133430   0.916   1.616   3.235  0.3063  0.4323  0.6182
 4005TIP3    H233431   1.018   1.590   3.344  0.2210  0.4596  0.7044
 4006TIP3   OH233432   3.268   0.057   0.331  0.1853 -0.0362 -0.6842
 4006TIP3    H133433   3.304   0.130   0.280 -0.3309 -0.1343 -1.1919
 4006TIP3    H233434   3.174   0.070   0.328  0.0782 -0.8596 -0.9648
 4007TIP3   OH233435   6.737   2.719   1.597 -0.1777  0.2332 -0.0637
 4007TIP3    H133436   6.675   2.719   1.670  0.6921 -0.0585  0.6971
 4007TIP3    H233437   6.687   2.751   1.522 -0.5993  2.3454  1.0646
 4008TIP3   OH233438   1.127   2.459   5.382 -0.2235 -0.4405 -0.1729
 4008TIP3    H133439   1.041   2.472   5.341 -0.2345  0.3624  0.0923
 4008TIP3    H233440   1.108   2.459   5.476 -0.1598 -1.9897 -0.1410
 4009TIP3   OH233441   5.613   1.700  12.010 -0.3914 -0.2621  0.0425
 4009TIP3    H133442   5.552   1.661  11.947  0.2986  0.3907 -1.0608
 4009TIP3    H233443   5.617   1.792  11.986 -1.0654  0.2779  1.8545
 4010TIP3   OH233444   2.894   0.294   5.068 -0.0745  0.7492  0.0377
 4010TIP3    H133445   2.824   0.231   5.086  0.9989 -0.2670  0.8072
 4010TIP3    H233446   2.918   0.278   4.977  2.3470 -2.2779  1.0564
 4011TIP3   OH233447   3.146   3.133  12.447 -0.0264  0.2746 -0.2432
 4011TIP3    H133448   3.218   3.150  12.386 -1.1556 -1.6429 -2.2570
 4011TIP3    H233449   3.098   3.217  12.451  0.9436  0.8714 -0.7673
 4012TIP3   OH233450   1.481   5.825  16.646 -0.0655 -0.2493  0.1982
 4012TIP3    H133451   1.570   5.827  16.681 -0.0629 -0.0586  0.1817
 4012TIP3    H233452   1.439   5.752  16.690 -0.3360  0.5336  1.2684
 4013TIP3   OH233453   1.262   3.735  12.881  0.0277  0.0155 -0.3895
 4013TIP3    H133454   1.203   3.661  12.895 -1.8008  1.0929 -1.9212
 4013TIP3    H233455   1.332   3.701  12.825 -0.5462 -0.6628 -0.6949
 4014TIP3   OH233456   0.532   2.717   2.558  0.3384  0.4642 -0.4467
 4014TIP3    H133457   0.586   2.757   2.627  1.1949  1.7751 -1.8041
 4014TIP3    H233458   0.595   2.671   2.503 -0.4286 -1.2051  0.0215
 4015TIP3   OH233459   3.135   4.136  16.937  0.0457  0.3751  0.1616
 4015TIP3    H133460   3.086   4.219  16.936  0.3741  0.5935  1.1128
 4015TIP3    H233461   3.226   4.163  16.943  0.0635 -0.0365  2.5483
 4016TIP3   OH233462   0.929   0.215  12.203  0.4335  0.1670 -0.1493
 4016TIP3    H133463   0.951   0.247  12.116  0.4915 -1.7897 -0.8901
 4016TIP3    H233464   0.901   0.293  12.251  3.0453  1.7443 -1.0314
 4017TIP3   OH233465   3.741   2.298  14.312  0.4290  0.0033 -0.4498
 4017TIP3    H133466   3.799   2.276  14.385  1.4846 -0.1598 -1.2998
 4017TIP3    H233467   3.703   2.382  14.335  1.3428  0.3169 -0.0447
 4018TIP3   OH233468   5.847   5.379  13.266 -0.4946 -0.0549 -0.3465
 4018TIP3    H133469   5.906   5.315  13.228  0.1450 -0.6565  1.5435
 4018TIP3    H233470   5.904   5.437  13.317 -1.4155 -0.1285  0.8157
 4019TIP3   OH233471   2.249   2.695   6.527 -0.0503 -0.1750  0.2136
 4019TIP3    H133472   2.315   2.723   6.590 -0.5665 -2.3120  1.8111
 4019TIP3    H233473   2.290   2.712   6.442  1.7473  0.3520  1.1127
 4020TIP3   OH233474   3.795   3.751   1.811  0.3125 -0.0467  0.0154
 4020TIP3    H133475   3.754   3.678   1.858 -1.2176  0.4289 -0.5321
 4020TIP3    H233476   3.728   3.782   1.751  0.8797  1.9039  0.3074
 4021TIP3   OH233477   1.348   1.980   3.926  0.4883 -0.0908 -0.1534
 4021TIP3    H133478   1.379   2.069   3.913  0.5247 -0.0720  0.0558
 4021TIP3    H233479   1.406   1.926   3.872  0.2682  0.0423 -0.5261
 4022TIP3   OH233480   5.815   3.473   0.131 -1.3074 -0.4660 -0.0120
 4022TIP3    H133481   5.900   3.470   0.087 -1.0515 -0.4529  0.4723
 4022TIP3    H233482   5.768   3.544   0.088 -0.1299  1.2149  1.3643
 4023TIP3   OH233483   2.900   2.967  13.208 -0.0690  0.2514  0.3435
 4023TIP3    H133484   2.980   3.002  13.170 -0.0983 -1.1497 -1.1155
 4023TIP3    H233485   2.928   2.925  13.289  0.2948  1.6927  0.9897
 4024TIP3   OH233486   4.023   6.628  15.557  0.4772 -0.0294  0.0353
 4024TIP3    H133487   4.072   6.610  15.477  0.0071  2.0332 -0.7832
 4024TIP3    H233488   4.050   6.716  15.582 -0.6607  0.0139  1.1897
 4025TIP3   OH233489   4.761   4.255   6.874 -0.7324  0.3776 -0.0996
 4025TIP3    H133490   4.726   4.343   6.886 -0.0292  0.7122 -0.4229
 4025TIP3    H233491   4.710   4.218   6.803  0.3214  1.2948 -1.3824
 4026TIP3   OH233492   5.309   4.229  15.860 -0.0549 -0.2112  0.2250
 4026TIP3    H133493   5.295   4.323  15.849 -2.2491 -0.7072 -2.2356
 4026TIP3    H233494   5.277   4.210  15.949 -1.0668  1.1302  0.1706
 4027TIP3   OH233495   4.666   4.506   3.579  0.4653  0.0498 -0.1108
 4027TIP3    H133496   4.610   4.430   3.597  1.1437 -0.2042  1.0411
 4027TIP3    H233497   4.604   4.578   3.564 -0.1826 -0.4451  0.1259
 4028TIP3   OH233498   1.079   5.044  12.667  0.1355 -0.1066  0.6502
 4028TIP3    H133499   1.134   5.073  12.739 -1.6056  3.0753  0.8879
 4028TIP3    H233500   0.990   5.066  12.694 -0.7124  0.1068 -1.9590
 4029TIP3   OH233501   5.301   5.478  12.281  0.4515 -0.2345  0.4081
 4029TIP3    H133502   5.358   5.404  12.301 -0.3968 -0.9174  0.3891
 4029TIP3    H233503   5.304   5.533  12.360  1.9717  0.3236  0.0005
 4030TIP3   OH233504   4.078   0.102   1.614 -0.4279  0.6566  0.5465
 4030TIP3    H133505   4.060   0.194   1.629 -1.1361  0.4040  1.3491
 4030TIP3    H233506   4.172   0.092   1.630 -0.4927  1.0955  1.2296
 4031TIP3   OH233507   3.327   3.842  15.047 -0.2753  0.5805 -0.2410
 4031TIP3    H133508   3.287   3.756  15.034 -1.0188  1.0567 -1.2972
 4031TIP3    H233509   3.329   3.854  15.142  0.8708 -1.0664 -0.0255
 4032TIP3   OH233510   0.477   4.671   1.584  0.0997 -0.0006  0.2654
 4032TIP3    H133511   0.400   4.707   1.540  0.6518 -0.8309 -1.4642
 4032TIP3    H233512   0.445   4.592   1.627 -0.2225  0.2144  0.4242
 4033TIP3   OH233513   2.485   1.063   1.549 -0.0746  0.4999 -0.4175
 4033TIP3    H133514   2.566   1.094   1.589  1.0273 -1.2838 -1.1262
 4033TIP3    H233515   2.462   0.984   1.599 -1.2768  0.8696 -0.3532
 4034TIP3   OH233516   3.780   0.474  11.512 -0.4313  0.0726 -0.0425
 4034TIP3    H133517   3.788   0.452  11.605 -0.1618 -0.2651 -0.1437
 4034TIP3    H233518   3.721   0.550  11.511  2.4967  2.5639  0.7212
 4035TIP3   OH233519   3.703   3.355   2.583 -0.3659 -0.0559 -0.2205
 4035TIP3    H133520   3.641   3.401   2.526  0.0572  0.5917 -0.1657
 4035TIP3    H233521   3.786   3.359   2.536 -0.1166  0.0759  0.2317
 4036TIP3   OH233522   2.411   2.875   5.895  0.3193  0.2545 -0.5484
 4036TIP3    H133523   2.473   2.830   5.952 -1.9476 -0.8824  1.1722
 4036TIP3    H233524   2.361   2.805   5.854 -0.6414  1.1395 -0.9363
 4037TIP3   OH233525   3.728   2.507  12.166 -0.0227 -0.2118 -0.4579
 4037TIP3    H133526   3.759   2.501  12.076 -1.2690 -2.0628 -0.8222
 4037TIP3    H233527   3.803   2.543  12.215  1.7726 -2.0019 -1.7162
 4038TIP3   OH233528   1.101   4.487   2.724 -0.1387 -0.0841  0.1885
 4038TIP3    H133529   1.036   4.416   2.718 -0.2548  0.0352  0.0180
 4038TIP3    H233530   1.182   4.443   2.749 -0.1094 -0.3380 -0.3427
 4039TIP3   OH233531   2.649   1.264  15.051 -0.7691  0.6135 -0.1251
 4039TIP3    H133532   2.590   1.333  15.080 -0.5665  0.7555 -0.0472
 4039TIP3    H233533   2.726   1.273  15.108 -1.3610 -0.6417  0.9155
 4040TIP3   OH233534   2.146   3.173   4.489 -0.2641  0.1687  0.1597
 4040TIP3    H133535   2.074   3.230   4.459  0.9706  1.3134 -0.7382
 4040TIP3    H233536   2.103   3.107   4.543 -2.0447  0.5954 -0.6574
 4041TIP3   OH233537   4.206   0.556  13.149  0.0886  0.8273 -0.4110
 4041TIP3    H133538   4.125   0.580  13.194 -0.9585  0.6781 -2.1179
 4041TIP3    H233539   4.177   0.520  13.065  1.9028  0.0194 -0.7492
 4042TIP3   OH233540   4.182   5.437  11.917 -0.4115 -0.5055  0.4873
 4042TIP3    H133541   4.150   5.415  12.004  0.4658 -1.8446  0.5008
 4042TIP3    H233542   4.256   5.379  11.903  0.0230  0.3148 -0.8036
 4043TIP3   OH233543   6.565   4.558   2.197  0.4125  0.0510  0.0372
 4043TIP3    H133544   6.598   4.647   2.188  1.8224 -0.4297  0.3226
 4043TIP3    H233545   6.608   4.523   2.275 -1.3913 -0.3458  0.9210
 4044TIP3   OH233546   6.163   6.329   3.595  0.4461 -0.0598  0.1575
 4044TIP3    H133547   6.230   6.278   3.549  3.2457  1.9880  1.6240
 4044TIP3    H233548   6.146   6.404   3.537  1.5748  0.8400  0.9280
 4045TIP3   OH233549   6.764   3.329  14.572 -0.1469  0.3989  0.3113
 4045TIP3    H133550   6.838   3.339  14.511  0.1321  0.1980  0.6124
 4045TIP3    H233551   6.699   3.279  14.523 -0.1672  0.7504 -0.0269
 4046TIP3   OH233552   1.829   0.779  17.114 -0.5042  0.1236  0.3846
 4046TIP3    H133553   1.889   0.849  17.140 -0.9307  1.2002 -1.3398
 4046TIP3    H233554   1.826   0.784  17.019 -0.3929 -2.4395  0.1979
 4047TIP3   OH233555   3.111   4.155  14.075 -0.3709  0.4708  0.0435
 4047TIP3    H133556   3.169   4.161  14.151 -1.1443  3.1002  0.5313
 4047TIP3    H233557   3.026   4.130  14.113 -0.6025  1.1283 -0.0384
 4048TIP3   OH233558   4.558   3.425   4.119 -0.4173 -0.2611 -0.1975
 4048TIP3    H133559   4.547   3.516   4.144 -1.5401 -0.1743 -0.9378
 4048TIP3    H233560   4.588   3.428   4.028 -0.3310 -0.6190 -0.1824
 4049TIP3   OH233561   4.784   0.712  12.880  0.4679 -0.1237 -0.2820
 4049TIP3    H133562   4.753   0.767  12.807 -0.1796  0.5218  0.4652
 4049TIP3    H233563   4.781   0.623  12.845  0.8000  0.2353 -1.2640
 4050TIP3   OH233564   2.430   4.527  16.470  0.0623  0.0037  0.0919
 4050TIP3    H133565   2.483   4.468  16.417 -1.1834 -1.9299  0.9014
 4050TIP3    H233566   2.488   4.553  16.541  0.7619  0.1377 -0.5060
 4051TIP3   OH233567   6.645   3.026   0.882 -0.4755  0.2546  0.0970
 4051TIP3    H133568   6.623   3.090   0.950 -0.0800  0.4653  0.0272
 4051TIP3    H233569   6.590   2.950   0.902  1.4791 -0.7209  2.2283
 4052TIP3   OH233570   5.536   4.645   3.187 -0.5145  0.1839  0.4429
 4052TIP3    H133571   5.610   4.613   3.239  0.4900  1.1754 -0.3222
 4052TIP3    H233572   5.535   4.739   3.203 -0.8191  0.3566 -0.5590
 4053TIP3   OH233573   5.451   4.403  14.386 -0.7233 -0.2519 -0.3973
 4053TIP3    H133574   5.424   4.359  14.466  0.7802 -0.5631 -0.0377
 4053TIP3    H233575   5.411   4.490  14.392  1.2390  0.6094  1.8636
 4054TIP3   OH233576   5.299   3.940   5.531 -0.3466  0.2899  0.2265
 4054TIP3    H133577   5.212   3.939   5.571 -0.6776  2.0153 -0.3845
 4054TIP3    H233578   5.283   3.963   5.440  0.8558  2.4461  0.4904
 4055TIP3   OH233579   1.266   1.062  17.194 -0.5577 -0.2617 -0.2024
 4055TIP3    H133580   1.346   1.099  17.157  0.7540 -0.2478  2.3614
 4055TIP3    H233581   1.275   0.967  17.180 -0.3037 -0.2197 -0.3384
 4056TIP3   OH233582   6.489   1.379  16.106  0.1031 -0.1163  0.9613
 4056TIP3    H133583   6.548   1.385  16.032 -1.5803  0.4180 -0.4085
 4056TIP3    H233584   6.516   1.299  16.153  1.2948 -0.3678 -0.1217
 4057TIP3   OH233585   6.083   1.315  14.963  0.4165 -0.1704  0.9115
 4057TIP3    H133586   6.137   1.388  14.932  2.1070 -0.8783  2.0489
 4057TIP3    H233587   6.140   1.266  15.020 -0.0376 -3.4740 -1.2155
 4058TIP3   OH233588   4.063   3.312   4.949  0.0332 -0.4337  0.3833
 4058TIP3    H133589   4.149   3.321   4.907 -0.8508  0.3985 -1.3734
 4058TIP3    H233590   4.066   3.227   4.993  1.2603 -1.0898 -0.9062
 4059TIP3   OH233591   0.875   0.640   5.750  0.4526  0.0972  0.0859
 4059TIP3    H133592   0.954   0.658   5.700  0.5691 -1.9376 -0.5528
 4059TIP3    H233593   0.907   0.609   5.835  0.3092  0.4466  0.2703
 4060TIP3   OH233594   3.343   2.064  16.384 -0.1448  0.3580  0.5180
 4060TIP3    H133595   3.389   2.121  16.446  0.7269  0.0996  0.1194
 4060TIP3    H233596   3.251   2.078  16.404  0.0428  1.9242  0.4259
 4061TIP3   OH233597   2.539   5.003  12.140 -0.4238 -0.7993 -0.4419
 4061TIP3    H133598   2.589   5.005  12.058 -0.6796  0.9962 -0.5976
 4061TIP3    H233599   2.475   5.073  12.131  0.6846  0.6616  1.9713
 4062TIP3   OH233600   1.821   5.268  11.174  0.1128 -0.3488  0.0686
 4062TIP3    H133601   1.756   5.278  11.105  1.3234  0.4129 -1.0191
 4062TIP3    H233602   1.774   5.289  11.255 -1.6320 -2.3566 -0.3353
 4063TIP3   OH233603   4.610   4.990   4.675 -0.2942 -0.3731 -0.1959
 4063TIP3    H133604   4.571   4.933   4.609  0.9966  1.4359 -2.7157
 4063TIP3    H233605   4.686   4.941   4.707  0.1602 -0.5907 -1.5189
 4064TIP3   OH233606   2.913   1.316   3.538 -0.2784  0.5160 -0.4838
 4064TIP3    H133607   3.008   1.320   3.548 -0.4119  0.4703  1.0117
 4064TIP3    H233608   2.893   1.222   3.534 -0.4516  0.3805  1.8723
 4065TIP3   OH233609   3.194   5.457   0.927  0.0912 -0.2257  0.1634
 4065TIP3    H133610   3.202   5.449   0.832  0.1586 -1.0781  0.2319
 4065TIP3    H233611   3.162   5.546   0.941  2.4288  0.8191 -0.5273
 4066TIP3   OH233612   5.724   0.148  14.869 -0.2232  0.0348 -0.0580
 4066TIP3    H133613   5.649   0.208  14.874 -1.7484 -1.8345  1.2754
 4066TIP3    H233614   5.684   0.063  14.848  1.6316 -0.8576 -0.1184
 4067TIP3   OH233615   4.363   0.140   0.406  0.2136  0.0805  0.4500
 4067TIP3    H133616   4.350   0.218   0.460  1.3499  0.6339 -0.0409
 4067TIP3    H233617   4.281   0.128   0.359 -0.6804 -0.2064  2.0155
 4068TIP3   OH233618   6.659   5.445  13.423  0.0862 -0.4268  0.6103
 4068TIP3    H133619   6.678   5.452  13.516  2.0823  1.1858  0.1585
 4068TIP3    H233620   6.643   5.536  13.395 -2.6733 -1.0782 -0.2650
 4069TIP3   OH233621   2.146   4.068   0.360  0.0072 -0.6742  0.0108
 4069TIP3    H133622   2.129   4.160   0.384  0.3853 -1.0090  1.6994
 4069TIP3    H233623   2.203   4.074   0.284 -0.9302  0.4764 -0.6580
 4070TIP3   OH233624   6.328   4.949   5.541 -0.0056 -0.8399  0.1134
 4070TIP3    H133625   6.275   4.928   5.618  0.3823 -2.2858  0.0160
 4070TIP3    H233626   6.388   5.017   5.571 -1.4661  0.3809  0.3952
 4071TIP3   OH233627   2.894   5.500  15.310  0.0788  0.5484 -0.9763
 4071TIP3    H133628   2.986   5.527  15.311  0.5329 -0.8716  0.5288
 4071TIP3    H233629   2.856   5.547  15.237  1.8763  1.6127 -1.2866
 4072TIP3   OH233630   2.486   1.540  15.642  0.2242 -0.3199  0.2626
 4072TIP3    H133631   2.489   1.459  15.692 -0.6846  0.1243  1.0769
 4072TIP3    H233632   2.476   1.512  15.551  0.2752 -1.1252  0.4973
 4073TIP3   OH233633   3.801   4.773  14.387  0.3459  0.1087 -0.2089
 4073TIP3    H133634   3.841   4.689  14.412  0.1091 -0.4820 -1.7495
 4073TIP3    H233635   3.708   4.754  14.380 -0.0540  1.0950  1.7379
 4074TIP3   OH233636   3.511   6.459   3.714  0.1725 -0.5735 -0.5365
 4074TIP3    H133637   3.590   6.419   3.676  1.4978 -0.1177  1.5710
 4074TIP3    H233638   3.442   6.439   3.651  1.6394 -2.3622 -1.7072
 4075TIP3   OH233639   2.128   5.053  14.547  0.5990 -0.3904 -0.0495
 4075TIP3    H133640   2.088   5.095  14.471 -0.7521  0.3869  1.0393
 4075TIP3    H233641   2.090   5.099  14.622  3.2604  0.1092  1.0821
 4076TIP3   OH233642   0.039   6.540   1.602  0.3112 -0.8097  0.1212
 4076TIP3    H133643   0.037   6.491   1.520 -0.8881 -1.7156  0.6620
 4076TIP3    H233644   0.009   6.477   1.668  0.0064  0.2751  1.0420
 4077TIP3   OH233645   3.623   5.449  11.321 -0.2209  0.4739  0.3044
 4077TIP3    H133646   3.637   5.524  11.262 -0.0811  1.4047  1.4731
 4077TIP3    H233647   3.711   5.415  11.337 -0.3758 -0.8023 -1.2383
 4078TIP3   OH233648   4.201   6.687  13.232 -0.0749  0.2725 -0.2224
 4078TIP3    H133649   4.202   6.762  13.291  0.2066 -0.2136  0.4006
 4078TIP3    H233650   4.189   6.725  13.145 -0.5455  0.9929  0.1462
 4079TIP3   OH233651   4.578   3.998   5.091  0.3461  0.7790  0.0707
 4079TIP3    H133652   4.561   3.904   5.096 -0.8681  0.9760 -0.1209
 4079TIP3    H233653   4.673   4.005   5.100  0.6263 -0.5638 -1.3806
 4080TIP3   OH233654   6.171   6.419  11.578 -0.6380 -0.1460  0.0612
 4080TIP3    H133655   6.087   6.385  11.549  0.4616 -0.8372 -2.6426
 4080TIP3    H233656   6.212   6.346  11.625 -0.2181 -1.0783 -1.6374
 4081TIP3   OH233657   2.513   3.199  13.286 -0.1217  0.0524 -0.2508
 4081TIP3    H133658   2.431   3.245  13.306  0.3608  1.0644 -0.5267
 4081TIP3    H233659   2.554   3.186  13.372 -0.7381 -0.8321 -0.0661
 4082TIP3   OH233660   1.604   3.280   4.716  0.7102  0.1549 -0.5026
 4082TIP3    H133661   1.661   3.354   4.734  1.1078 -0.3293  0.2990
 4082TIP3    H233662   1.580   3.247   4.803  0.1173 -0.3278 -0.8460
 4083TIP3   OH233663   1.317   4.596  11.234 -0.0964 -0.1160  0.0701
 4083TIP3    H133664   1.366   4.609  11.153 -0.4357  0.8494  0.0101
 4083TIP3    H233665   1.319   4.501  11.248  1.6619 -0.1226 -0.0034
 4084TIP3   OH233666   5.116   5.836  16.747  0.3840  0.2304  0.2293
 4084TIP3    H133667   5.099   5.779  16.672 -0.1210 -0.4734  0.8780
 4084TIP3    H233668   5.127   5.923  16.708  1.3126 -0.3172 -0.7842
 4085TIP3   OH233669   0.510   0.141  12.824  0.1060 -0.6580  0.3192
 4085TIP3    H133670   0.436   0.188  12.862  0.0681 -0.0404 -0.4776
 4085TIP3    H233671   0.537   0.196  12.750  1.0058 -1.1569  0.2677
 4086TIP3   OH233672   2.627   4.037  16.135  0.2548  0.1579 -0.2452
 4086TIP3    H133673   2.537   4.048  16.104 -0.4082 -2.9486  0.2880
 4086TIP3    H233674   2.681   4.067  16.062 -1.2024  0.6662 -1.1633
 4087TIP3   OH233675   1.758   4.597  16.949  0.2948 -0.6300 -0.1502
 4087TIP3    H133676   1.667   4.603  16.920  0.0097 -0.8808  0.6462
 4087TIP3    H233677   1.759   4.641  17.034  1.5851  2.0972 -1.4652
 4088TIP3   OH233678   5.027   3.220  12.555 -0.3837  0.2719 -0.2817
 4088TIP3    H133679   5.033   3.251  12.645 -0.0347  1.7974 -0.8110
 4088TIP3    H233680   5.113   3.238  12.517 -0.7695  0.3633 -1.1358
 4089TIP3   OH233681   2.574   1.478   3.568 -0.3017 -0.3570 -0.3020
 4089TIP3    H133682   2.534   1.391   3.572  0.4670 -0.7892 -1.5708
 4089TIP3    H233683   2.645   1.475   3.633 -0.4941 -0.5586 -0.1002
 4090TIP3   OH233684   3.366   6.564  14.687 -0.7603 -0.0814 -0.0412
 4090TIP3    H133685   3.318   6.539  14.609 -1.1535  1.4933 -0.3423
 4090TIP3    H233686   3.302   6.610  14.742 -0.2910 -0.4267  0.8245
 4091TIP3   OH233687   6.309   1.333  15.620  0.3956 -0.5585  0.4123
 4091TIP3    H133688   6.321   1.358  15.529 -0.1284 -0.1201  0.4566
 4091TIP3    H233689   6.319   1.238  15.621 -1.0998 -0.7642 -0.3724
 4092TIP3   OH233690   6.138   2.867   2.280  0.0752  0.2863  0.0156
 4092TIP3    H133691   6.052   2.887   2.244  0.3666 -0.1590 -0.9691
 4092TIP3    H233692   6.134   2.895   2.371 -1.5698 -0.9541  0.3638
 4093TIP3   OH233693   1.574   0.241  13.414  0.2125  0.1161  0.6508
 4093TIP3    H133694   1.621   0.291  13.347 -1.0835 -0.4218 -0.7062
 4093TIP3    H233695   1.625   0.160  13.423 -0.1281 -0.2387 -0.4301
 4094TIP3   OH233696   5.403   6.456   4.436  0.6958 -0.2271 -0.1623
 4094TIP3    H133697   5.378   6.432   4.525  1.4173  0.5900  0.2779
 4094TIP3    H233698   5.494   6.485   4.444  0.4801  0.7497 -0.9877
 4095TIP3   OH233699   1.999   2.288  15.325  0.0199  0.3734 -0.4841
 4095TIP3    H133700   1.963   2.233  15.394 -0.2705  1.1337 -0.0057
 4095TIP3    H233701   2.081   2.246  15.300 -0.0408 -0.0914  0.0951
 4096TIP3   OH233702   1.712   4.762   2.524 -0.4549  0.3357  0.2722
 4096TIP3    H133703   1.711   4.831   2.590 -1.4516  1.2451 -0.6399
 4096TIP3    H233704   1.710   4.680   2.574  1.8763  0.8830  1.4038
 4097TIP3   OH233705   2.780   4.096   2.492  0.1682  0.2475 -0.6076
 4097TIP3    H133706   2.874   4.110   2.478  0.5749  2.6141  3.2779
 4097TIP3    H233707   2.738   4.167   2.444  0.3560 -0.3641 -1.7186
 4098TIP3   OH233708   5.970   5.919   3.490  0.7943 -0.3554 -0.4990
 4098TIP3    H133709   5.962   5.835   3.446 -0.1469 -0.8022  0.4726
 4098TIP3    H233710   6.053   5.913   3.537 -0.3514 -1.7686  1.5304
 4099TIP3   OH233711   2.302   3.354  16.960 -0.2626  0.0506 -0.3512
 4099TIP3    H133712   2.333   3.263  16.959  0.2986  0.2440 -0.4041
 4099TIP3    H233713   2.340   3.393  16.881  0.7479  0.7515  0.4533
 4100TIP3   OH233714   1.086   2.800  16.955 -0.1104  0.2916 -0.3671
 4100TIP3    H133715   1.143   2.868  16.919  0.9638  0.2853  1.2330
 4100TIP3    H233716   1.136   2.719  16.945 -0.4980  0.0472 -0.3530
 4101TIP3   OH233717   2.376   1.619   1.930 -0.7382 -0.3814 -0.1738
 4101TIP3    H133718   2.305   1.679   1.953  0.2563  1.1192 -0.8611
 4101TIP3    H233719   2.424   1.664   1.861  0.3132 -1.7950 -0.4119
 4102TIP3   OH233720   3.712   2.775  11.983  0.7908  0.1656  0.5063
 4102TIP3    H133721   3.663   2.822  12.050  1.4848  1.3297  0.2229
 4102TIP3    H233722   3.646   2.725  11.935  0.0578  0.7083  0.9313
 4103TIP3   OH233723   0.819   3.389   4.301  0.2220 -0.5606  0.4561
 4103TIP3    H133724   0.895   3.336   4.278 -0.2839 -0.7980 -0.7910
 4103TIP3    H233725   0.758   3.376   4.228 -0.8840 -0.1255  1.2721
 4104TIP3   OH233726   0.752   3.382  14.697  0.4161 -0.2223 -0.0775
 4104TIP3    H133727   0.841   3.364  14.724  1.1755  0.0105 -2.2263
 4104TIP3    H233728   0.705   3.400  14.778  2.4980  0.4470  1.0347
 4105TIP3   OH233729   0.248   2.248  11.292  0.0337  0.0668  0.3198
 4105TIP3    H133730   0.260   2.332  11.335 -0.1999 -0.1364  0.7950
 4105TIP3    H233731   0.221   2.269  11.203  1.3062  0.5062  0.0185
 4106TIP3   OH233732   2.048   5.705  13.634  0.6893  0.3420 -0.1594
 4106TIP3    H133733   2.065   5.656  13.554  2.0658 -0.7000  0.7200
 4106TIP3    H233734   2.026   5.793  13.604 -1.4239 -0.6292 -1.7702
 4107TIP3   OH233735   1.461   0.520   3.329 -0.5570  0.0737  0.3027
 4107TIP3    H133736   1.541   0.573   3.335 -1.3521  1.4079 -0.4135
 4107TIP3    H233737   1.492   0.432   3.309  0.6893  0.9791 -2.1643
 4108TIP3   OH233738   3.044   6.367  12.173 -0.2100 -0.2390  0.3649
 4108TIP3    H133739   3.095   6.315  12.235 -0.3263  1.4167  1.9806
 4108TIP3    H233740   3.011   6.305  12.109  4.0692 -1.3943 -1.0231
 4109TIP3   OH233741   2.557   3.001   4.639 -0.2265  0.1938  0.3599
 4109TIP3    H133742   2.591   3.016   4.727 -0.2590  0.3303  0.3501
 4109TIP3    H233743   2.573   3.083   4.592  1.3375 -0.4412 -0.2705
 4110TIP3   OH233744   5.542   6.215   3.367  0.0862 -0.2848 -0.0496
 4110TIP3    H133745   5.561   6.145   3.305  0.6976 -0.6368  0.5319
 4110TIP3    H233746   5.496   6.172   3.438  1.5072 -0.3327  0.8736
 4111TIP3   OH233747   3.888   5.495  11.537  0.1178  0.0743  0.1084
 4111TIP3    H133748   3.913   5.417  11.588 -0.6410  0.6751  1.4655
 4111TIP3    H233749   3.934   5.485  11.454  1.4174 -0.9651  0.9034
 4112TIP3   OH233750   2.401   3.255  11.204  0.3339  0.0562 -0.0407
 4112TIP3    H133751   2.445   3.176  11.175  2.1852  1.3138 -0.8751
 4112TIP3    H233752   2.342   3.226  11.274  0.8547 -2.0403 -0.4127
 4113TIP3   OH233753   3.065   3.169  16.800 -0.0174 -0.4124  0.3829
 4113TIP3    H133754   3.006   3.184  16.874 -2.0371 -1.6942 -0.8822
 4113TIP3    H233755   3.094   3.078  16.811  0.7984 -0.1689  0.3284
 4114TIP3   OH233756   5.181   2.241  14.803 -0.3042 -0.4376  0.2857
 4114TIP3    H133757   5.139   2.236  14.889 -0.2211  0.8302  0.4174
 4114TIP3    H233758   5.237   2.318  14.808 -1.3705  0.5083 -1.3772
 4115TIP3   OH233759   1.191   5.701   6.242  0.0926  0.3374  0.3488
 4115TIP3    H133760   1.170   5.791   6.268  0.0231  0.0310  1.3931
 4115TIP3    H233761   1.273   5.681   6.286  0.1593 -0.0889  0.0442
 4116TIP3   OH233762   5.466   3.004   3.192 -0.1783  0.2583 -0.4775
 4116TIP3    H133763   5.549   3.034   3.228  0.2643  1.2616 -2.2443
 4116TIP3    H233764   5.488   2.969   3.105 -1.6938  1.3332 -1.3344
 4117TIP3   OH233765   4.438   1.032   2.370 -0.1819  0.4389  0.5480
 4117TIP3    H133766   4.355   1.051   2.411  0.5861  1.4184  1.6939
 4117TIP3    H233767   4.485   1.116   2.368  1.6373 -0.4559  1.9568
 4118TIP3   OH233768   3.706   2.961   1.938 -0.7978 -0.4744 -0.1347
 4118TIP3    H133769   3.614   2.954   1.964  0.0473 -2.2489  2.9239
 4118TIP3    H233770   3.738   3.039   1.984 -0.4972 -0.5558 -0.2038
 4119TIP3   OH233771   5.299   3.211  16.512 -0.3522 -0.1359 -0.1840
 4119TIP3    H133772   5.244   3.139  16.481 -0.5851 -0.9846  1.9871
 4119TIP3    H233773   5.387   3.173  16.518 -0.1729  0.2244 -0.5067
 4120TIP3   OH233774   4.124   4.603  14.137  0.5482 -0.0137 -0.3720
 4120TIP3    H133775   4.098   4.558  14.218  2.5245  0.4097  0.5525
 4120TIP3    H233776   4.076   4.685  14.139  1.0394  0.2665  0.7170
 4121TIP3   OH233777   0.558   5.180   5.242  0.0800  0.2117 -0.1363
 4121TIP3    H133778   0.580   5.087   5.240 -0.0660  0.0748  2.0962
 4121TIP3    H233779   0.632   5.223   5.198  0.4155 -0.9070 -0.6955
 4122TIP3   OH233780   5.014   0.075  13.167 -0.0297  0.2430  0.3441
 4122TIP3    H133781   4.982   0.079  13.077  2.4514 -0.1275 -0.6139
 4122TIP3    H233782   4.935   0.056  13.219 -1.3900 -0.4023 -1.8216
 4123TIP3   OH233783   5.647   2.242   4.122 -0.2816  0.4798 -0.4158
 4123TIP3    H133784   5.632   2.251   4.216 -0.7562 -0.5432 -0.3854
 4123TIP3    H233785   5.600   2.316   4.084  0.7329  1.4720  0.2011
 4124TIP3   OH233786   1.008   1.473   1.339 -0.0193 -0.3508  0.3235
 4124TIP3    H133787   0.973   1.402   1.285 -1.0868  0.9369 -0.7462
 4124TIP3    H233788   1.070   1.517   1.281 -0.8827  0.8028  0.2430
 4125TIP3   OH233789   0.030   4.493  11.569 -0.2432 -0.2295  0.4416
 4125TIP3    H133790   0.113   4.521  11.530 -0.9034  2.0975  0.5539
 4125TIP3    H233791  -0.036   4.516  11.504 -0.9865 -0.1353  1.2138
 4126TIP3   OH233792   1.798   2.762  12.296 -0.3506 -0.2261 -0.5374
 4126TIP3    H133793   1.874   2.821  12.294 -0.2747 -0.2740  0.5412
 4126TIP3    H233794   1.745   2.790  12.221 -0.9342  2.0791  0.6261
 4127TIP3   OH233795   1.767   1.413  13.056 -0.0641 -0.4012 -0.1267
 4127TIP3    H133796   1.821   1.481  13.017  2.4632 -2.5796 -0.7001
 4127TIP3    H233797   1.787   1.418  13.150  0.0032 -0.2976 -0.1465
 4128TIP3   OH233798   2.889   5.604  11.661  0.8940 -0.4888 -0.7016
 4128TIP3    H133799   2.828   5.664  11.702  1.0186 -0.8825  0.0726
 4128TIP3    H233800   2.858   5.517  11.685  1.8943 -0.6871 -0.0851
 4129TIP3   OH233801   3.842   2.657   1.294  0.0962 -0.2124  0.5100
 4129TIP3    H133802   3.859   2.732   1.351  1.3868  0.3269 -0.5338
 4129TIP3    H233803   3.929   2.626   1.268 -0.3767 -2.3080  1.1788
 4130TIP3   OH233804   2.710   0.869   2.976 -0.2155 -0.4979  0.1498
 4130TIP3    H133805   2.664   0.953   2.985  0.0229 -0.3186 -0.2858
 4130TIP3    H233806   2.640   0.804   2.976 -0.4743 -0.2309 -0.4043
 4131TIP3   OH233807   6.721   0.768   2.264 -0.4752  0.1918  0.3264
 4131TIP3    H133808   6.629   0.750   2.246 -0.0449  1.2512 -3.8357
 4131TIP3    H233809   6.720   0.840   2.327 -2.5783  1.6456 -1.2690
 4132TIP3   OH233810   0.162   3.684  11.851 -0.5155 -0.4280 -0.3287
 4132TIP3    H133811   0.078   3.681  11.898 -0.9865 -0.6338 -1.1680
 4132TIP3    H233812   0.188   3.593  11.843 -0.4069 -0.3885 -0.4175
 4133TIP3   OH233813   5.043   5.727  12.212  0.4938  0.5218 -0.2634
 4133TIP3    H133814   5.084   5.762  12.291  0.0469  2.4854 -0.8555
 4133TIP3    H233815   5.065   5.790  12.143 -0.3835 -0.3560 -1.3942
 4134TIP3   OH233816   2.732   3.532  11.680 -0.0526 -0.0545 -0.3782
 4134TIP3    H133817   2.685   3.567  11.756  1.1149 -0.0446  0.3707
 4134TIP3    H233818   2.689   3.573  11.605 -0.4812  0.8537  0.3371
 4135TIP3   OH233819   5.828   0.080   2.231 -0.4688 -0.7956  0.0514
 4135TIP3    H133820   5.734   0.063   2.240  0.1250 -3.5734  3.0405
 4135TIP3    H233821   5.862   0.004   2.183  0.3753 -0.2437 -0.2483
 4136TIP3   OH233822   5.953   1.512  16.452  0.1588 -0.0400 -0.1575
 4136TIP3    H133823   6.031   1.496  16.505 -0.8367 -0.9354  1.0941
 4136TIP3    H233824   5.957   1.606  16.432  1.7264 -0.1395 -0.4385
 4137TIP3   OH233825   5.251   3.720  14.913 -0.5280 -0.2971 -0.6595
 4137TIP3    H133826   5.339   3.707  14.879 -1.3449 -0.7079 -2.7869
 4137TIP3    H233827   5.218   3.631  14.928 -1.2790 -0.2561 -1.9099
 4138TIP3   OH233828   5.892   6.169  16.437 -0.8014 -0.4477  0.9111
 4138TIP3    H133829   5.874   6.205  16.524 -0.7077 -1.3706  1.3282
 4138TIP3    H233830   5.812   6.122  16.414 -0.5680 -0.7966  0.8092
 4139TIP3   OH233831   0.511   3.351   3.399  0.4907  0.0194  0.0190
 4139TIP3    H133832   0.429   3.320   3.438  1.0759 -0.0373  1.2295
 4139TIP3    H233833   0.483   3.395   3.318 -0.7951  0.4372  0.6545
 4140TIP3   OH233834   6.379   1.632  12.328 -0.2266  0.3709 -0.3937
 4140TIP3    H133835   6.319   1.594  12.391 -0.5195  1.6591  0.1460
 4140TIP3    H233836   6.323   1.669  12.259  0.0002  0.5297 -0.4961
 4141TIP3   OH233837   2.178   0.760  12.710  0.2435  0.3221 -0.0514
 4141TIP3    H133838   2.148   0.789  12.797 -2.1064  0.4194 -0.8351
 4141TIP3    H233839   2.193   0.842  12.662 -0.4034  0.2585 -0.3600
 4142TIP3   OH233840   2.850   6.116   3.094  0.4006  0.1757  0.3722
 4142TIP3    H133841   2.868   6.209   3.082  0.0718  0.2894  0.7285
 4142TIP3    H233842   2.759   6.105   3.067  0.3042  0.0451  0.7396
 4143TIP3   OH233843   2.420   2.050  11.803  0.1327  0.4342 -0.3287
 4143TIP3    H133844   2.472   2.103  11.863 -0.1132 -0.0560  0.3311
 4143TIP3    H233845   2.360   2.002  11.860  0.0551 -0.2185 -0.9541
 4144TIP3   OH233846   5.489   5.946   3.693 -0.5000  0.3289  0.2909
 4144TIP3    H133847   5.579   5.935   3.722 -0.3765  0.6888  0.0533
 4144TIP3    H233848   5.445   5.989   3.766 -0.4585  0.2285  0.3744
 4145TIP3   OH233849   6.045   3.265   2.819  0.1332  0.1013 -0.0765
 4145TIP3    H133850   6.099   3.343   2.806 -0.6927  0.4211 -2.0208
 4145TIP3    H233851   5.966   3.297   2.862 -0.1866  0.3702 -0.8356
 4146TIP3   OH233852   6.548   6.468  16.501  0.1930  0.0217  0.2309
 4146TIP3    H133853   6.555   6.375  16.524 -1.0817  0.0229  0.6845
 4146TIP3    H233854   6.467   6.497  16.542 -0.4414  0.8562 -1.5500
 4147TIP3   OH233855   5.097   0.378   2.993  0.3574  0.2014 -0.0288
 4147TIP3    H133856   5.118   0.466   3.023  0.7575 -0.3708  1.4899
 4147TIP3    H233857   5.001   0.373   2.996  0.2226  1.0626 -1.6813
 4148TIP3   OH233858   5.415   3.936  10.575 -0.3233 -0.6098 -0.2582
 4148TIP3    H133859   5.380   3.849  10.591  0.3882 -0.8066  0.3023
 4148TIP3    H233860   5.363   3.994  10.629  0.1925 -0.8984  0.5650
 4149TIP3   OH233861   4.182   1.491   0.196 -0.0320 -0.0927 -0.2352
 4149TIP3    H133862   4.262   1.520   0.153  0.8534 -3.2716 -1.0048
 4149TIP3    H233863   4.115   1.495   0.128  0.5159 -1.4984 -0.9009
 4150TIP3   OH233864   3.068   0.974   5.859  0.0707  0.2474 -0.2197
 4150TIP3    H133865   3.013   0.922   5.800 -1.0607 -0.7450  1.6062
 4150TIP3    H233866   3.129   0.911   5.897 -0.5585  0.4313  1.1618
 4151TIP3   OH233867   3.306   1.325   3.916  0.3468 -0.0752  0.0223
 4151TIP3    H133868   3.359   1.404   3.920 -2.0797  1.7298 -1.0566
 4151TIP3    H233869   3.273   1.315   4.006 -0.4461  0.9987 -0.1285
 4152TIP3   OH233870   4.557   3.359   5.961  0.5375 -0.3945 -0.1341
 4152TIP3    H133871   4.544   3.265   5.945  0.5501 -1.0548  3.0462
 4152TIP3    H233872   4.629   3.362   6.023  0.8580  1.7918 -0.5646
 4153TIP3   OH233873   4.631   5.057   2.490  0.0133  0.3492 -0.3495
 4153TIP3    H133874   4.565   5.003   2.532  0.9599  0.4887  1.4024
 4153TIP3    H233875   4.665   5.113   2.560  1.8144  0.4270 -1.2169
 4154TIP3   OH233876   4.811   6.282   0.341  0.8241 -0.1646  0.1315
 4154TIP3    H133877   4.836   6.359   0.393  0.5325  0.4041 -0.5587
 4154TIP3    H233878   4.794   6.316   0.254  0.8970 -1.0519 -0.2423
 4155TIP3   OH233879   1.179   6.573   5.735 -0.4808 -0.1739 -0.0661
 4155TIP3    H133880   1.273   6.571   5.720  0.0076  2.1584  2.1006
 4155TIP3    H233881   1.148   6.651   5.688 -1.5594 -1.4525 -1.5853
 4156TIP3   OH233882   1.944   2.705  12.501 -0.1784  0.2532 -0.0985
 4156TIP3    H133883   1.879   2.700  12.432  1.8348 -2.1103 -1.9957
 4156TIP3    H233884   1.921   2.634  12.561  0.4609 -0.4234 -0.6382
 4157TIP3   OH233885   4.187   3.706  15.521 -0.3103  0.0129 -0.0214
 4157TIP3    H133886   4.221   3.715  15.432 -0.9432  1.0680 -0.1714
 4157TIP3    H233887   4.185   3.795  15.556  1.2093 -0.5358  1.5618
 4158TIP3   OH233888   1.088   2.472  11.638 -0.4708  0.1804  0.3040
 4158TIP3    H133889   1.133   2.545  11.597 -0.4978 -0.3136 -0.6228
 4158TIP3    H233890   1.110   2.480  11.731  1.1642  0.2135 -0.0493
 4159TIP3   OH233891   2.805   5.305  12.370  0.3271 -0.1378 -0.2449
 4159TIP3    H133892   2.834   5.253  12.296 -1.1154 -0.7185 -0.4255
 4159TIP3    H233893   2.734   5.359  12.336  1.2357  1.3636  0.1436
 4160TIP3   OH233894   0.337   0.154  13.751  0.4903  0.3465  0.1881
 4160TIP3    H133895   0.412   0.095  13.753 -1.3884 -2.1981  0.9763
 4160TIP3    H233896   0.322   0.176  13.843 -0.3884 -0.1026  0.1627
 4161TIP3   OH233897   0.986   1.176  14.367 -0.0008  0.7325  0.4273
 4161TIP3    H133898   1.059   1.225  14.407 -0.1045  1.1759  0.0786
 4161TIP3    H233899   0.962   1.228  14.290 -1.6778  1.3883  1.3619
 4162TIP3   OH233900   3.203   6.616   3.075 -0.0459  0.2292  0.1466
 4162TIP3    H133901   3.272   6.675   3.104 -1.1046  1.2707  0.6623
 4162TIP3    H233902   3.135   6.624   3.142 -0.7612 -0.5755 -0.4594
 4163TIP3   OH233903   2.830   6.276   1.450 -0.0370  0.2288  0.0085
 4163TIP3    H133904   2.921   6.293   1.427 -0.1312  0.7154 -0.0280
 4163TIP3    H233905   2.807   6.196   1.403  0.0739  0.6590 -0.7864
 4164TIP3   OH233906   1.262   0.835  13.558  0.8620 -0.7778  0.3035
 4164TIP3    H133907   1.308   0.900  13.505 -1.2056 -0.6196 -1.3883
 4164TIP3    H233908   1.226   0.885  13.632 -2.0102  0.4540 -1.7567
 4165TIP3   OH233909   4.718   0.437  12.779  0.0080 -0.2740 -0.0547
 4165TIP3    H133910   4.748   0.361  12.730 -1.7656 -1.2248  0.2593
 4165TIP3    H233911   4.660   0.401  12.847 -1.4397  1.3779 -0.3379
 4166TIP3   OH233912   3.405   3.198  16.508 -0.3786  0.2328  0.0688
 4166TIP3    H133913   3.316   3.233  16.501 -0.6305 -0.3575  0.2681
 4166TIP3    H233914   3.402   3.116  16.459 -0.7573 -1.3054  2.5141
 4167TIP3   OH233915   4.888   4.715   0.618 -0.3794  0.7939 -0.3887
 4167TIP3    H133916   4.907   4.740   0.708  1.3752 -1.0763 -0.1701
 4167TIP3    H233917   4.795   4.690   0.619 -1.1558  3.4620  0.1924
 4168TIP3   OH233918   2.440   5.132   4.578 -0.4529  0.3156 -0.3605
 4168TIP3    H133919   2.501   5.191   4.620 -1.7996  0.6890  1.1709
 4168TIP3    H233920   2.459   5.140   4.484  2.4852 -0.3676  0.0813
 4169TIP3   OH233921   6.213   0.913  12.911 -0.0319  0.2468 -0.2568
 4169TIP3    H133922   6.216   0.976  12.839 -1.1629  1.1513  0.4489
 4169TIP3    H233923   6.234   0.965  12.989 -1.0566 -0.2180  0.3451
 4170TIP3   OH233924   3.465   5.566  12.211 -0.4680 -0.3103  0.1423
 4170TIP3    H133925   3.524   5.641  12.216 -0.1882 -0.2980 -2.4233
 4170TIP3    H233926   3.506   5.508  12.147 -1.6031 -1.8338  0.7486
 4171TIP3   OH233927   2.399   1.061   4.981  0.0716  0.2095 -0.0683
 4171TIP3    H133928   2.419   1.152   4.999  2.4832 -0.4591  1.1013
 4171TIP3    H233929   2.447   1.041   4.901 -0.1383 -0.1228 -0.1159
 4172TIP3   OH233930   6.209   6.426  14.733 -0.1116 -0.6187  0.3215
 4172TIP3    H133931   6.190   6.336  14.760  2.3069 -0.5148  2.8817
 4172TIP3    H233932   6.158   6.480  14.793 -1.9941 -0.1736 -1.5654
 4173TIP3   OH233933   3.481   2.042   2.747 -0.2660 -0.6658 -0.0882
 4173TIP3    H133934   3.474   2.033   2.842 -0.7062 -2.0603 -0.2309
 4173TIP3    H233935   3.409   1.990   2.713  1.0175 -1.7911 -1.2126
 4174TIP3   OH233936   3.000   6.076   4.383 -0.6555 -0.7080 -0.1044
 4174TIP3    H133937   3.038   6.151   4.337 -2.4651 -0.1861 -0.8427
 4174TIP3    H233938   3.042   6.076   4.469  0.0445  0.5910 -0.4245
 4175TIP3   OH233939   0.897   1.983  12.928  0.0421  0.4968  0.0076
 4175TIP3    H133940   0.948   1.903  12.920  0.6101  0.9711 -1.5267
 4175TIP3    H233941   0.955   2.045  12.973  1.1619  1.2277 -2.2658
 4176TIP3   OH233942   6.309   4.164  15.772 -0.2701 -0.1960  0.1036
 4176TIP3    H133943   6.392   4.198  15.805  0.0085  0.2218 -1.0116
 4176TIP3    H233944   6.262   4.240  15.740 -1.1763 -0.4067  0.8676
 4177TIP3   OH233945   6.045   1.209   4.688  0.0711 -0.5867 -0.3990
 4177TIP3    H133946   5.964   1.186   4.733 -0.0899  1.2079  0.3066
 4177TIP3    H233947   6.064   1.298   4.716  1.6895 -0.5540 -1.4436
 4178TIP3   OH233948   1.350   3.594  14.997 -0.5893 -0.0123 -0.1829
 4178TIP3    H133949   1.260   3.595  15.029 -0.8963 -0.5722 -0.9799
 4178TIP3    H233950   1.404   3.593  15.076 -1.3079 -1.0029  0.3204
 4179TIP3   OH233951   4.862   3.619  12.623 -0.5010  0.5575  0.0084
 4179TIP3    H133952   4.855   3.714  12.626 -1.4246  0.4858  0.4822
 4179TIP3    H233953   4.870   3.599  12.529  1.0816  1.1678 -0.0089
 4180TIP3   OH233954   3.982   2.898   4.363  0.1509 -0.1111 -0.5045
 4180TIP3    H133955   4.075   2.905   4.386  0.3281 -0.8875 -0.9535
 4180TIP3    H233956   3.980   2.916   4.269 -0.2666  0.6968 -0.3537
 4181TIP3   OH233957   5.570   6.494  12.140 -0.4438 -0.1954  0.1054
 4181TIP3    H133958   5.508   6.448  12.084  0.1748  0.3257 -1.0400
 4181TIP3    H233959   5.655   6.454  12.120  0.4279  2.5499 -2.3034
 4182TIP3   OH233960   5.158   3.101   3.708  1.0244  0.1536  0.0995
 4182TIP3    H133961   5.093   3.055   3.762  0.2169  1.0021 -0.1397
 4182TIP3    H233962   5.120   3.102   3.621  2.0099 -0.5787 -0.3644
 4183TIP3   OH233963   4.502   6.445   2.361  0.0298  0.1644  0.1499
 4183TIP3    H133964   4.425   6.485   2.321 -0.5500  0.1448  1.2133
 4183TIP3    H233965   4.565   6.516   2.368 -0.5056  0.5919  0.7915
 4184TIP3   OH233966   0.236   3.011   1.273 -0.2377  0.0214  0.5776
 4184TIP3    H133967   0.272   2.965   1.349 -0.5784 -0.1127  0.6588
 4184TIP3    H233968   0.165   2.955   1.243 -0.3494  0.2658  0.3914
 4185TIP3   OH233969   1.697   2.979   4.815 -0.0630 -0.2525  0.2683
 4185TIP3    H133970   1.611   2.973   4.857  0.0584 -0.8273  0.4357
 4185TIP3    H233971   1.684   2.942   4.728 -0.4152  1.3104 -0.3879
 4186TIP3   OH233972   0.344   4.353   6.137 -0.2357 -0.5778  0.1874
 4186TIP3    H133973   0.421   4.304   6.108 -0.7744 -0.9277 -0.6871
 4186TIP3    H233974   0.373   4.398   6.216  1.0041 -0.3613 -0.3571
 4187TIP3   OH233975   1.985   3.853   3.361  0.0385  0.0110 -0.3035
 4187TIP3    H133976   1.993   3.763   3.391  1.6560  0.6404  1.3323
 4187TIP3    H233977   1.960   3.846   3.269  0.4858 -2.0987 -0.3003
 4188TIP3   OH233978   1.299   0.411  12.436  0.1314  0.4090 -0.2392
 4188TIP3    H133979   1.285   0.338  12.496 -1.3919  0.5219 -0.4296
 4188TIP3    H233980   1.214   0.455  12.431  0.7051  1.4634 -1.0858
 4189TIP3   OH233981   4.665   0.226  16.444 -0.3746  0.6815  0.0236
 4189TIP3    H133982   4.603   0.254  16.512  0.7264 -1.2633  1.9350
 4189TIP3    H233983   4.749   0.261  16.473  0.8102 -3.1330  1.8099
 4190TIP3   OH233984   4.839   1.220   4.760  0.0353 -0.1483  0.1055
 4190TIP3    H133985   4.834   1.310   4.792  0.9545 -0.0647  0.0336
 4190TIP3    H233986   4.840   1.228   4.665 -1.8781 -0.3573  0.0124
 4191TIP3   OH233987   0.131   1.495  15.293  0.4437  0.1892 -0.6497
 4191TIP3    H133988   0.187   1.423  15.263  0.7222  0.3166 -0.4399
 4191TIP3    H233989   0.093   1.531  15.213 -1.8799 -1.9327 -0.6196
 4192TIP3   OH233990   1.980   3.203  14.866 -1.1255  0.5139 -0.1675
 4192TIP3    H133991   1.916   3.242  14.927 -1.9997 -1.0171 -0.0747
 4192TIP3    H233992   1.974   3.109  14.882 -0.2055  0.2072 -1.5237
 4193TIP3   OH233993   0.554   5.145  17.037  0.0726 -0.4779 -0.1877
 4193TIP3    H133994   0.632   5.183  17.077 -0.2806  0.5951 -0.4898
 4193TIP3    H233995   0.576   5.052  17.025  1.5001 -0.1017 -0.7278
 4194TIP3   OH233996   0.057   1.025   3.067 -0.2378 -0.4423  1.0464
 4194TIP3    H133997  -0.016   1.045   3.009 -0.1995 -1.3790  0.6576
 4194TIP3    H233998   0.110   1.105   3.068 -1.4518  0.3834  1.6299
 4195TIP3   OH233999   0.439   5.215  16.503 -0.1181 -0.0879 -0.2413
 4195TIP3    H134000   0.413   5.125  16.485 -1.6280  0.5478 -1.4608
 4195TIP3    H234001   0.369   5.269  16.465  0.6857  1.6036  0.5394
 4196TIP3   OH234002   6.115   0.009   1.786  0.0783 -0.0017  0.4014
 4196TIP3    H134003   6.163   0.014   1.869 -2.0884 -1.7632  1.8997
 4196TIP3    H234004   6.084   0.098   1.771 -1.4785 -0.0069  2.8797
 4197TIP3   OH234005   3.786   6.520   2.060  0.3794  0.3867 -0.0001
 4197TIP3    H134006   3.848   6.449   2.040 -0.5045 -0.8226  1.3459
 4197TIP3    H234007   3.743   6.539   1.977 -0.9138 -2.2089 -0.0147
 4198TIP3   OH234008   1.775   0.963  15.004  0.1147  0.3847  0.1806
 4198TIP3    H134009   1.812   0.888  14.958 -0.6793  0.2402 -0.2496
 4198TIP3    H234010   1.849   1.005  15.047  0.4423 -1.2220  1.2585
 4199TIP3   OH234011   6.254   4.325  11.504 -0.5007 -0.2686  0.1578
 4199TIP3    H134012   6.251   4.314  11.599  0.5519  3.0172  0.7042
 4199TIP3    H234013   6.344   4.301  11.480 -0.3805  0.1410  0.1979
 4200TIP3   OH234014   2.089   2.104  13.145  0.4160 -0.3699 -0.6364
 4200TIP3    H134015   1.996   2.127  13.142  0.2493 -0.4532  1.7599
 4200TIP3    H234016   2.122   2.126  13.058 -1.2704  2.1267 -0.7635
 4201TIP3   OH234017   2.989   1.353  13.215  0.4864  0.6411 -0.2688
 4201TIP3    H134018   3.078   1.387  13.210  0.8825 -0.2738  0.4332
 4201TIP3    H234019   2.957   1.355  13.124  0.9751  1.5854 -0.4304
 4202TIP3   OH234020   3.698   6.092  15.140  0.8125 -0.0077  0.0373
 4202TIP3    H134021   3.772   6.031  15.138  1.5911  0.9284 -0.7288
 4202TIP3    H234022   3.683   6.113  15.048  0.6905  1.1198  0.3075
 4203TIP3   OH234023   2.350   6.328  13.548 -0.0051 -0.5068 -0.0116
 4203TIP3    H134024   2.417   6.379  13.593 -2.0465  1.7883  0.6200
 4203TIP3    H234025   2.351   6.362  13.459 -1.1405  0.4841  0.3266
 4204TIP3   OH234026   4.478   2.426  15.449  0.2867 -0.0714  0.0637
 4204TIP3    H134027   4.571   2.432  15.427  0.4955  0.2036  0.9736
 4204TIP3    H234028   4.444   2.514  15.433  0.2793 -0.0592  0.1460
 4205TIP3   OH234029   6.149   1.814  15.568 -0.8174  0.4419 -0.2892
 4205TIP3    H134030   6.230   1.815  15.519 -1.6320 -2.2017 -1.8736
 4205TIP3    H234031   6.150   1.731  15.616 -2.2095  0.7156  0.2889
 4206TIP3   OH234032   3.961   3.746  12.770  0.0538  0.6204  0.0354
 4206TIP3    H134033   3.973   3.840  12.786  0.2033  0.5297  0.4699
 4206TIP3    H234034   3.884   3.723  12.821 -0.7168  0.7524 -1.0423
 4207TIP3   OH234035   3.213   2.549  15.593 -0.6388 -0.4924 -0.8863
 4207TIP3    H134036   3.189   2.458  15.579  1.9528 -1.2018 -1.2956
 4207TIP3    H234037   3.300   2.545  15.634 -0.7160  1.8014 -0.3252
 4208TIP3   OH234038   4.151   1.501   1.962  0.2810  0.3387 -0.1874
 4208TIP3    H134039   4.101   1.460   1.892  0.8928 -0.4567 -0.1697
 4208TIP3    H234040   4.103   1.582   1.981 -0.9084 -0.3218 -0.2673
 4209TIP3   OH234041   6.075   2.345  11.759 -0.2153 -0.3547  0.4894
 4209TIP3    H134042   6.048   2.434  11.781  0.1228 -0.0019 -0.4980
 4209TIP3    H234043   6.119   2.313  11.838 -1.1718  0.0030  1.1825
 4210TIP3   OH234044   0.387   2.862   3.306 -0.4404  0.4047 -0.0524
 4210TIP3    H134045   0.422   2.794   3.363 -0.3707  0.1446 -0.4047
 4210TIP3    H234046   0.345   2.924   3.366  2.4778  1.9077  0.6115
 4211TIP3   OH234047   1.427   5.709   1.142  0.1290  0.3513  0.4918
 4211TIP3    H134048   1.361   5.654   1.099  1.7989 -0.6281 -0.9287
 4211TIP3    H234049   1.389   5.729   1.228 -1.6776 -0.7974  0.0133
 4212TIP3   OH234050   4.313   3.337  16.966  0.1072  0.6591 -0.2215
 4212TIP3    H134051   4.309   3.262  17.025  2.6278 -2.4526 -3.5278
 4212TIP3    H234052   4.230   3.334  16.918  0.5355 -0.7621 -0.9564
 4213TIP3   OH234053   4.241   3.881   3.151  0.3319 -0.4529  0.8382
 4213TIP3    H134054   4.263   3.792   3.177 -0.5157 -0.7767  0.4713
 4213TIP3    H234055   4.311   3.935   3.188  0.8745 -1.2712  1.0205
 4214TIP3   OH234056   5.302   1.340  16.221  0.1821 -0.0296 -0.0365
 4214TIP3    H134057   5.242   1.270  16.195  0.4947 -0.2506 -0.1618
 4214TIP3    H234058   5.301   1.401  16.148  0.5122 -0.2934 -0.2595
 4215TIP3   OH234059   4.639   2.566  12.134  0.2540 -0.2700  0.0782
 4215TIP3    H134060   4.634   2.586  12.041  1.5663  0.6005  0.1639
 4215TIP3    H234061   4.559   2.601  12.172  0.0484  0.0043 -0.6121
 4216TIP3   OH234062   4.433   0.803  16.762 -0.0681 -0.2802  0.5305
 4216TIP3    H134063   4.474   0.786  16.677 -0.9313 -1.4923  0.3287
 4216TIP3    H234064   4.505   0.808  16.824  0.4679 -1.0009 -0.0267
 4217TIP3   OH234065   4.784   4.349  11.531  0.3502  0.4624  0.2697
 4217TIP3    H134066   4.712   4.354  11.467 -0.0154 -2.5335  0.2803
 4217TIP3    H234067   4.859   4.320  11.480  0.8099  0.8460  0.7265
 4218TIP3   OH234068   2.034   2.230  12.264 -0.7116  0.4136  0.1759
 4218TIP3    H134069   1.972   2.303  12.271 -1.4719 -0.0534 -1.2916
 4218TIP3    H234070   2.003   2.179  12.189  0.9852 -0.3109 -0.0713
 4219TIP3   OH234071   5.037   5.556   2.046  0.3560 -0.4409  0.3387
 4219TIP3    H134072   4.977   5.594   2.110  0.9127 -1.3339  1.4329
 4219TIP3    H234073   4.981   5.500   1.991 -0.1292  0.3466  0.0215
 4220TIP3   OH234074   2.132   5.880  16.777 -0.2518  0.4454 -0.3447
 4220TIP3    H134075   2.060   5.823  16.804  2.4660 -1.8262  3.0957
 4220TIP3    H234076   2.193   5.821  16.732  0.3827  1.8559 -1.4116
 4221TIP3   OH234077   4.577   4.905   5.826  0.2087 -0.2927  0.6095
 4221TIP3    H134078   4.514   4.932   5.759  0.9326  0.7038  0.3172
 4221TIP3    H234079   4.583   4.810   5.814  0.6161 -0.1044 -1.0292
 4222TIP3   OH234080   3.654   1.157  13.222 -0.2280 -0.0633  0.2719
 4222TIP3    H134081   3.617   1.086  13.274  0.0459 -1.2322 -1.0507
 4222TIP3    H234082   3.582   1.184  13.164  0.5165 -1.4411 -1.3881
 4223TIP3   OH234083   0.781   4.155   4.646  0.1759 -0.3486 -0.3476
 4223TIP3    H134084   0.786   4.086   4.712 -0.0383 -0.4881 -0.4788
 4223TIP3    H234085   0.732   4.117   4.574 -1.1738  0.3896  0.1363
 4224TIP3   OH234086   3.519   3.735  12.970  0.2607  0.2123  0.5998
 4224TIP3    H134087   3.441   3.679  12.967  0.2482  0.2588  0.0103
 4224TIP3    H234088   3.495   3.812  12.918  0.5413  0.4297  0.7916
 4225TIP3   OH234089   0.509   2.247  13.566 -0.1670  0.1739  0.1789
 4225TIP3    H134090   0.541   2.332  13.597 -0.9297  1.2811 -1.9021
 4225TIP3    H234091   0.511   2.253  13.471  0.2810 -2.3813 -0.0637
 4226TIP3   OH234092   2.422   3.091  15.794 -0.3385  0.2079  0.1856
 4226TIP3    H134093   2.429   3.149  15.718 -1.6739 -1.1668 -1.0758
 4226TIP3    H234094   2.329   3.092  15.816 -0.2645 -0.8471  0.6060
 4227TIP3   OH234095   5.602   6.161  10.678 -0.0491 -0.1394  0.0079
 4227TIP3    H134096   5.648   6.243  10.692  1.7989 -0.8385 -1.6175
 4227TIP3    H234097   5.553   6.173  10.597 -1.0505 -0.1512  0.5825
 4228TIP3   OH234098   1.632   1.176  15.148  0.2622  0.0380 -0.2886
 4228TIP3    H134099   1.631   1.119  15.225  0.7694  1.5495  0.8792
 4228TIP3    H234100   1.697   1.137  15.090  0.2243 -0.8459  0.2460
 4229TIP3   OH234101   6.765   4.270   2.211  0.0555 -0.1721 -0.2736
 4229TIP3    H134102   6.682   4.316   2.198  0.2970  0.0628 -1.0373
 4229TIP3    H234103   6.739   4.182   2.238 -0.4039  0.5755  1.9390
 4230TIP3   OH234104   1.779   4.946   4.925 -0.0102  0.8094 -0.2241
 4230TIP3    H134105   1.824   4.957   5.008  0.5617  0.7580 -0.5224
 4230TIP3    H234106   1.783   5.032   4.883 -0.1547  0.7946 -0.2713
 4231TIP3   OH234107   0.561   0.223   4.513 -0.2426 -0.0842 -0.8166
 4231TIP3    H134108   0.599   0.137   4.495 -0.5242 -0.6379  1.0377
 4231TIP3    H234109   0.580   0.275   4.435  3.9471 -0.4025 -0.2374
 4232TIP3   OH234110   6.663   2.103  15.672 -0.1814  0.3317  0.0457
 4232TIP3    H134111   6.666   2.036  15.603 -1.6830  0.5668 -0.2849
 4232TIP3    H234112   6.574   2.098  15.706  0.0545  1.3508  0.8481
 4233TIP3   OH234113   3.638   4.749  11.247 -0.3772  0.3794  0.3854
 4233TIP3    H134114   3.656   4.768  11.339 -1.9497  0.0269  0.8106
 4233TIP3    H234115   3.596   4.829  11.214 -1.9058 -0.2915  0.6335
 4234TIP3   OH234116   5.077   2.722   0.173  0.4142 -0.6336  0.2851
 4234TIP3    H134117   5.054   2.638   0.133  2.3941 -0.7844 -0.6624
 4234TIP3    H234118   5.084   2.782   0.098  0.2070  0.0788  0.8335
 4235TIP3   OH234119   5.930   1.780  16.423 -0.0587  0.0155  0.2355
 4235TIP3    H134120   5.837   1.788  16.442 -0.0810 -1.0336  0.5942
 4235TIP3    H234121   5.973   1.803  16.505  0.0705  1.8832 -0.3069
 4236TIP3   OH234122   0.863   6.557   2.948  0.2950 -0.4573  0.1223
 4236TIP3    H134123   0.849   6.486   2.885 -0.5667  0.0778 -0.3128
 4236TIP3    H234124   0.947   6.595   2.922 -0.1212 -0.1387 -0.8317
 4237TIP3   OH234125   2.297   1.702  15.276 -0.1716  0.1349  0.8012
 4237TIP3    H134126   2.246   1.724  15.198 -0.6959 -0.7727  0.8750
 4237TIP3    H234127   2.372   1.653  15.243 -0.7271 -0.8135  0.8989
 4238TIP3   OH234128   1.666   0.161  16.839  0.1656 -0.8259  0.0537
 4238TIP3    H134129   1.716   0.219  16.781  0.5483 -0.8538  0.3545
 4238TIP3    H234130   1.588   0.213  16.863  0.8134 -0.1910  0.8271
 4239TIP3   OH234131   0.530   1.655   4.713 -0.4184  0.0459  0.3634
 4239TIP3    H134132   0.515   1.582   4.653 -0.1379 -0.3710  0.7988
 4239TIP3    H234133   0.464   1.644   4.781  0.2443 -0.3644  0.9504
 4240TIP3   OH234134   1.828   4.591  14.630  0.3374 -0.1553  0.3048
 4240TIP3    H134135   1.766   4.532  14.587 -0.4891  0.3600  0.7557
 4240TIP3    H234136   1.913   4.550  14.618 -0.1006 -0.9191 -0.2680
 4241TIP3   OH234137   1.469   0.834  16.441 -0.3414 -0.1582 -0.5529
 4241TIP3    H134138   1.430   0.889  16.509  0.6106 -0.3179  0.1378
 4241TIP3    H234139   1.487   0.894  16.368 -1.9426 -0.0982 -0.9417
 4242TIP3   OH234140   3.768   3.335   3.226 -0.3914 -0.0979 -0.0779
 4242TIP3    H134141   3.802   3.371   3.144 -3.6764 -0.0610 -1.5494
 4242TIP3    H234142   3.756   3.242   3.208  0.7105 -0.5130  1.1127
 4243TIP3   OH234143   3.757   2.447   3.075 -0.5153 -0.4464  0.2883
 4243TIP3    H134144   3.831   2.402   3.117 -1.1024  0.6825  2.7104
 4243TIP3    H234145   3.688   2.447   3.142 -1.5933  1.3246 -0.7586
 4244TIP3   OH234146   3.476   2.949  14.284 -0.0626  0.4586 -0.7030
 4244TIP3    H134147   3.536   2.919  14.353 -0.0573  0.0672 -0.8752
 4244TIP3    H234148   3.446   3.034  14.315 -2.9401 -1.2000  1.7072
 4245TIP3   OH234149   5.301   4.444  17.094  0.9076 -0.2748  0.2438
 4245TIP3    H134150   5.216   4.411  17.122  0.0806  1.9448  0.5316
 4245TIP3    H234151   5.298   4.439  16.998 -0.4177  1.6797  0.1331
 4246TIP3   OH234152   4.891   3.316   1.586  0.2842  0.0705  0.1828
 4246TIP3    H134153   4.894   3.241   1.645  0.2643 -0.4463 -0.4751
 4246TIP3    H234154   4.806   3.357   1.605 -0.0434 -0.5147 -0.0044
 4247TIP3   OH234155   0.023   3.921   4.344 -0.7254  0.2948  0.2545
 4247TIP3    H134156  -0.012   3.851   4.290  0.2709  0.5745 -0.7737
 4247TIP3    H234157  -0.041   3.992   4.335 -1.5146 -0.2978  0.9593
 4248TIP3   OH234158   3.150   4.010   1.847 -0.2096  0.3034 -0.1698
 4248TIP3    H134159   3.238   3.986   1.877 -0.9231 -1.0541  0.9424
 4248TIP3    H234160   3.151   4.106   1.843  0.7915  0.4025  1.5323
 4249TIP3   OH234161   1.119   5.390  15.745  0.0371 -0.1578  0.1625
 4249TIP3    H134162   1.161   5.476  15.747 -0.7164  0.2103  0.8856
 4249TIP3    H234163   1.157   5.346  15.669  0.3154  0.8777 -0.3149
 4250TIP3   OH234164   2.145   3.290  14.060  0.5613  0.4496 -0.2424
 4250TIP3    H134165   2.100   3.206  14.073  0.7606  0.1683 -1.2980
 4250TIP3    H234166   2.202   3.299  14.136  0.4145 -0.2939 -0.0361
 4251TIP3   OH234167   6.543   1.734  12.596  0.3519  0.9695 -0.4270
 4251TIP3    H134168   6.512   1.714  12.508  1.1236 -0.8989 -0.3147
 4251TIP3    H234169   6.624   1.684  12.606 -0.9224 -0.7981  2.1369
 4252TIP3   OH234170   0.041   0.992  14.207 -0.0587 -0.2042 -0.0175
 4252TIP3    H134171   0.063   0.943  14.286 -0.1067 -0.1070  0.0566
 4252TIP3    H234172   0.057   1.083  14.231 -1.8965  0.0317  0.5279
 4253TIP3   OH234173   0.708   5.177   3.664 -0.5241  0.5641 -0.4582
 4253TIP3    H134174   0.691   5.099   3.716  0.9737  0.1395 -0.5631
 4253TIP3    H234175   0.687   5.151   3.574  0.5127  0.0706 -0.5754
 4254TIP3   OH234176   3.097   3.036  14.087 -0.1740 -0.6413  0.6914
 4254TIP3    H134177   3.134   3.108  14.036 -1.5621  1.1931  2.1410
 4254TIP3    H234178   3.155   2.962  14.069  1.8273  1.0369 -0.1945
 4255TIP3   OH234179   2.565   2.370  15.711  0.2064 -0.3012  0.2468
 4255TIP3    H134180   2.510   2.438  15.672 -2.3907 -1.7369  1.1556
 4255TIP3    H234181   2.611   2.414  15.783 -0.6171  0.7046  0.1745
 4256TIP3   OH234182   0.436   4.722   4.795 -0.3804  0.0618 -0.2735
 4256TIP3    H134183   0.432   4.809   4.835 -0.1727 -0.2181  0.3646
 4256TIP3    H234184   0.500   4.731   4.725 -1.3568  0.7750 -1.1187
 4257TIP3   OH234185   5.311   2.547   0.341 -0.1077  0.1787  0.3820
 4257TIP3    H134186   5.392   2.592   0.366 -0.5214  0.0478  2.1020
 4257TIP3    H234187   5.264   2.611   0.287  0.9694  0.3730 -0.3758
 4258TIP3   OH234188   4.942   4.037   6.209 -0.6369  0.4494  0.1362
 4258TIP3    H134189   4.880   4.051   6.280 -0.8543  0.0996  0.0144
 4258TIP3    H234190   5.001   4.113   6.214 -0.3582  0.1936  0.9911
 4259TIP3   OH234191   3.799   4.867  11.827  0.0248  0.3350  0.1712
 4259TIP3    H134192   3.776   4.949  11.783 -0.5589 -0.0765 -0.3204
 4259TIP3    H234193   3.874   4.833  11.778 -0.4316  0.0313 -0.3333
 4260TIP3   OH234194   1.140   3.651  12.581  0.3770 -0.2623  0.2148
 4260TIP3    H134195   1.113   3.736  12.548 -2.3047  0.0331  2.7196
 4260TIP3    H234196   1.235   3.658  12.592  0.4755  1.6839 -1.4265
 4261TIP3   OH234197   0.807   5.571  13.522  0.0960  0.0986  0.3159
 4261TIP3    H134198   0.794   5.620  13.604 -1.3937 -0.7233  0.6222
 4261TIP3    H234199   0.832   5.483  13.551  1.3992  0.2907 -0.1865
 4262TIP3   OH234200   4.372   0.744  15.390 -0.2347  0.0107  0.0996
 4262TIP3    H134201   4.337   0.657  15.373 -0.2766  0.2777 -1.2752
 4262TIP3    H234202   4.414   0.770  15.308 -0.8797  1.5931  0.2331
 4263TIP3   OH234203   2.986   6.374   2.024  1.0549 -0.1561 -0.2919
 4263TIP3    H134204   3.024   6.362   2.111 -0.0973 -1.0219  0.1265
 4263TIP3    H234205   2.892   6.361   2.037  0.4884  2.3920 -1.1855
 4264TIP3   OH234206   6.253   5.064   4.898  0.4810  0.3212  0.4644
 4264TIP3    H134207   6.230   4.990   4.954 -2.0949  0.3125 -0.4728
 4264TIP3    H234208   6.333   5.037   4.854  0.1783 -1.4718  0.9394
 4265TIP3   OH234209   3.872   0.761  14.967  0.1738 -0.6212  0.1075
 4265TIP3    H134210   3.958   0.773  15.007 -0.4313  1.4016  0.8806
 4265TIP3    H234211   3.890   0.759  14.873  0.9468  1.3075  0.1712
 4266TIP3   OH234212   3.013   0.997   4.154  0.0071 -0.3849  0.0662
 4266TIP3    H134213   2.970   0.920   4.117 -0.3282  0.4094 -1.2503
 4266TIP3    H234214   2.943   1.060   4.168  0.4640  0.1892 -0.1910
 4267TIP3   OH234215   1.778   4.694   4.269  0.7970 -0.0477 -0.0138
 4267TIP3    H134216   1.798   4.761   4.336 -3.5582  0.1914  1.3714
 4267TIP3    H234217   1.742   4.621   4.319  0.5610 -1.2859 -1.9118
 4268TIP3   OH234218   4.017   4.184   5.007 -0.1631 -0.1020 -1.0298
 4268TIP3    H134219   4.025   4.267   4.960 -1.2542  0.6808  0.0835
 4268TIP3    H234220   4.095   4.135   4.983  0.7028  1.4056 -1.4192
 4269TIP3   OH234221   2.130   5.846  16.068  0.7572  0.4292 -0.3948
 4269TIP3    H134222   2.125   5.868  16.161 -0.8905  0.4744 -0.4768
 4269TIP3    H234223   2.141   5.931  16.024 -1.1853  0.7265 -0.3973
 4270TIP3   OH234224   1.343   3.964  12.617  0.7387 -0.3111  0.3607
 4270TIP3    H134225   1.400   3.937  12.545  0.5592  1.4048 -0.4721
 4270TIP3    H234226   1.403   3.982  12.689  0.8463 -3.2197  1.1468
 4271TIP3   OH234227   1.904   5.644   0.581  0.8494 -0.1223 -0.4289
 4271TIP3    H134228   1.871   5.623   0.493 -1.8537  2.7440 -0.2764
 4271TIP3    H234229   1.918   5.738   0.580  0.5956  0.0240  2.2387
 4272TIP3   OH234230   3.221   5.071  17.104 -0.5657  0.6467  0.5436
 4272TIP3    H134231   3.154   5.005  17.085  0.1808 -1.0071  3.0989
 4272TIP3    H234232   3.182   5.124  17.174  0.2278  0.5834  1.0382
 4273TIP3   OH234233   0.995   3.758   6.407  0.6846  0.3632 -0.0223
 4273TIP3    H134234   0.943   3.698   6.461  1.2822 -0.8201 -0.7438
 4273TIP3    H234235   1.049   3.702   6.352 -1.0640  1.4343 -3.0785
 4274TIP3   OH234236   4.404   6.629   4.687  0.1927 -0.2763 -0.1600
 4274TIP3    H134237   4.474   6.565   4.683 -0.2357 -1.1297  3.2153
 4274TIP3    H234238   4.327   6.582   4.655  0.6413 -0.1050 -1.5455
 4275TIP3   OH234239   0.719   4.103   3.358  0.0600  0.1154  0.0201
 4275TIP3    H134240   0.684   4.163   3.292  1.3251  0.3933 -0.4280
 4275TIP3    H234241   0.669   4.123   3.438  0.0244  1.3137 -0.2873
 4276TIP3   OH234242   3.907   1.674  12.639 -0.5803 -0.3605  0.3126
 4276TIP3    H134243   3.836   1.670  12.574 -1.8370 -0.2905  1.6412
 4276TIP3    H234244   3.885   1.607  12.703  1.1355 -1.0547  0.2427
 4277TIP3   OH234245   2.645   2.156  12.473  0.2956  0.2734  0.0480
 4277TIP3    H134246   2.591   2.165  12.552 -0.2376 -0.5762 -0.1985
 4277TIP3    H234247   2.731   2.132  12.506 -0.1729 -1.1117  0.3709
 4278TIP3   OH234248   0.339   3.825  11.630  0.3583  0.4177 -0.3618
 4278TIP3    H134249   0.270   3.759  11.635  1.1646 -0.3996  0.2534
 4278TIP3    H234250   0.390   3.812  11.710  2.2530 -0.1608 -1.6235
 4279TIP3   OH234251   5.927   6.651   1.623  0.4042  0.0317  0.0044
 4279TIP3    H134252   5.975   6.697   1.691 -0.4442  0.6386  0.2098
 4279TIP3    H234253   5.953   6.694   1.542  0.6046  0.0150  0.0596
 4280TIP3   OH234254   3.113   6.768   1.839  0.1624 -0.2579  0.8097
 4280TIP3    H134255   3.109   6.674   1.820  1.1494 -0.0306 -0.7283
 4280TIP3    H234256   3.206   6.786   1.854 -0.2391  0.1539  3.0524
 4281TIP3   OH234257   4.784   5.931  12.497 -0.1865 -0.0512 -0.5026
 4281TIP3    H134258   4.766   6.020  12.466  0.3079  0.1819 -0.1455
 4281TIP3    H234259   4.723   5.876  12.449 -0.4171  0.4693 -0.8189
 4282TIP3   OH234260   5.480   6.029   0.233 -0.6504  0.1295  0.6976
 4282TIP3    H134261   5.510   5.985   0.312 -0.0672 -0.4600  0.1602
 4282TIP3    H234262   5.396   5.988   0.212 -0.7767  0.2457  0.9679
 4283TIP3   OH234263   4.087   0.234   0.324  0.8627  0.2234 -0.3362
 4283TIP3    H134264   4.106   0.295   0.253  2.3855  0.3891  0.1712
 4283TIP3    H234265   4.107   0.148   0.289  1.6015  0.3040 -0.1219
 4284TIP3   OH234266   2.280   2.843   1.456  0.6892 -0.1257 -0.4937
 4284TIP3    H134267   2.303   2.861   1.365  1.3851  2.9045  0.1905
 4284TIP3    H234268   2.361   2.857   1.505  0.2229 -1.2687  0.6832
 4285TIP3   OH234269   6.567   6.125  14.175 -0.0579 -0.3383 -0.1860
 4285TIP3    H134270   6.535   6.040  14.205  1.5916 -1.1640 -0.6803
 4285TIP3    H234271   6.563   6.119  14.080  0.0797  0.1426 -0.2204
 4286TIP3   OH234272   4.587   5.395  14.612 -0.2748 -0.0692  0.0440
 4286TIP3    H134273   4.559   5.337  14.541  0.5106 -0.5249  0.0874
 4286TIP3    H234274   4.673   5.427  14.583  0.1485 -0.4203  0.8652
 4287TIP3   OH234275   6.453   5.391   4.794 -0.0778  0.3029  0.1753
 4287TIP3    H134276   6.509   5.418   4.721  0.1242  0.5638  0.4207
 4287TIP3    H234277   6.508   5.404   4.872  0.2909 -1.5316  0.2541
 4288TIP3   OH234278   1.242   5.536  16.439 -0.2724  0.1144  0.6885
 4288TIP3    H134279   1.328   5.567  16.466 -0.0997  0.4623 -0.2136
 4288TIP3    H234280   1.260   5.463  16.380 -0.6356 -0.6544  1.5233
 4289TIP3   OH234281   2.352   6.620  12.452 -0.1401 -1.1285  0.4538
 4289TIP3    H134282   2.264   6.631  12.487 -0.7782 -0.2192 -1.2821
 4289TIP3    H234283   2.357   6.529  12.425 -0.8242 -1.0043 -0.1032
 4290TIP3   OH234284   4.544   4.449   2.383  0.6146  0.3145 -0.1459
 4290TIP3    H134285   4.578   4.369   2.423  1.5726  1.9225  2.5391
 4290TIP3    H234286   4.461   4.465   2.427  0.2019  0.5774 -0.9922
 4291TIP3   OH234287   0.727   6.319   2.471  0.3715 -0.5040  0.9000
 4291TIP3    H134288   0.779   6.360   2.402  0.1684 -1.0054  0.4438
 4291TIP3    H234289   0.725   6.226   2.448 -2.1609 -0.2761 -0.0349
 4292TIP3   OH234290   2.786   3.524  16.955 -0.4548 -0.3588 -0.0490
 4292TIP3    H134291   2.826   3.468  17.021 -2.1645 -0.4183  0.9878
 4292TIP3    H234292   2.859   3.573  16.917  0.9037 -2.2470 -0.0035
 4293TIP3   OH234293   2.637   5.669   0.237  0.0721  0.0709 -0.2816
 4293TIP3    H134294   2.713   5.612   0.227  0.5956  0.4434  1.2690
 4293TIP3    H234295   2.624   5.707   0.150  0.6676 -1.2048 -0.9536
 4294TIP3   OH234296   1.279   0.774  12.920  0.6975 -0.2413 -0.2639
 4294TIP3    H134297   1.358   0.769  12.867 -0.5380  0.1804 -2.2340
 4294TIP3    H234298   1.256   0.867  12.919  0.0900 -0.3818  0.1492
 4295TIP3   OH234299   3.744   0.639   1.931 -0.1554 -0.1120 -0.2686
 4295TIP3    H134300   3.681   0.707   1.905  1.5123  1.4033 -0.5021
 4295TIP3    H234301   3.716   0.561   1.883 -2.1610  0.3462  0.0509
 4296TIP3   OH234302   2.087   1.629   5.536  0.1177 -0.0085 -0.2284
 4296TIP3    H134303   2.106   1.604   5.627  0.0763  0.0646 -0.1991
 4296TIP3    H234304   2.028   1.705   5.544 -0.5199 -0.4907 -0.3229
 4297TIP3   OH234305   1.461   0.011   2.250 -0.4037  0.2311 -0.0142
 4297TIP3    H134306   1.525   0.078   2.277 -0.1599 -0.3176  0.8249
 4297TIP3    H234307   1.466   0.010   2.155 -0.4578  1.4492 -0.0458
 4298TIP3   OH234308   6.377   0.430   5.281  0.5292  0.0640 -0.2068
 4298TIP3    H134309   6.382   0.393   5.193 -0.2921  1.3504 -0.8261
 4298TIP3    H234310   6.307   0.381   5.324  0.4162 -0.0541 -0.5252
 4299TIP3   OH234311   3.812   3.401  14.814 -0.0172 -0.5265  0.2680
 4299TIP3    H134312   3.830   3.323  14.867  0.0637  0.5664  1.9158
 4299TIP3    H234313   3.723   3.427  14.839 -0.0287 -0.0533 -0.2330
 4300TIP3   OH234314   0.040   0.350  13.437 -0.1905  0.5920 -0.5497
 4300TIP3    H134315   0.042   0.352  13.532 -1.2229 -1.4813 -0.4329
 4300TIP3    H234316   0.125   0.313  13.411 -0.9952 -1.6144 -0.2358
 4301TIP3   OH234317   1.484   4.672  16.406  0.3702 -0.1119 -0.2930
 4301TIP3    H134318   1.453   4.597  16.456 -0.1224 -0.6936 -1.4355
 4301TIP3    H234319   1.567   4.696  16.448 -0.0978 -0.4766  0.8790
 4302TIP3   OH234320   5.062   5.873   5.253 -0.0377 -0.0884 -0.0574
 4302TIP3    H134321   5.087   5.849   5.342 -4.0268 -3.2563  0.5170
 4302TIP3    H234322   5.015   5.956   5.263  1.2736  0.6232  0.3897
 4303TIP3   OH234323   0.704   0.089   4.799 -0.9435  0.2500 -0.4325
 4303TIP3    H134324   0.758   0.071   4.876 -0.2935  0.2233 -0.8904
 4303TIP3    H234325   0.683   0.182   4.806  0.2488  0.5646 -0.9317
 4304TIP3   OH234326   5.535   2.812   2.868  0.5339 -0.1723  0.3092
 4304TIP3    H134327   5.607   2.760   2.905  0.4714 -2.7057 -2.7140
 4304TIP3    H234328   5.573   2.898   2.854  2.4969 -0.9634  0.3580
 4305TIP3   OH234329   3.404   4.634  12.932 -0.0592 -0.1764  0.1303
 4305TIP3    H134330   3.329   4.580  12.958  0.3904  0.0880  2.1820
 4305TIP3    H234331   3.473   4.571  12.912  0.4666 -0.4757  2.5243
 4306TIP3   OH234332   5.613   1.584  11.245 -0.2430  0.3470 -0.2213
 4306TIP3    H134333   5.703   1.616  11.236 -0.8721  2.6181  0.8191
 4306TIP3    H234334   5.590   1.554  11.157  0.7141  2.1161 -1.1538
 4307TIP3   OH234335   1.588   4.285   2.472  0.1892  0.0308 -0.2854
 4307TIP3    H134336   1.666   4.242   2.437 -0.3194 -0.8714 -0.3415
 4307TIP3    H234337   1.515   4.227   2.448 -0.2070 -0.5764  2.0994
 4308TIP3   OH234338   1.374   0.317   2.598  0.0942 -0.0890  0.4465
 4308TIP3    H134339   1.434   0.379   2.555 -0.1750  0.8514  1.3758
 4308TIP3    H234340   1.304   0.372   2.634 -1.7942 -1.2287 -1.2970
 4309TIP3   OH234341   4.166   2.259  13.496 -0.1519  0.3592 -0.4506
 4309TIP3    H134342   4.081   2.236  13.458  0.2913 -0.5893 -0.9134
 4309TIP3    H234343   4.228   2.249  13.423  0.7172 -1.4226  0.4520
 4310TIP3   OH234344   3.261   0.709   3.375 -0.1218 -0.0614 -0.0506
 4310TIP3    H134345   3.229   0.670   3.457 -0.5271  0.0744 -0.1417
 4310TIP3    H234346   3.255   0.638   3.311  2.2166 -0.8295  0.4860
 4311TIP3   OH234347   2.938   3.443   3.540  0.0433  0.0329 -0.7288
 4311TIP3    H134348   3.008   3.460   3.603  0.0801 -1.1754 -0.4187
 4311TIP3    H234349   2.920   3.528   3.501 -1.9929  1.5739  2.9631
 4312TIP3   OH234350   4.778   0.487  15.097  0.1248 -0.2585  0.0656
 4312TIP3    H134351   4.742   0.576  15.101  1.3689  0.2382  1.1436
 4312TIP3    H234352   4.801   0.475  15.004  2.6372  1.7407  0.3243
 4313TIP3   OH234353   4.841   2.587   5.131 -0.5422 -0.0994 -0.5074
 4313TIP3    H134354   4.921   2.629   5.099 -0.1398 -0.7109 -0.3194
 4313TIP3    H234355   4.850   2.588   5.226 -0.3714 -0.9040 -0.5102
 4314TIP3   OH234356   0.647   0.365  16.752  0.2282  0.5593 -0.2330
 4314TIP3    H134357   0.571   0.320  16.714  0.9632  0.7377 -2.0258
 4314TIP3    H234358   0.720   0.343  16.694  1.3918  1.0621  0.9709
 4315TIP3   OH234359   1.199   2.542   1.282 -0.5216  0.1597 -0.0102
 4315TIP3    H134360   1.268   2.475   1.275  0.3218  1.0049  0.0517
 4315TIP3    H234361   1.212   2.598   1.205 -0.7291  0.6957  0.3419
 4316TIP3   OH234362   3.183   4.695  13.174 -0.4954 -0.6256 -0.0973
 4316TIP3    H134363   3.096   4.662  13.153 -0.2280 -0.2029 -2.1112
 4316TIP3    H234364   3.197   4.767  13.112  1.7495 -1.4759 -0.6997
 4317TIP3   OH234365   4.062   1.109  15.165  0.1731  0.1150 -0.4319
 4317TIP3    H134366   4.082   1.149  15.249 -1.6210  2.1845 -0.8921
 4317TIP3    H234367   4.103   1.023  15.168  3.1178  1.4524  1.1757
 4318TIP3   OH234368   1.544   6.333  11.793  0.4560 -0.4055 -0.3254
 4318TIP3    H134369   1.521   6.255  11.844 -1.4726  1.2316  1.5461
 4318TIP3    H234370   1.479   6.337  11.724 -2.2191  1.5988  2.0547
 4319TIP3   OH234371   1.246   6.388  16.597 -0.4170 -0.2386  0.0174
 4319TIP3    H134372   1.317   6.400  16.661  1.0785  0.1826 -1.6342
 4319TIP3    H234373   1.224   6.476  16.568  0.4405 -0.5116 -1.5764
 4320TIP3   OH234374   2.645   1.404   0.619  0.2908  0.1096  0.0225
 4320TIP3    H134375   2.560   1.418   0.576 -1.1436 -3.4360  1.3437
 4320TIP3    H234376   2.625   1.410   0.713  1.3817 -1.1719  0.3582
 4321TIP3   OH234377   6.232   1.715  11.139 -0.1924 -0.1049  0.7149
 4321TIP3    H134378   6.222   1.624  11.113  0.6403 -0.2341  0.8000
 4321TIP3    H234379   6.252   1.761  11.057  0.5227 -0.1960  0.8297
 4322TIP3   OH234380   2.912   2.636  12.755 -0.1577 -0.7023 -0.2251
 4322TIP3    H134381   2.922   2.663  12.663 -1.3169  0.5845 -0.0029
 4322TIP3    H234382   2.852   2.561  12.752  1.1815 -1.8090 -0.6366
 4323TIP3   OH234383   4.267   3.830  11.194 -0.0521 -0.2501  0.2476
 4323TIP3    H134384   4.353   3.816  11.157 -0.0764 -0.7137  0.3624
 4323TIP3    H234385   4.266   3.777  11.274 -0.8282 -1.1197 -0.3252
 4324TIP3   OH234386   6.009   3.020  13.172  0.6429 -0.6586 -0.5758
 4324TIP3    H134387   5.991   2.996  13.081  0.9739 -1.8617 -0.3491
 4324TIP3    H234388   5.945   2.970  13.223  0.2056  0.3096 -0.1643
 4325TIP3   OH234389   3.258   1.597   4.112 -0.1612  0.1770 -0.1639
 4325TIP3    H134390   3.171   1.566   4.088  0.6415 -0.7573 -1.9882
 4325TIP3    H234391   3.302   1.612   4.029  0.9575  2.0613  0.7173
 4326TIP3   OH234392   6.343   4.363  10.522  0.0702  0.0539 -0.6142
 4326TIP3    H134393   6.405   4.306  10.568  1.8317  0.4026 -2.4189
 4326TIP3    H234394   6.398   4.418  10.466 -1.9055 -0.5903 -3.4085
 4327TIP3   OH234395   6.681   4.386   4.973  0.5640 -0.0986 -0.1304
 4327TIP3    H134396   6.733   4.397   4.894  0.4769  2.1792  0.0647
 4327TIP3    H234397   6.590   4.385   4.943  0.5598  0.0613 -0.1241
 4328TIP3   OH234398   0.006   4.854  14.899 -0.0967 -1.1017  0.0399
 4328TIP3    H134399   0.083   4.872  14.953 -0.7618 -0.8284  0.9278
 4328TIP3    H234400   0.020   4.765  14.866  1.4343 -0.4195 -1.2867
 4329TIP3   OH234401   4.252   1.728   4.099 -0.6186  0.5771 -0.1278
 4329TIP3    H134402   4.287   1.692   4.018 -0.5718 -0.2344  0.2491
 4329TIP3    H234403   4.280   1.667   4.168  0.9583  2.2272  0.7823
 4330TIP3   OH234404   4.102   0.209  11.675  0.2221 -0.0657 -0.4985
 4330TIP3    H134405   4.094   0.120  11.639  2.6328 -0.6851  0.2770
 4330TIP3    H234406   4.112   0.265  11.598  0.4025 -0.7020 -0.9502
 4331TIP3   OH234407   2.577   4.917   1.020  0.4561  0.2274  0.0054
 4331TIP3    H134408   2.617   5.004   1.024  0.1504  0.3400  0.6771
 4331TIP3    H234409   2.616   4.877   0.942  2.0892  0.2286  0.7667
 4332TIP3   OH234410   3.000   5.861  17.170 -0.1188  0.3101  0.2863
 4332TIP3    H134411   3.079   5.888  17.122 -0.6587  0.1619 -0.7124
 4332TIP3    H234412   2.930   5.913  17.131 -0.7143 -0.4696  0.3116
 4333TIP3   OH234413   1.907   4.619   0.109 -0.0818  0.1352 -0.1307
 4333TIP3    H134414   1.840   4.676   0.070 -1.0552 -1.9969 -1.8205
 4333TIP3    H234415   1.858   4.545   0.143  1.3283 -0.9647 -0.4105
 4334TIP3   OH234416   5.401   6.748  15.805 -0.4810  0.1382  0.1215
 4334TIP3    H134417   5.376   6.813  15.738  0.6392  1.5434  1.0110
 4334TIP3    H234418   5.345   6.769  15.880 -1.7184 -1.4235 -0.3196
 4335TIP3   OH234419   1.049   1.560  11.383  0.1751  0.2907  0.2697
 4335TIP3    H134420   1.087   1.489  11.434 -0.7068 -0.2746  0.1459
 4335TIP3    H234421   1.095   1.639  11.414  0.7725 -0.2517  0.7872
 4336TIP3   OH234422   0.471   1.788   2.244 -0.4096 -0.1736 -0.4735
 4336TIP3    H134423   0.479   1.786   2.148 -0.6121 -1.7914 -0.4792
 4336TIP3    H234424   0.378   1.801   2.260 -0.3083  0.6195 -0.4766
 4337TIP3   OH234425   5.107   4.909  16.866  0.0179  0.2972 -0.1042
 4337TIP3    H134426   5.117   4.901  16.771  1.4302 -1.2700  0.1343
 4337TIP3    H234427   5.064   4.993  16.878 -4.5801 -1.3298 -2.3854
 4338TIP3   OH234428   4.709   2.968  11.725  0.2063 -0.4004 -0.0479
 4338TIP3    H134429   4.711   3.057  11.689  0.9368 -0.4138 -0.0586
 4338TIP3    H234430   4.616   2.946  11.730  0.0203  0.3802 -0.0066
 4339TIP3   OH234431   1.042   0.333  14.114  0.0215  0.1859  0.2607
 4339TIP3    H134432   0.946   0.339  14.110  0.1056  1.1935 -1.9363
 4339TIP3    H234433   1.067   0.392  14.185 -1.0050 -0.8652  1.5398
 4340TIP3   OH234434   5.632   1.140  11.889 -0.0277 -0.1159  0.1964
 4340TIP3    H134435   5.627   1.225  11.845  2.8093 -0.0507 -0.1957
 4340TIP3    H234436   5.556   1.092  11.858 -0.0836  1.2372 -1.9520
 4341TIP3   OH234437   0.855   3.583  13.088 -0.2769 -0.5903 -0.1084
 4341TIP3    H134438   0.795   3.658  13.090  2.9723  2.2911  0.5183
 4341TIP3    H234439   0.813   3.519  13.030 -2.4099  2.5172 -2.3225
 4342TIP3   OH234440   4.303   3.369   2.668  0.5044  0.0749 -0.2782
 4342TIP3    H134441   4.339   3.426   2.601  1.0139  0.4975  0.3391
 4342TIP3    H234442   4.219   3.340   2.633  0.9519 -0.0596 -1.2784
 4343TIP3   OH234443   5.453   3.307  13.519 -0.3631  0.1305  0.0628
 4343TIP3    H134444   5.358   3.318  13.515 -0.6252 -1.8928 -1.0044
 4343TIP3    H234445   5.488   3.394  13.502 -2.0242  0.8758  0.2331
 4344TIP3   OH234446   5.101   5.292   0.662  0.2416 -0.5990  0.5217
 4344TIP3    H134447   5.095   5.285   0.566  1.9157  2.3820  0.0443
 4344TIP3    H234448   5.129   5.206   0.691 -1.2058 -1.8531 -1.5359
 4345TIP3   OH234449   1.424   2.029  13.291  0.5458  0.1513 -0.0418
 4345TIP3    H134450   1.476   2.105  13.316 -1.1273  1.6690 -0.9082
 4345TIP3    H234451   1.462   2.002  13.207 -0.2016  1.4504 -0.8337
 4346TIP3   OH234452   0.680   1.500   4.051  0.6812 -0.1102  0.3670
 4346TIP3    H134453   0.692   1.423   3.996 -0.2681  0.9159 -1.3551
 4346TIP3    H234454   0.768   1.539   4.058  0.5748  0.6916 -1.9462
 4347TIP3   OH234455   3.811   3.392  15.357  0.8783 -0.6154 -0.1287
 4347TIP3    H134456   3.771   3.334  15.422 -1.8801  0.6728 -0.5173
 4347TIP3    H234457   3.736   3.435  15.315  2.6815  0.6609 -2.2306
 4348TIP3   OH234458   3.250   1.556   5.913  0.4585  0.1924  0.1642
 4348TIP3    H134459   3.241   1.519   6.001  0.8028  1.0216  0.5636
 4348TIP3    H234460   3.283   1.645   5.928 -0.7972  0.8348 -0.7354
 4349TIP3   OH234461   0.403   0.773   1.566  0.3126  0.3418 -0.5095
 4349TIP3    H134462   0.484   0.809   1.531  1.6716 -1.3689  0.7324
 4349TIP3    H234463   0.384   0.827   1.643  1.2545 -0.3454  0.2130
 4350TIP3   OH234464   6.658   1.379  14.432 -0.3501  0.2870  0.0604
 4350TIP3    H134465   6.727   1.433  14.470  2.5075 -2.8401 -0.1514
 4350TIP3    H234466   6.608   1.347  14.507  1.0437 -0.5484  0.6860
 4351TIP3   OH234467   2.801   4.176  11.732  0.4740 -0.3043 -0.2892
 4351TIP3    H134468   2.772   4.265  11.712  1.0118 -0.1695 -0.4944
 4351TIP3    H234469   2.722   4.130  11.759  0.3100  0.4109  0.4550
 4352TIP3   OH234470   4.001   1.204  12.345  0.0844  0.3515 -0.3648
 4352TIP3    H134471   3.930   1.179  12.405  0.2156 -2.1918 -1.1525
 4352TIP3    H234472   3.971   1.285  12.304 -1.1800  0.7228  1.1976
 4353TIP3   OH234473   2.863   3.735  17.171  0.0694 -0.4259 -0.0663
 4353TIP3    H134474   2.921   3.660  17.186  1.3040  1.0234  3.6411
 4353TIP3    H234475   2.915   3.794  17.116  0.6229 -0.7147  0.1335
 4354TIP3   OH234476   3.464   3.290  11.122 -0.1018  0.3306  0.3640
 4354TIP3    H134477   3.430   3.249  11.043 -0.7245  1.0030  0.2698
 4354TIP3    H234478   3.555   3.263  11.126 -0.2824 -0.3913 -0.1286
 4355TIP3   OH234479   5.014   1.852  14.566  0.0972 -0.4881  0.5738
 4355TIP3    H134480   4.934   1.800  14.563 -0.6760  0.7089 -0.8984
 4355TIP3    H234481   4.988   1.934  14.607  0.0215  0.6731 -1.6254
 4356TIP3   OH234482   0.376   2.268  15.737  0.3445 -0.1618 -0.0933
 4356TIP3    H134483   0.297   2.307  15.700  0.5468 -0.8129 -1.2408
 4356TIP3    H234484   0.414   2.338  15.791 -0.0455  0.7719 -0.9914
 4357TIP3   OH234485   3.663   6.366  13.728  0.2293 -0.5069 -0.0000
 4357TIP3    H134486   3.646   6.290  13.782 -0.0387  0.2523  1.0109
 4357TIP3    H234487   3.577   6.405  13.713  0.3730 -0.3457 -0.4300
 4358TIP3   OH234488   1.436   0.097  12.651  0.3243  0.3917 -0.0234
 4358TIP3    H134489   1.348   0.133  12.665  0.5278  0.3853  1.4374
 4358TIP3    H234490   1.465   0.070  12.738  0.6113 -2.3467 -0.8880
 4359TIP3   OH234491   0.440   1.450   3.277  0.0859 -0.1157  0.2060
 4359TIP3    H134492   0.385   1.497   3.214  0.1882 -0.4538 -0.1382
 4359TIP3    H234493   0.430   1.358   3.254  0.0850 -0.2464  0.7193
 4360TIP3   OH234494   3.455   0.836  16.823 -0.3488 -0.3086 -0.0412
 4360TIP3    H134495   3.517   0.868  16.889 -1.1130  1.0750  0.0473
 4360TIP3    H234496   3.495   0.756  16.789  1.9760  1.0236 -0.6831
 4361TIP3   OH234497   3.122   1.411  14.130 -0.2575  0.1937 -0.9853
 4361TIP3    H134498   3.180   1.425  14.054  1.2716  0.0218  0.1056
 4361TIP3    H234499   3.130   1.492  14.180 -0.7597  0.0504 -0.6721
 4362TIP3   OH234500   0.212   3.087   2.929  0.2136  0.5558 -0.2061
 4362TIP3    H134501   0.243   3.076   2.840  0.5225 -1.3710  0.1014
 4362TIP3    H234502   0.265   3.027   2.981 -0.1921  1.3753  1.2294
 4363TIP3   OH234503   1.874   6.594   0.477 -0.1848  0.0185  0.3691
 4363TIP3    H134504   1.782   6.572   0.464  0.2373 -1.5085 -0.3300
 4363TIP3    H234505   1.904   6.533   0.543  0.4161  0.2487  0.3143
 4364TIP3   OH234506   4.460   6.085  15.796  0.0877  0.6383 -0.6374
 4364TIP3    H134507   4.441   6.139  15.719 -2.1652  2.1443  0.8464
 4364TIP3    H234508   4.499   6.146  15.859 -0.7854  0.1515  0.4194
 4365TIP3   OH234509   3.136   0.904   0.620 -0.0028  0.3362  0.1803
 4365TIP3    H134510   3.213   0.956   0.596 -0.1134  1.5206  2.1419
 4365TIP3    H234511   3.067   0.969   0.632 -0.8191 -0.5278  0.2487
 4366TIP3   OH234512   0.856   1.302   5.219 -0.6449 -0.5991  0.7267
 4366TIP3    H134513   0.884   1.364   5.286 -0.5921 -0.1950  0.3419
 4366TIP3    H234514   0.935   1.282   5.169 -1.1242  1.2160 -0.9027
 4367TIP3   OH234515   2.394   0.154   4.228  0.2109  0.0002  0.8583
 4367TIP3    H134516   2.396   0.120   4.138 -2.1980  2.7865 -0.3996
 4367TIP3    H234517   2.483   0.187   4.242  0.3562  0.5429 -0.9886
 4368TIP3   OH234518   3.794   2.772  16.560 -0.2639 -0.6191 -0.1765
 4368TIP3    H134519   3.870   2.715  16.550 -0.7683 -0.9093 -4.5694
 4368TIP3    H234520   3.722   2.724  16.520 -1.8382  1.2321  0.2560
 4369TIP3   OH234521   1.738   3.446   0.260  0.1147  0.1723 -0.4268
 4369TIP3    H134522   1.810   3.432   0.198  0.7591 -1.0517  0.5332
 4369TIP3    H234523   1.681   3.370   0.247  0.0651  0.0962  0.2020
 4370TIP3   OH234524   1.798   1.329   3.300  0.1138 -0.2297 -0.3915
 4370TIP3    H134525   1.740   1.290   3.234 -1.3489  1.2561 -0.0510
 4370TIP3    H234526   1.838   1.254   3.344 -1.8171 -1.3384 -0.4303
 4371TIP3   OH234527   1.269   2.426  14.148  0.8411  0.1448 -0.3738
 4371TIP3    H134528   1.177   2.440  14.124  0.5651 -2.4003 -1.1857
 4371TIP3    H234529   1.265   2.385  14.234  1.1168 -0.8300 -0.8066
 4372TIP3   OH234530   2.289   6.774  16.838 -0.1721  0.7147  0.4437
 4372TIP3    H134531   2.248   6.697  16.798  0.6602 -0.0963  1.1000
 4372TIP3    H234532   2.286   6.841  16.769 -0.2183 -0.1470 -0.4161
 4373TIP3   OH234533   0.165   0.088   3.631  0.0261 -0.6692  0.6037
 4373TIP3    H134534   0.126   0.174   3.647 -3.3304 -1.5623 -1.6809
 4373TIP3    H234535   0.254   0.107   3.603  0.1490  1.8330  2.3639
 4374TIP3   OH234536   1.301   0.315  13.992 -0.0176 -0.1549  0.0868
 4374TIP3    H134537   1.219   0.297  14.038 -0.4559  1.3991 -0.0373
 4374TIP3    H234538   1.349   0.232  13.994 -1.5584 -1.0658  0.2255
 4375TIP3   OH234539   1.323   4.363   3.695 -0.2290 -0.2001 -0.5222
 4375TIP3    H134540   1.232   4.350   3.723 -0.5295 -0.6849 -1.6632
 4375TIP3    H234541   1.315   4.418   3.616  0.4666 -0.3083 -0.6670
 4376TIP3   OH234542   3.109   0.124   1.501 -0.0745 -0.3953 -0.0422
 4376TIP3    H134543   3.013   0.126   1.502 -0.1047 -1.3792  0.5038
 4376TIP3    H234544   3.131   0.056   1.437  0.3171  0.8725 -1.3318
 4377TIP3   OH234545   2.779   6.072   4.623 -0.0093 -0.2727  0.6806
 4377TIP3    H134546   2.807   6.022   4.547 -1.0109 -1.4112  1.0132
 4377TIP3    H234547   2.842   6.050   4.691 -1.0942 -2.1164  1.1735
 4378TIP3   OH234548   1.011   2.749  13.614 -0.0732 -0.9163 -0.3968
 4378TIP3    H134549   0.976   2.660  13.625 -0.0742 -0.9419 -0.6062
 4378TIP3    H234550   1.024   2.758  13.520  1.3263 -1.2307 -0.2566
 4379TIP3   OH234551   3.333   2.307   2.940 -0.1077  0.0584 -0.2389
 4379TIP3    H134552   3.248   2.309   2.895  0.5099 -1.6649 -1.6036
 4379TIP3    H234553   3.325   2.236   3.003  0.2477  0.0153 -0.2422
 4380TIP3   OH234554   0.066   3.478  13.013  0.4788  0.3537 -0.1932
 4380TIP3    H134555  -0.017   3.506  12.975  1.0553  0.7564 -1.2021
 4380TIP3    H234556   0.044   3.455  13.104 -0.6686  0.7319 -0.3524
 4381TIP3   OH234557   5.157   4.202   2.680  0.3181 -0.4485  0.1870
 4381TIP3    H134558   5.095   4.245   2.739 -0.2952 -0.3895 -0.4782
 4381TIP3    H234559   5.155   4.110   2.706  1.6670 -0.1112  1.6458
 4382TIP3   OH234560   5.340   0.761  11.716  0.1016 -0.4070 -0.1547
 4382TIP3    H134561   5.386   0.695  11.665 -0.5114 -0.6802 -0.3538
 4382TIP3    H234562   5.270   0.714  11.761 -0.7852  0.2179 -0.8508
 4383TIP3   OH234563   5.379   2.043   6.589 -0.1632 -0.2758  0.4845
 4383TIP3    H134564   5.463   2.085   6.606  0.3395 -0.9676 -0.2366
 4383TIP3    H234565   5.391   1.952   6.617 -1.1147 -0.0833  1.6572
 4384TIP3   OH234566   2.564   3.606  14.178 -0.1958 -0.2302 -0.3094
 4384TIP3    H134567   2.593   3.531  14.126  0.7306 -0.7052  0.8339
 4384TIP3    H234568   2.628   3.611  14.249  0.9352  2.8233 -1.3818
 4385TIP3   OH234569   0.161   2.025  15.554 -0.0844  0.2454  0.0798
 4385TIP3    H134570   0.144   1.947  15.501 -0.6343 -0.8121  1.7262
 4385TIP3    H234571   0.086   2.082  15.538 -0.9854 -0.6952  0.7579
 4386TIP3   OH234572   5.728   6.052  14.829 -0.5092  0.4204  0.0603
 4386TIP3    H134573   5.752   6.130  14.779  0.7678  0.3153  0.4826
 4386TIP3    H234574   5.811   6.013  14.855 -1.1361 -0.8716  0.1992
 4387TIP3   OH234575   0.358   6.483  14.235  0.2271 -0.2655 -0.2871
 4387TIP3    H134576   0.436   6.477  14.290  1.5574 -1.0783 -2.1666
 4387TIP3    H234577   0.381   6.548  14.168 -0.6315 -0.6426 -0.9755
 4388TIP3   OH234578   1.850   2.014   5.133 -0.2061 -0.4404 -0.2155
 4388TIP3    H134579   1.937   1.980   5.111 -0.4415 -0.9843 -0.3069
 4388TIP3    H234580   1.860   2.053   5.220 -0.3762 -2.4415  0.7595
 4389TIP3   OH234581   1.337   5.200   2.709 -0.2191 -0.6027  0.4066
 4389TIP3    H134582   1.375   5.287   2.703 -1.5636  0.0410  0.8730
 4389TIP3    H234583   1.392   5.153   2.772  1.5289 -0.6811 -1.1019
 4390TIP3   OH234584   0.144   1.262  14.129 -0.4071  0.0864  0.1099
 4390TIP3    H134585   0.115   1.228  14.044 -0.0478 -1.0708  0.4394
 4390TIP3    H234586   0.089   1.340  14.143  0.6235  1.2880 -1.9208
 4391TIP3   OH234587   2.683   2.581   0.513  0.5062 -0.6559 -0.0554
 4391TIP3    H134588   2.638   2.637   0.450 -2.1936 -0.8653  1.5197
 4391TIP3    H234589   2.655   2.492   0.491 -1.3686 -0.6559  1.9326
 4392TIP3   OH234590   1.698   6.397   5.052  0.2834  0.2912  0.4371
 4392TIP3    H134591   1.731   6.477   5.093  1.7189 -0.1505  0.2188
 4392TIP3    H234592   1.677   6.339   5.124  0.9193  0.2366  0.5847
 4393TIP3   OH234593   4.810   1.157   2.198  0.5786  0.4349 -0.2831
 4393TIP3    H134594   4.846   1.071   2.176  2.2801  1.0936 -0.2455
 4393TIP3    H234595   4.827   1.211   2.121 -0.4620  0.7568 -0.3008
 4394TIP3   OH234596   5.006   0.732  14.498  1.0194  0.5849 -0.6292
 4394TIP3    H134597   5.025   0.714  14.406  2.2512 -0.5370 -0.1823
 4394TIP3    H234598   4.968   0.820  14.498 -1.4643 -0.3682 -2.4782
 4395TIP3   OH234599   6.006   4.530  13.256 -0.1082 -0.0423 -0.0738
 4395TIP3    H134600   6.099   4.522  13.233  0.1917 -0.3270  1.1551
 4395TIP3    H234601   5.962   4.546  13.173  1.3066  2.3950 -0.4584
 4396TIP3   OH234602   4.304   2.849   0.273  0.3606  0.2975 -0.2928
 4396TIP3    H134603   4.215   2.827   0.301 -0.2797  1.9106 -0.8957
 4396TIP3    H234604   4.325   2.783   0.207  0.1285 -0.8486  0.7463
 4397TIP3   OH234605   5.012   4.661  14.371 -0.0782  0.1199  0.1933
 4397TIP3    H134606   4.980   4.580  14.410 -2.7206  2.5035  3.6340
 4397TIP3    H234607   4.942   4.689  14.312  0.0618  0.6285  0.2550
 4398TIP3   OH234608   5.652   2.577   5.866 -0.2567 -0.3593 -0.3688
 4398TIP3    H134609   5.604   2.601   5.946 -0.0824 -0.1748 -0.3187
 4398TIP3    H234610   5.653   2.657   5.813 -1.0030 -0.6805 -0.8813
 4399TIP3   OH234611   0.590   2.810   4.214  0.1799  0.7541  0.0640
 4399TIP3    H134612   0.503   2.815   4.253 -0.5069  2.6111 -1.5619
 4399TIP3    H234613   0.650   2.828   4.286 -0.6490 -1.4799  1.4180
 4400TIP3   OH234614   4.013   4.538   2.484 -0.3781  0.7151 -0.0524
 4400TIP3    H134615   3.963   4.608   2.443  1.3963  1.2214 -1.4587
 4400TIP3    H234616   4.025   4.567   2.575 -1.6089  1.1007  0.0074
 4401TIP3   OH234617   3.815   3.353   0.849 -0.6622 -0.3894 -0.2756
 4401TIP3    H134618   3.890   3.310   0.889 -0.2765  0.4279 -0.1065
 4401TIP3    H234619   3.843   3.443   0.837 -2.0733  0.2366  0.9689
 4402TIP3   OH234620   1.822   5.558   5.350  0.6866 -0.7307 -0.4629
 4402TIP3    H134621   1.907   5.593   5.374  0.5714  1.1587 -2.4799
 4402TIP3    H234622   1.841   5.470   5.316  1.2806 -1.8703  2.5112
 4403TIP3   OH234623   4.415   6.569   6.667  0.2374 -0.1670  0.5210
 4403TIP3    H134624   4.331   6.523   6.655  0.5313 -0.8765  1.1133
 4403TIP3    H234625   4.400   6.656   6.630 -0.5906 -0.4680  0.1214
 4404TIP3   OH234626   4.613   4.916  14.773  0.3614  0.4391 -0.1717
 4404TIP3    H134627   4.691   4.907  14.827  0.3284  2.4037  0.2972
 4404TIP3    H234628   4.646   4.932  14.685  0.4653  0.1901 -0.1785
 4405TIP3   OH234629   5.486   6.133   5.524  0.4787 -0.3864 -0.0498
 4405TIP3    H134630   5.466   6.157   5.615 -0.0142  0.6063 -0.3996
 4405TIP3    H234631   5.428   6.059   5.506  0.1758 -0.2388  0.2808
 4406TIP3   OH234632   4.927   6.123  16.072 -0.0900  0.5681  0.3747
 4406TIP3    H134633   4.926   6.106  15.978 -1.6318 -0.8215  0.5984
 4406TIP3    H234634   4.941   6.037  16.112 -2.0844  0.6844  1.4449
 4407TIP3   OH234635   0.013   5.373  11.612 -0.2767  0.8988  0.8961
 4407TIP3    H134636   0.040   5.330  11.531 -3.1630  0.5552  0.0240
 4407TIP3    H234637  -0.027   5.303  11.664 -1.6370  1.7669  1.0618
 4408TIP3   OH234638   5.688   4.444   1.434 -0.5571 -0.4563  0.3993
 4408TIP3    H134639   5.652   4.497   1.362  2.7360 -0.9477 -1.8467
 4408TIP3    H234640   5.757   4.498   1.471  0.4581 -1.7810  0.4947
 4409TIP3   OH234641   5.038   6.355   2.913  0.0901 -0.1071  0.4172
 4409TIP3    H134642   5.126   6.394   2.912  0.7557 -1.5380 -0.7300
 4409TIP3    H234643   4.980   6.426   2.888  0.9881  0.7137  0.6098
 4410TIP3   OH234644   4.606   3.540   1.650  0.1647  0.1891  0.0605
 4410TIP3    H134645   4.576   3.529   1.560 -0.8855 -0.2111  0.4299
 4410TIP3    H234646   4.616   3.451   1.683  1.8425  0.3079 -0.0383
 4411TIP3   OH234647   1.945   2.025  14.135  0.0193 -0.2762  0.3996
 4411TIP3    H134648   2.000   2.058  14.065 -0.9494 -1.9876 -1.2441
 4411TIP3    H234649   1.914   2.104  14.180 -0.7680  1.0147 -2.2175
 4412TIP3   OH234650   6.690   5.100   3.107  0.3597 -0.3134 -0.3520
 4412TIP3    H134651   6.687   5.154   3.186  1.1197 -2.5909  1.3090
 4412TIP3    H234652   6.759   5.140   3.053 -0.3211  1.3980 -0.0305
 4413TIP3   OH234653   4.679   5.200  13.046 -0.0284  0.5395 -0.2716
 4413TIP3    H134654   4.719   5.118  13.017  4.1216  2.3860 -0.5633
 4413TIP3    H234655   4.638   5.236  12.967  0.6788  0.0370 -0.8896
 4414TIP3   OH234656   5.380   1.528  12.846  0.8857 -0.2099  0.4814
 4414TIP3    H134657   5.325   1.607  12.843  0.4243 -0.4988  1.0134
 4414TIP3    H234658   5.357   1.480  12.767 -1.2760 -1.3764  1.7297
 4415TIP3   OH234659   1.446   2.920   4.907 -0.1614 -0.5810  0.6327
 4415TIP3    H134660   1.414   2.952   4.991  0.1664  0.6573  0.3070
 4415TIP3    H234661   1.377   2.943   4.845  1.2146  2.0758 -0.0716
 4416TIP3   OH234662   5.739   0.407   4.002  0.2864 -0.8777 -0.2439
 4416TIP3    H134663   5.725   0.482   3.945  1.9310  1.0557  1.7481
 4416TIP3    H234664   5.815   0.362   3.964 -0.9184 -1.8426 -1.6434
 4417TIP3   OH234665   5.669   0.314   1.201 -0.1116 -0.4583  0.0761
 4417TIP3    H134666   5.611   0.304   1.126 -0.9160  1.0967  0.4518
 4417TIP3    H234667   5.619   0.365   1.264  0.7381 -1.2876  1.4836
 4418TIP3   OH234668   3.388   2.109  16.838 -0.0051 -0.3236 -0.1413
 4418TIP3    H134669   3.415   2.101  16.929 -1.1980  2.1450  0.5165
 4418TIP3    H234670   3.314   2.049  16.829  0.0712 -0.5189  0.5210
 4419TIP3   OH234671   5.219   6.194  12.880 -0.3855  0.0051  0.5466
 4419TIP3    H134672   5.221   6.222  12.972  0.5171  1.8369  0.0308
 4419TIP3    H234673   5.308   6.162  12.863 -0.9861 -1.8507  0.6987
 4420TIP3   OH234674   3.736   6.712   3.678 -0.3246 -0.3664  0.8010
 4420TIP3    H134675   3.811   6.767   3.703 -0.6963 -0.0204  1.1811
 4420TIP3    H234676   3.771   6.623   3.677  0.4387 -0.0746 -0.4136
 4421TIP3   OH234677   6.413   4.624   4.696 -0.0664  0.9021 -0.0091
 4421TIP3    H134678   6.496   4.599   4.735 -0.3196 -0.0769 -0.0655
 4421TIP3    H234679   6.363   4.661   4.769 -0.7259 -1.3692  0.8111
 4422TIP3   OH234680   4.591   3.104   4.502 -0.5573  0.2020 -0.0522
 4422TIP3    H134681   4.652   3.154   4.557  2.3881  0.2309 -2.9910
 4422TIP3    H234682   4.636   3.021   4.487 -1.1259  0.2647 -2.4245
 4423TIP3   OH234683   3.180   3.030   5.066  0.3365  0.0534 -0.4787
 4423TIP3    H134684   3.175   3.110   5.119  2.4303 -0.2204  0.2410
 4423TIP3    H234685   3.109   3.039   5.002 -0.4057  1.7783  0.5181
 4424TIP3   OH234686   3.237   1.367  17.164 -0.1084  0.5406 -0.2798
 4424TIP3    H134687   3.225   1.392  17.072  0.8945  0.1400 -0.5361
 4424TIP3    H234688   3.229   1.272  17.164 -1.5432  0.6391  0.3039
 4425TIP3   OH234689   4.972   1.012  14.643 -0.2561 -0.4594  0.5652
 4425TIP3    H134690   5.040   0.967  14.694  1.3909  0.1247 -0.9982
 4425TIP3    H234691   4.948   1.088  14.696 -1.2750 -1.7881  2.0972
 4426TIP3   OH234692   1.945   2.364   1.140  0.4371 -0.2582 -0.1553
 4426TIP3    H134693   2.001   2.333   1.212 -1.6039  1.0205  2.1330
 4426TIP3    H234694   1.967   2.456   1.130  1.8144 -0.7342 -2.4004
 4427TIP3   OH234695   3.099   0.354  11.277  0.3731  0.2996  0.7448
 4427TIP3    H134696   3.064   0.355  11.367 -0.0138 -0.1642  0.6052
 4427TIP3    H234697   3.087   0.263  11.248  1.0913  0.2902  0.4516
 4428TIP3   OH234698   0.270   2.541  13.211  0.3024 -0.4274  0.1743
 4428TIP3    H134699   0.192   2.548  13.266 -0.4849  0.8054 -1.0273
 4428TIP3    H234700   0.264   2.455  13.171 -2.4390  0.8760 -2.6417
 4429TIP3   OH234701   5.031   6.088  16.329  0.1387  0.3924  0.2365
 4429TIP3    H134702   4.968   6.090  16.401 -1.3477  0.8922 -1.0178
 4429TIP3    H234703   4.986   6.132  16.257  2.1994  1.4041 -0.5156
 4430TIP3   OH234704   5.271   5.223  16.922  0.5522  0.7203  0.2323
 4430TIP3    H134705   5.205   5.229  16.854 -1.9099 -0.4655  2.3368
 4430TIP3    H234706   5.347   5.270  16.887 -0.9547  1.1164 -2.7866
 4431TIP3   OH234707   3.267   2.468  15.028  0.3208  0.1478  0.4725
 4431TIP3    H134708   3.198   2.515  15.074  1.0864 -0.6332  2.5437
 4431TIP3    H234709   3.245   2.376  15.038  0.1572 -0.0571 -1.3891
 4432TIP3   OH234710   3.249   3.973   3.418  0.0357  0.3592 -0.2214
 4432TIP3    H134711   3.250   3.926   3.335 -1.2344 -1.2765  0.6284
 4432TIP3    H234712   3.330   3.948   3.461 -0.0056  0.0292 -0.3352
 4433TIP3   OH234713   2.316   5.548  12.395  0.0255  0.0491 -0.2376
 4433TIP3    H134714   2.264   5.524  12.318  0.3449  0.0801 -0.4672
 4433TIP3    H234715   2.329   5.466  12.442 -0.2278  0.0409 -0.1827
 4434TIP3   OH234716   3.620   4.090   1.572 -0.0270  0.7570 -0.2007
 4434TIP3    H134717   3.659   4.177   1.568 -0.8511  1.1075 -1.0814
 4434TIP3    H234718   3.692   4.031   1.594  1.4671  1.0815 -3.7377
 4435TIP3   OH234719   0.540   5.817   4.083 -0.4918 -0.1480 -0.4432
 4435TIP3    H134720   0.590   5.855   4.155 -0.0293 -0.7963 -0.4145
 4435TIP3    H234721   0.449   5.832   4.106 -0.4083  3.3032 -1.6534
 4436TIP3   OH234722   2.814   4.504   3.042  0.4085 -0.0484  0.4248
 4436TIP3    H134723   2.770   4.433   3.088 -1.7593  2.1071  1.9436
 4436TIP3    H234724   2.903   4.503   3.076 -0.6523  0.3597  3.5348
 4437TIP3   OH234725   3.380   2.846  13.222 -0.0320 -0.3128  0.3999
 4437TIP3    H134726   3.417   2.783  13.283  0.6839  0.1461  0.4422
 4437TIP3    H234727   3.320   2.794  13.167  0.4509 -0.9975  0.5181
 4438TIP3   OH234728   5.041   1.449  16.747 -0.0949 -0.0370 -0.3513
 4438TIP3    H134729   5.052   1.401  16.665 -0.5111  0.6281 -0.8103
 4438TIP3    H234730   4.972   1.402  16.793 -1.0782  0.5504 -1.1591
 4439TIP3   OH234731   4.281   2.220   3.007  0.3014  0.2722  0.2523
 4439TIP3    H134732   4.199   2.214   3.057 -0.4863  2.0744 -0.7059
 4439TIP3    H234733   4.347   2.246   3.071 -0.1811  0.2136  0.7821
 4440TIP3   OH234734   5.115   4.625  13.671  0.2313 -0.0164 -0.2710
 4440TIP3    H134735   5.192   4.664  13.711 -0.5274 -0.9223  2.2218
 4440TIP3    H234736   5.149   4.564  13.605  1.7369 -1.5239  1.8046
 4441TIP3   OH234737   0.399   0.193   3.551 -0.1537  0.0567 -0.3168
 4441TIP3    H134738   0.431   0.221   3.465 -1.4229  1.1216 -0.4779
 4441TIP3    H234739   0.449   0.245   3.614  0.5315 -0.4730 -0.4156
 4442TIP3   OH234740   4.864   4.810   6.014  0.2469 -0.0508  0.1237
 4442TIP3    H134741   4.807   4.887   6.016 -0.4319 -0.4321 -2.2188
 4442TIP3    H234742   4.804   4.736   6.027  0.7750 -0.2751  1.4602
 4443TIP3   OH234743   1.503   1.101  12.471 -0.1180  0.5979  0.1551
 4443TIP3    H134744   1.457   1.019  12.487  0.3149 -0.0031 -1.4424
 4443TIP3    H234745   1.533   1.129  12.558 -0.0095 -1.0901  0.7109
 4444TIP3   OH234746   3.268   2.800  11.270  0.8364  0.7077  0.1946
 4444TIP3    H134747   3.199   2.733  11.272  1.0185  0.5128  2.4646
 4444TIP3    H234748   3.225   2.879  11.302  1.2389  1.0649 -0.1296
 4445TIP3   OH234749   5.840   1.332   3.676 -0.1230 -0.1804 -0.1137
 4445TIP3    H134750   5.775   1.398   3.653  1.4268  0.7759 -2.0223
 4445TIP3    H234751   5.922   1.381   3.684  0.6273 -1.5427  0.8974
 4446TIP3   OH234752   0.721   0.853  11.973 -0.4062 -0.6354  0.3424
 4446TIP3    H134753   0.676   0.774  11.941 -0.3937 -0.4704 -0.0892
 4446TIP3    H234754   0.793   0.819  12.025 -0.2578 -0.9208 -0.0385
 4447TIP3   OH234755   2.413   0.622  17.091  0.2866  0.4762 -0.5911
 4447TIP3    H134756   2.366   0.539  17.100  0.1165  0.4903 -1.2954
 4447TIP3    H234757   2.501   0.603  17.124 -0.2277  0.4822  0.8525
 4448TIP3   OH234758   3.706   6.452   3.343 -0.3932  0.3401 -0.0618
 4448TIP3    H134759   3.757   6.502   3.279  0.0298  2.3253  1.7375
 4448TIP3    H234760   3.702   6.364   3.306  1.0284  1.0693 -2.1247
 4449TIP3   OH234761   0.355   1.639  13.129  0.1998  0.3011  0.3206
 4449TIP3    H134762   0.405   1.602  13.203  0.1665  0.1155  0.2510
 4449TIP3    H234763   0.327   1.725  13.160  0.0250  0.1456  0.5970
 4450TIP3   OH234764   3.818   0.353  13.797 -0.0255 -0.0200 -0.2877
 4450TIP3    H134765   3.879   0.296  13.749 -0.0963  0.0351 -0.4428
 4450TIP3    H234766   3.758   0.292  13.840  0.8872 -0.1327  0.8920
 4451TIP3   OH234767   6.400   5.941  15.475  0.5632  0.2755  0.2634
 4451TIP3    H134768   6.491   5.912  15.475  0.4545 -0.0640  1.0106
 4451TIP3    H234769   6.349   5.863  15.497  0.2181  0.8209  1.4778
 4452TIP3   OH234770   5.361   6.416  11.985 -0.1436  0.2471 -0.1011
 4452TIP3    H134771   5.289   6.397  11.924 -2.1222  0.4067  2.0694
 4452TIP3    H234772   5.366   6.338  12.041  1.9317 -0.0858 -0.6546
 4453TIP3   OH234773   4.965   6.743   6.360 -0.5813 -0.0779  0.0432
 4453TIP3    H134774   4.952   6.664   6.412  1.8863 -0.2034  0.6042
 4453TIP3    H234775   4.962   6.814   6.424  3.1960 -0.2875  0.6884
 4454TIP3   OH234776   5.469   5.928  14.866 -0.3662  0.0569  0.2373
 4454TIP3    H134777   5.478   5.859  14.931 -2.1866 -0.4837 -0.0291
 4454TIP3    H234778   5.557   5.964  14.856  0.1858 -0.7364  2.0020
 4455TIP3   OH234779   2.229   4.962  14.114  0.2227  0.4801 -0.1784
 4455TIP3    H134780   2.171   5.037  14.096 -1.5796 -0.8878 -0.4413
 4455TIP3    H234781   2.296   4.967  14.045  0.5481  2.1945  0.2091
 4456TIP3   OH234782   3.208   4.211   5.222 -0.0705  0.0313  0.0127
 4456TIP3    H134783   3.252   4.186   5.141  1.1469 -0.5492  0.8307
 4456TIP3    H234784   3.279   4.235   5.281 -0.9356  0.2505  0.9834
 4457TIP3   OH234785   1.016   0.815   4.628 -0.5039  0.1146 -0.7116
 4457TIP3    H134786   0.950   0.793   4.694  0.6317  1.0725  0.7829
 4457TIP3    H234787   1.100   0.799   4.671  0.2989  2.5902 -1.2081
 4458TIP3   OH234788   1.806   1.513  15.378 -0.2322  0.0191 -0.4931
 4458TIP3    H134789   1.810   1.607  15.395  0.3681 -0.1225  0.2104
 4458TIP3    H234790   1.811   1.472  15.464 -1.5490 -0.6533 -0.7102
 4459TIP3   OH234791   3.050   3.652   0.495 -0.2051 -0.1695 -0.0592
 4459TIP3    H134792   3.077   3.708   0.422  0.1160 -0.4358 -0.1474
 4459TIP3    H234793   3.001   3.581   0.453 -0.6566  0.0688  0.0575
 4460TIP3   OH234794   4.217   1.701  14.545 -0.1458 -0.2874 -0.0720
 4460TIP3    H134795   4.266   1.676  14.466 -2.3750  0.0272 -1.6601
 4460TIP3    H234796   4.280   1.749  14.598  0.9644  1.2208 -2.5599
 4461TIP3   OH234797   6.057   5.258   3.051  0.1513 -0.5985 -0.2881
 4461TIP3    H134798   6.049   5.230   2.959  3.3745 -0.8037 -0.6143
 4461TIP3    H234799   6.149   5.242   3.073  0.0649  1.7366  2.2420
 4462TIP3   OH234800   0.606   6.731  11.322 -0.3373 -0.3565 -0.0705
 4462TIP3    H134801   0.559   6.805  11.282  0.8119  0.2525 -0.3378
 4462TIP3    H234802   0.592   6.742  11.416 -0.5415 -0.0530 -0.1340
 4463TIP3   OH234803   4.036   6.622   0.479  0.2445 -0.0378 -0.2956
 4463TIP3    H134804   4.019   6.533   0.449 -1.2347 -0.0641  0.5305
 4463TIP3    H234805   4.098   6.612   0.551 -0.8157 -0.5338  0.5723
 4464TIP3   OH234806   3.860   4.272   1.809 -0.1165 -1.1203 -0.0500
 4464TIP3    H134807   3.942   4.250   1.764 -0.3190 -1.4263 -0.2721
 4464TIP3    H234808   3.881   4.263   1.902  0.2964 -0.5147 -0.0712
 4465TIP3   OH234809   6.001   2.520   1.952  0.0695 -0.3668 -0.2733
 4465TIP3    H134810   6.062   2.533   2.024 -0.0834 -1.7608  0.1457
 4465TIP3    H234811   6.047   2.555   1.875  1.3821 -1.3098  0.0457
 4466TIP3   OH234812   6.778   5.716   5.408 -0.2490  0.1725  0.0450
 4466TIP3    H134813   6.738   5.720   5.495 -1.6837 -1.4508 -0.4843
 4466TIP3    H234814   6.865   5.681   5.424 -0.8216 -0.9879  0.7811
 4467TIP3   OH234815   2.409   4.072   1.072  0.4302 -0.0545 -0.0166
 4467TIP3    H134816   2.368   4.016   1.139  1.4640  0.9389  1.5206
 4467TIP3    H234817   2.419   4.014   0.996 -0.3562 -1.3699  0.8274
 4468TIP3   OH234818   6.097   5.130  16.499 -0.2281 -0.0327  0.2316
 4468TIP3    H134819   6.140   5.052  16.463  0.9058  1.0647 -0.8790
 4468TIP3    H234820   6.044   5.163  16.426  0.8394  1.3225  0.0398
 4469TIP3   OH234821   6.155   0.352   3.658 -1.0636  0.0004 -0.1518
 4469TIP3    H134822   6.210   0.430   3.659 -1.7283  0.4768  1.0524
 4469TIP3    H234823   6.121   0.348   3.568  1.1238 -0.4962 -1.0277
 4470TIP3   OH234824   0.020   0.454   1.538 -0.1778  0.1661 -0.0613
 4470TIP3    H134825   0.040   0.363   1.558 -2.1176 -0.1810  0.5207
 4470TIP3    H234826   0.006   0.495   1.624  1.0621  1.1329 -0.2909
 4471TIP3   OH234827   0.896   0.979   6.264 -0.5185 -0.2497 -0.4880
 4471TIP3    H134828   0.920   1.021   6.182 -0.8686 -0.7446 -0.8509
 4471TIP3    H234829   0.936   0.892   6.259 -1.3682 -0.6442 -0.5831
 4472TIP3   OH234830   4.597   1.710   2.082 -0.1291  0.3503 -0.6657
 4472TIP3    H134831   4.526   1.731   2.021 -1.9704 -0.9754  0.8837
 4472TIP3    H234832   4.652   1.648   2.034 -1.4249 -0.5158 -1.0926
 4473TIP3   OH234833   5.721   1.994  15.968  0.0429  0.6527  0.3523
 4473TIP3    H134834   5.781   1.984  16.041  0.7046 -0.2983 -0.2950
 4473TIP3    H234835   5.759   2.062  15.913 -0.6416  1.6221  1.0606
 4474TIP3   OH234836   5.495   1.965  11.125  0.2234 -0.3924  0.4263
 4474TIP3    H134837   5.431   2.008  11.068 -0.0568 -0.5497  0.6193
 4474TIP3    H234838   5.506   2.025  11.198 -1.0874 -1.1773  1.3078
 4475TIP3   OH234839   5.972   1.773   1.581  0.0008 -0.3147 -0.3791
 4475TIP3    H134840   6.067   1.763   1.595  0.3198  1.7820 -0.7735
 4475TIP3    H234841   5.964   1.851   1.527 -2.0654  0.9777  1.6058
 4476TIP3   OH234842   5.963   1.324   0.747  0.3936 -0.1956  0.3643
 4476TIP3    H134843   6.019   1.259   0.789 -0.4916 -0.3125  1.4038
 4476TIP3    H234844   5.976   1.404   0.799  1.3400  0.4425 -0.7957
 4477TIP3   OH234845   5.457   3.470  16.474  0.6390  0.5768  0.3393
 4477TIP3    H134846   5.365   3.488  16.453  0.5526 -1.7436 -1.6504
 4477TIP3    H234847   5.454   3.424  16.557  0.1926  2.0345  1.1659
 4478TIP3   OH234848   4.716   4.639  16.097 -0.4838  0.2316  0.2543
 4478TIP3    H134849   4.788   4.657  16.037 -0.3946  1.5212  0.7051
 4478TIP3    H234850   4.757   4.629  16.182 -0.8733  2.2628  0.7497
 4479TIP3   OH234851   4.617   3.695   5.592 -0.1038  0.2964  0.8152
 4479TIP3    H134852   4.694   3.750   5.607  1.4319 -1.5409  0.1090
 4479TIP3    H234853   4.568   3.740   5.523  0.4343  1.4112  1.1490
 4480TIP3   OH234854   2.698   2.301   4.951  1.0129 -0.3045  0.2682
 4480TIP3    H134855   2.604   2.300   4.935  0.9384  1.1696  0.4902
 4480TIP3    H234856   2.730   2.381   4.909  2.7724 -2.3681 -2.7638
 4481TIP3   OH234857   1.967   3.727   5.621  0.4305  0.3628 -0.6371
 4481TIP3    H134858   1.928   3.751   5.537  1.4298  1.9632 -0.6690
 4481TIP3    H234859   1.913   3.772   5.686  0.7808  0.6320 -0.5332
 4482TIP3   OH234860   6.596   5.843   1.786  0.3496  0.2438 -0.6513
 4482TIP3    H134861   6.680   5.802   1.764 -0.1140 -0.9516 -0.2646
 4482TIP3    H234862   6.542   5.829   1.709  0.0026 -0.4093 -0.2973
 4483TIP3   OH234863   2.952   1.332  11.021  0.2196  0.0590  0.0620
 4483TIP3    H134864   2.950   1.248  10.976 -2.0499  1.1307 -2.0441
 4483TIP3    H234865   2.960   1.397  10.952  2.1530  1.6624  1.6439
 4484TIP3   OH234866   0.335   4.467   5.885 -0.2024 -0.0784  0.3722
 4484TIP3    H134867   0.295   4.435   5.965  1.9077 -0.8271  1.2107
 4484TIP3    H234868   0.335   4.391   5.826 -0.7794  0.1607  0.0635
 4485TIP3   OH234869   5.014   4.461  10.979  0.5719 -0.0747 -0.2046
 4485TIP3    H134870   5.105   4.470  11.004  0.3778  0.2771  0.3968
 4485TIP3    H234871   5.016   4.422  10.892  1.3149  0.8663 -0.6197
 4486TIP3   OH234872   2.281   0.668  12.028  0.1851  0.4112  0.5091
 4486TIP3    H134873   2.249   0.627  11.948  1.8403  0.9376 -0.4838
 4486TIP3    H234874   2.248   0.758  12.024 -2.1117 -0.2880  1.8951
 4487TIP3   OH234875   1.207   3.051   3.957 -0.7872 -0.4034 -0.5164
 4487TIP3    H134876   1.189   3.145   3.960 -0.4771 -0.3077 -1.3215
 4487TIP3    H234877   1.123   3.011   3.935 -0.8627 -0.2886 -0.4359
 4488TIP3   OH234878   0.734   2.683   0.867  0.1145  0.1568 -0.1261
 4488TIP3    H134879   0.722   2.675   0.961  1.1003 -3.6592 -0.1544
 4488TIP3    H234880   0.651   2.655   0.829  0.1977  0.2432 -0.3763
 4489TIP3   OH234881   4.790   4.626  10.863  0.5658  0.1423  0.0142
 4489TIP3    H134882   4.858   4.630  10.795  0.5344 -0.0406 -0.0279
 4489TIP3    H234883   4.755   4.715  10.867 -0.5605 -0.1975 -1.3680
 4490TIP3   OH234884   4.004   1.316   3.506  0.0141 -0.4948  0.5917
 4490TIP3    H134885   4.058   1.321   3.585  0.4488 -0.2786  0.2885
 4490TIP3    H234886   3.996   1.223   3.488  0.3215 -0.5298  0.6224
 4491TIP3   OH234887   2.040   1.693  12.988 -0.4886  0.4645 -0.4121
 4491TIP3    H134888   2.064   1.613  13.033 -0.8700  0.7722  0.3521
 4491TIP3    H234889   2.116   1.713  12.933  0.5220  0.7422  1.0265
 4492TIP3   OH234890   1.379   2.694  14.583 -0.2613 -0.1081 -0.0576
 4492TIP3    H134891   1.292   2.701  14.545 -0.3995 -0.8503  0.1002
 4492TIP3    H234892   1.372   2.624  14.648 -0.3367  1.9255  2.2459
 4493TIP3   OH234893   5.471   6.126   2.522  0.7070  0.7751 -0.0468
 4493TIP3    H134894   5.466   6.032   2.539  1.3875  0.8493  0.6010
 4493TIP3    H234895   5.395   6.144   2.466  0.8372 -0.2387 -0.5749
 4494TIP3   OH234896   2.679   0.203  14.808 -0.6595 -0.2906 -0.3591
 4494TIP3    H134897   2.690   0.152  14.888 -0.8908  0.6502  0.2811
 4494TIP3    H234898   2.599   0.254  14.822  1.4202  3.0042  0.5944
 4495TIP3   OH234899   5.270   3.263  12.038 -0.4398  0.3651 -0.0741
 4495TIP3    H134900   5.292   3.221  11.955 -0.2115  0.3635 -0.0141
 4495TIP3    H234901   5.346   3.247  12.094 -1.3038 -1.1271  0.7169
 4496TIP3   OH234902   0.986   1.283  12.675 -0.0611  0.6721  0.3457
 4496TIP3    H134903   1.043   1.278  12.752 -1.1437  2.1276  1.2980
 4496TIP3    H234904   0.917   1.218  12.692  0.4485 -0.0023 -0.0893
 4497TIP3   OH234905   0.109   5.287   3.581 -0.2596 -0.5874 -0.4840
 4497TIP3    H134906   0.064   5.231   3.644  0.0493  1.5120  1.7990
 4497TIP3    H234907   0.202   5.270   3.595 -0.2029 -0.4341 -0.6676
 4498TIP3   OH234908   4.723   4.503   4.956 -0.4549  0.0291 -0.7683
 4498TIP3    H134909   4.806   4.492   4.909 -0.4399  0.1719 -0.7747
 4498TIP3    H234910   4.686   4.415   4.959  0.3500 -0.3063  0.4356
 4499TIP3   OH234911   4.296   5.912  10.566 -0.3533  0.3118 -0.1126
 4499TIP3    H134912   4.318   5.969  10.492 -0.2686 -0.8773 -1.0466
 4499TIP3    H234913   4.368   5.924  10.628 -0.5518  1.5224 -0.0947
 4500TIP3   OH234914   5.160   6.783  15.200  0.4934 -0.1400  0.3937
 4500TIP3    H134915   5.194   6.861  15.157 -0.2819 -0.4588 -0.8417
 4500TIP3    H234916   5.073   6.808  15.230  0.1910 -0.5471 -0.1178
 4501TIP3   OH234917   6.609   3.523  14.953 -0.1876  0.4384 -0.0416
 4501TIP3    H134918   6.613   3.600  14.896  1.9320  0.2917 -0.2003
 4501TIP3    H234919   6.611   3.559  15.042  0.3383  0.6133 -0.1156
 4502TIP3   OH234920   0.052   4.552   0.287  0.1228  0.3359  0.9968
 4502TIP3    H134921   0.040   4.614   0.360 -0.7842  1.4169 -0.0364
 4502TIP3    H234922  -0.019   4.489   0.298 -0.2286  0.7015  0.8529
 4503TIP3   OH234923   5.002   6.751  16.961 -0.1654 -0.2452 -0.4250
 4503TIP3    H134924   5.082   6.699  16.969 -0.6712 -1.2280 -1.4862
 4503TIP3    H234925   5.029   6.832  16.919  0.8843  1.0466  2.4588
 4504TIP3   OH234926   4.957   2.001   1.920 -0.1661  0.2215  0.0978
 4504TIP3    H134927   5.044   2.036   1.940  1.3538 -0.8112 -3.8222
 4504TIP3    H234928   4.950   1.923   1.975  3.0354 -1.6625 -1.8672
 4505TIP3   OH234929   2.116   6.161  13.162  0.3159  0.2525 -0.3473
 4505TIP3    H134930   2.104   6.173  13.068 -0.2946 -1.3255 -0.5148
 4505TIP3    H234931   2.204   6.124  13.170 -0.2528 -1.2132 -0.5010
 4506TIP3   OH234932   1.684   1.160  13.149 -0.6632  0.0311  0.0222
 4506TIP3    H134933   1.674   1.242  13.101  0.4977  0.2554  0.1239
 4506TIP3    H234934   1.674   1.184  13.241 -0.4610  0.0284  0.0442
 4507TIP3   OH234935   0.880   4.159   2.264 -0.1698 -0.2419 -0.5423
 4507TIP3    H134936   0.817   4.230   2.253  0.5722  0.4996 -0.2310
 4507TIP3    H234937   0.837   4.097   2.321 -0.5196  0.3990 -0.0923
 4508TIP3   OH234938   2.485   1.666  11.988  0.3299 -0.1880  0.1150
 4508TIP3    H134939   2.479   1.739  12.049 -2.7821 -0.1442 -0.0649
 4508TIP3    H234940   2.451   1.591  12.037  0.1239 -0.6951 -0.7854
 4509TIP3   OH234941   0.663   2.265  11.408 -0.4316 -0.2416  0.4995
 4509TIP3    H134942   0.590   2.327  11.408 -1.9847 -1.9711  0.4972
 4509TIP3    H234943   0.720   2.296  11.478  0.1784  2.5863 -1.0980
 4510TIP3   OH234944   3.855   5.925   3.422 -0.6086 -0.2460 -0.7124
 4510TIP3    H134945   3.838   5.918   3.328 -0.9165  0.7712 -0.7436
 4510TIP3    H234946   3.950   5.929   3.429 -0.5631 -0.8161 -0.9362
 4511TIP3   OH234947   0.631   1.989  11.402  0.7235 -0.1900 -0.3089
 4511TIP3    H134948   0.586   2.074  11.403  0.0338 -0.5284 -1.2977
 4511TIP3    H234949   0.718   2.008  11.435  0.8904  1.0898 -1.3987
 4512TIP3   OH234950   1.102   0.034   3.339  0.1378  0.4417 -0.3178
 4512TIP3    H134951   1.130  -0.045   3.385  1.8403  0.4348 -1.2923
 4512TIP3    H234952   1.147   0.106   3.383  0.0133  0.6799 -0.5683
 4513TIP3   OH234953   4.082   1.377  16.265  0.1765 -0.5639  0.0111
 4513TIP3    H134954   4.045   1.435  16.200  0.9335  0.1385  0.1865
 4513TIP3    H234955   4.167   1.415  16.286 -0.4125 -0.2643  2.0644
 4514TIP3   OH234956   2.564   1.801   1.783  0.5179 -0.0677  0.8012
 4514TIP3    H134957   2.589   1.826   1.872 -0.2576  1.3366  0.6490
 4514TIP3    H234958   2.558   1.883   1.735 -1.1654 -0.6150 -0.0030
 4515TIP3   OH234959   3.647   2.108  14.138  0.1333 -0.1085 -0.4460
 4515TIP3    H134960   3.704   2.032  14.149  1.2541  0.3783 -2.3849
 4515TIP3    H234961   3.678   2.171  14.204  2.4252  0.4258 -1.9127
 4516TIP3   OH234962   6.019   2.570  17.049 -0.2809  0.4377 -0.8183
 4516TIP3    H134963   5.971   2.551  16.969 -0.5544  2.5017 -1.1782
 4516TIP3    H234964   5.984   2.508  17.113 -1.3211 -0.0537 -1.8299
 4517TIP3   OH234965   4.300   5.898  16.759 -0.6507  0.4243  0.4594
 4517TIP3    H134966   4.246   5.930  16.687 -0.0071  1.3150  0.3607
 4517TIP3    H234967   4.341   5.976  16.796  0.1592 -0.1745  0.8689
 4518TIP3   OH234968   1.997   1.503   2.575  0.1140  0.0686 -0.0493
 4518TIP3    H134969   1.965   1.593   2.567  1.3226  0.3229 -3.0968
 4518TIP3    H234970   2.061   1.506   2.646  0.6713  1.7769 -0.6066
 4519TIP3   OH234971   5.256   5.840  14.495 -0.1880  0.0696 -0.0849
 4519TIP3    H134972   5.349   5.845  14.474 -0.0207 -1.0966  0.3205
 4519TIP3    H234973   5.225   5.931  14.488  0.8885  0.4195 -0.5750
 4520TIP3   OH234974   6.109   3.815  12.498  0.7532  0.2325 -0.2614
 4520TIP3    H134975   6.020   3.849  12.496  0.5726 -0.2511 -1.4787
 4520TIP3    H234976   6.141   3.827  12.409  1.3747 -0.9503 -0.2147
 4521TIP3   OH234977   6.711   2.196  16.846 -0.1687  0.3209 -1.1300
 4521TIP3    H134978   6.788   2.252  16.836  2.8464 -2.7831  1.9920
 4521TIP3    H234979   6.746   2.109  16.862 -4.4309 -1.5887 -0.7208
 4522TIP3   OH234980   1.940   5.513  14.515  0.3215 -0.0523  0.1879
 4522TIP3    H134981   1.989   5.587  14.477  1.1888  0.1218  1.5816
 4522TIP3    H234982   2.007   5.449  14.538 -0.0485  0.2409  2.2597
 4523TIP3   OH234983   1.282   3.088  11.744 -0.3648 -0.3834 -0.0312
 4523TIP3    H134984   1.218   3.024  11.712 -0.7079  0.1693 -0.4679
 4523TIP3    H234985   1.228   3.157  11.784 -0.0311 -0.0331 -0.1833
 4524TIP3   OH234986   0.012   2.845   1.180  0.3726  0.3815 -0.5413
 4524TIP3    H134987  -0.030   2.822   1.263  4.2051 -0.0358  1.5045
 4524TIP3    H234988  -0.032   2.926   1.153 -3.3837 -1.3104 -0.1211
 4525TIP3   OH234989   5.749   3.288  12.706 -0.6915 -0.6144  0.0590
 4525TIP3    H134990   5.676   3.313  12.648 -1.5146 -1.8912  0.4960
 4525TIP3    H234991   5.752   3.358  12.771 -0.2579  0.4416 -1.0520
 4526TIP3   OH234992   5.107   6.726   5.521 -0.3950  0.4899 -0.1964
 4526TIP3    H134993   5.143   6.637   5.527  0.1220  0.7992  2.4796
 4526TIP3    H234994   5.177   6.777   5.482 -0.2112 -0.0483 -0.5884
 4527TIP3   OH234995   2.465   3.015  11.112  1.0378  0.1860  0.6583
 4527TIP3    H134996   2.466   2.920  11.114  1.2334  0.1967  1.2449
 4527TIP3    H234997   2.468   3.037  11.019 -0.1438 -0.3854  0.4634
 4528TIP3   OH234998   0.332   1.931   4.269 -0.0228  0.5502  0.4012
 4528TIP3    H134999   0.363   1.860   4.325  0.1445  1.2420  1.1931
 4528TIP3    H235000   0.330   1.892   4.181  0.4371 -0.3176  0.7608
 4529TIP3   OH235001   0.981   4.824   3.811  0.3623 -0.1016  0.0847
 4529TIP3    H135002   1.038   4.896   3.838  0.9696 -0.8965  0.9573
 4529TIP3    H235003   1.040   4.752   3.793 -0.2960 -0.6121 -0.0786
 4530TIP3   OH235004   1.726   3.269   3.251 -0.6884  0.3656 -0.4167
 4530TIP3    H135005   1.744   3.360   3.276  0.7569  0.5139 -1.8200
 4530TIP3    H235006   1.693   3.276   3.161 -2.2111 -0.4085  0.0374
 4531TIP3   OH235007   1.327   3.877   4.611 -0.3963  0.8018 -0.4327
 4531TIP3    H135008   1.345   3.816   4.683  2.1048  0.7494 -1.0154
 4531TIP3    H235009   1.241   3.914   4.632 -1.0601 -1.3732  1.0150
 4532TIP3   OH235010   4.765   5.786  15.069  0.2262  0.8242 -0.2463
 4532TIP3    H135011   4.677   5.815  15.045 -0.2431 -0.2460  0.1354
 4532TIP3    H235012   4.813   5.867  15.086 -0.6791  1.4210 -0.4590
 4533TIP3   OH235013   5.158   6.351  14.579  0.2744 -0.3788 -0.2254
 4533TIP3    H135014   5.195   6.407  14.511  0.7628 -0.2326  0.1583
 4533TIP3    H235015   5.070   6.386  14.595 -0.3438 -1.1883 -1.6766
 4534TIP3   OH235016   3.313   2.019   1.436 -0.0304  0.7845  0.2680
 4534TIP3    H135017   3.364   1.968   1.498 -0.7507  1.3451  1.3488
 4534TIP3    H235018   3.228   1.975   1.433 -0.3626  1.3935  0.5317
 4535TIP3   OH235019   0.624   2.614  12.851 -0.6250  0.3963  0.2297
 4535TIP3    H135020   0.607   2.706  12.834 -0.7800 -0.0563 -2.5035
 4535TIP3    H235021   0.707   2.596  12.807 -0.4377 -0.7051  0.9759
 4536TIP3   OH235022   3.547   1.043  10.881  0.3375 -0.0979 -0.0990
 4536TIP3    H135023   3.550   0.964  10.827 -1.5422 -1.0341  1.0574
 4536TIP3    H235024   3.638   1.058  10.906  0.7635 -1.8669 -0.4173
 4537TIP3   OH235025   2.368   0.739  14.741  0.7297 -0.3612 -0.2180
 4537TIP3    H135026   2.381   0.750  14.646  5.1467 -1.5988  0.0215
 4537TIP3    H235027   2.337   0.649  14.751  2.6907 -1.1242 -0.4986
 4538TIP3   OH235028   1.311   6.181  14.723  0.2702  0.4116 -0.0489
 4538TIP3    H135029   1.398   6.185  14.682  0.1337  1.5797 -0.2807
 4538TIP3    H235030   1.317   6.243  14.796 -0.8145  1.7401 -1.0195
 4539TIP3   OH235031   3.397   4.669   0.700  0.5691  0.2436  0.3269
 4539TIP3    H135032   3.367   4.611   0.770  0.0832 -0.8003 -0.7245
 4539TIP3    H235033   3.403   4.755   0.742 -0.9763 -0.1047  1.3454
 4540TIP3   OH235034   2.022   0.925  15.717  0.3020  0.9466 -0.0438
 4540TIP3    H135035   2.063   0.876  15.646 -0.2959 -0.0809  0.2793
 4540TIP3    H235036   2.094   0.972  15.759  0.8737  0.5119 -0.5127
 4541TIP3   OH235037   5.840   4.775  12.482  0.3620 -0.1558  0.0544
 4541TIP3    H135038   5.762   4.817  12.445  2.1749  2.4010 -1.1989
 4541TIP3    H235039   5.819   4.681  12.484 -2.3876  0.3590 -1.0510
 4542TIP3   OH235040   2.267   4.595  14.179 -0.4391  0.0384  0.0419
 4542TIP3    H135041   2.302   4.557  14.098 -3.7099 -1.9831 -0.6198
 4542TIP3    H235042   2.344   4.629  14.224  1.7237  0.0155 -3.2409
 4543TIP3   OH235043   0.705   0.865   6.650 -0.2350  0.1228  0.1776
 4543TIP3    H135044   0.687   0.912   6.569 -0.1799 -1.5775 -0.8753
 4543TIP3    H235045   0.794   0.891   6.674 -0.3775  0.8947 -0.1042
 4544TIP3   OH235046   4.611   4.540  14.211 -0.2677  0.3885 -0.9893
 4544TIP3    H135047   4.659   4.622  14.204 -0.9616  1.0110  1.0320
 4544TIP3    H235048   4.528   4.557  14.166  0.1821  0.2708 -1.8895
 4545TIP3   OH235049   4.817   6.579   5.849  0.0591 -0.0172  0.4982
 4545TIP3    H135050   4.897   6.630   5.852 -0.0656  0.2112  0.0135
 4545TIP3    H235051   4.750   6.635   5.887 -0.3363  0.6791 -1.1460
 4546TIP3   OH235052   6.175   1.123   3.512 -0.3075 -0.2496 -0.1297
 4546TIP3    H135053   6.177   1.064   3.436  0.7232  0.4287 -0.6492
 4546TIP3    H235054   6.180   1.210   3.474  2.0627  0.0685  0.7467
 4547TIP3   OH235055   3.491   3.886   3.477  0.1236 -0.1713  0.2173
 4547TIP3    H135056   3.514   3.882   3.570  0.0552 -0.0355  0.2411
 4547TIP3    H235057   3.572   3.868   3.430  0.7136  2.0350  0.2740
 4548TIP3   OH235058   4.577   2.400   5.365  0.2456  0.4265  0.1173
 4548TIP3    H135059   4.556   2.453   5.442 -0.1845  1.2812 -0.5781
 4548TIP3    H235060   4.510   2.332   5.363  0.1091  0.5545  0.3486
 4549TIP3   OH235061   0.404   5.198  14.873  0.6004 -0.2852  0.3525
 4549TIP3    H135062   0.453   5.280  14.864  1.3828 -0.8206 -0.3912
 4549TIP3    H235063   0.425   5.149  14.794 -2.4472  0.1348 -0.8795
 4550TIP3   OH235064   4.266   1.465  15.333 -0.7088  0.5344  0.3071
 4550TIP3    H135065   4.325   1.506  15.397 -0.1287 -0.3875  0.3732
 4550TIP3    H235066   4.180   1.467  15.376 -0.6863  1.6209  0.3311
 4551TIP3   OH235067   2.789   0.389  13.066 -0.0369  0.3083 -0.0240
 4551TIP3    H135068   2.780   0.476  13.027  0.6651  0.2514 -0.3139
 4551TIP3    H235069   2.765   0.329  12.995 -2.5626  0.2791  0.7408
 4552TIP3   OH235070   1.252   3.495   1.423 -0.0537 -0.2484  0.6654
 4552TIP3    H135071   1.256   3.574   1.368 -1.8450 -0.8501 -0.4383
 4552TIP3    H235072   1.320   3.438   1.388 -0.6399 -0.2991 -0.4393
 4553TIP3   OH235073   6.399   6.407  16.128 -0.1154  0.1049 -0.2747
 4553TIP3    H135074   6.339   6.388  16.200 -0.6141 -0.8967 -0.9227
 4553TIP3    H235075   6.445   6.324  16.113  1.8423  0.9776  0.5520
 4554TIP3   OH235076   5.823   1.854   2.943  0.1947 -0.5304 -0.4247
 4554TIP3    H135077   5.864   1.772   2.916  2.6426  0.9214 -1.4310
 4554TIP3    H235078   5.816   1.904   2.862  0.2043  0.8462  0.4029
 4555TIP3   OH235079   2.707   5.962   5.565  0.0402  0.2987 -0.2589
 4555TIP3    H135080   2.724   6.022   5.492 -1.1229 -0.2543 -1.0113
 4555TIP3    H235081   2.774   5.895   5.556  0.1375  0.4351 -0.5877
 4556TIP3   OH235082   3.036   2.071  14.275 -0.7687  0.4395  0.7288
 4556TIP3    H135083   3.108   2.092  14.216  0.0321  1.5733  2.0700
 4556TIP3    H235084   2.957   2.087  14.222 -0.1235 -1.7454 -1.0763
 4557TIP3   OH235085   4.714   6.264  15.929 -0.1621  0.3020 -0.3827
 4557TIP3    H135086   4.746   6.223  16.009  0.1243  1.4684  0.1335
 4557TIP3    H235087   4.683   6.350  15.957 -0.9911  0.3444 -1.3701
 4558TIP3   OH235088   3.376   0.163  14.624  0.5464  0.6941  0.7065
 4558TIP3    H135089   3.360   0.252  14.656 -2.2172 -0.1494  2.0315
 4558TIP3    H235090   3.310   0.109  14.669  1.2664 -1.8208 -1.0108
 4559TIP3   OH235091   6.390   3.045  12.596  0.5911 -0.1035 -0.0529
 4559TIP3    H135092   6.347   2.962  12.616  0.3200  0.1891  0.6262
 4559TIP3    H235093   6.364   3.065  12.506 -1.9843  0.8213  0.7961
 4560TIP3   OH235094   3.161   5.791  12.551  0.6104  0.2919 -0.6167
 4560TIP3    H135095   3.249   5.754  12.543  0.5801  0.0345  0.1957
 4560TIP3    H235096   3.106   5.734  12.497  0.9172  0.3774 -1.0206
 4561TIP3   OH235097   1.801   3.044   5.125  0.2377  0.2727  0.1655
 4561TIP3    H135098   1.762   3.010   5.045 -0.5600 -0.3164  0.7901
 4561TIP3    H235099   1.814   2.968   5.181  2.2240  0.4705  0.0210
 4562TIP3   OH235100   6.277   1.255  16.987  0.3126 -0.1442 -0.1201
 4562TIP3    H135101   6.221   1.185  16.956 -0.3700  0.1934  0.3174
 4562TIP3    H235102   6.282   1.242  17.082  0.0385  0.4862 -0.0116
 4563TIP3   OH235103   4.225   1.157   1.292  0.4576 -0.5313  0.3966
 4563TIP3    H135104   4.153   1.221   1.292  0.7038 -0.1988  2.1518
 4563TIP3    H235105   4.252   1.151   1.200  0.7361  2.2462  0.2207
 4564TIP3   OH235106   2.298   2.416   4.178  0.3189 -0.1315  0.4818
 4564TIP3    H135107   2.304   2.493   4.122 -0.3569 -1.3138 -1.3428
 4564TIP3    H235108   2.275   2.450   4.265  1.8959  1.8122  0.1887
 4565TIP3   OH235109   4.107   4.386  15.092 -0.0644  0.4089 -0.3881
 4565TIP3    H135110   4.137   4.468  15.130  0.9483 -0.4924  0.8660
 4565TIP3    H235111   4.173   4.322  15.119 -0.5250 -0.7234 -1.7989
 4566TIP3   OH235112   1.630   0.256   3.091 -0.4913 -0.5164 -0.1194
 4566TIP3    H135113   1.676   0.229   3.170  0.2944 -0.8831 -0.6820
 4566TIP3    H235114   1.538   0.240   3.109 -0.1532 -2.6260 -0.0422
 4567TIP3   OH235115   0.429   0.765   5.792  0.6953  0.0558  0.1091
 4567TIP3    H135116   0.406   0.720   5.711  1.2247 -2.0048  1.0333
 4567TIP3    H235117   0.348   0.769   5.842  0.8664 -0.8436  0.4628
 4568TIP3   OH235118   2.955   3.388   2.504  0.2773 -0.6659  0.3279
 4568TIP3    H135119   2.917   3.319   2.450 -1.0163 -0.3342  0.7778
 4568TIP3    H235120   2.966   3.348   2.590  1.4912 -0.9236  0.0663
 4569TIP3   OH235121   0.576   3.885   2.325  0.7591 -0.0048 -0.1680
 4569TIP3    H135122   0.504   3.842   2.279  1.7678 -0.7129 -1.1358
 4569TIP3    H235123   0.546   3.975   2.339 -1.5027 -0.9676  2.0661
 4570TIP3   OH235124   1.597   0.902   0.878  0.0547  0.4224  0.1513
 4570TIP3    H135125   1.528   0.900   0.811 -0.0959  0.5134  0.3008
 4570TIP3    H235126   1.642   0.819   0.869 -1.1879 -0.4008  1.1989
 4571TIP3   OH235127   3.701   5.242  16.679 -0.2017  0.3817 -0.4270
 4571TIP3    H135128   3.765   5.305  16.713  0.4447 -1.0464  1.1769
 4571TIP3    H235129   3.628   5.246  16.741 -0.9106  0.7632 -1.2758
 4572TIP3   OH235130   1.403   0.435  11.029 -0.0549 -0.2073 -0.3320
 4572TIP3    H135131   1.327   0.491  11.012  0.1058 -0.4186 -1.8460
 4572TIP3    H235132   1.470   0.466  10.968  2.0534  1.7251  2.7247
 4573TIP3   OH235133   1.750   0.809  12.183 -0.0933  0.1349 -0.3194
 4573TIP3    H135134   1.727   0.899  12.159  0.5782  0.4921  0.3506
 4573TIP3    H235135   1.751   0.809  12.278 -3.8047 -1.5357 -0.0988
 4574TIP3   OH235136   2.157   3.832  15.258  0.1620  0.6436 -0.4807
 4574TIP3    H135137   2.209   3.893  15.310 -0.1061  0.6710 -0.2395
 4574TIP3    H235138   2.095   3.888  15.211  0.4664  0.6280 -0.9128
 4575TIP3   OH235139   6.233   2.414   0.691 -0.3812 -0.0453 -0.2235
 4575TIP3    H135140   6.216   2.392   0.599  0.1503  0.9379 -0.5834
 4575TIP3    H235141   6.212   2.507   0.697 -2.1000 -0.4855  1.1057
 4576TIP3   OH235142   1.769   0.417  13.956 -0.4861  0.3773 -0.1956
 4576TIP3    H135143   1.677   0.410  13.930 -1.1718 -0.8137  2.2684
 4576TIP3    H235144   1.784   0.512  13.964 -1.3856  0.5990 -0.8905
 4577TIP3   OH235145   1.304   5.157   5.276 -0.3890  0.3896  0.1642
 4577TIP3    H135146   1.386   5.180   5.319  0.9704 -0.4314 -1.8447
 4577TIP3    H235147   1.302   5.061   5.275 -0.2339  0.3624 -1.7259
 4578TIP3   OH235148   3.998   0.175  13.166 -0.9796  0.7185  0.6314
 4578TIP3    H135149   4.056   0.128  13.107 -0.3578  0.9759  1.0329
 4578TIP3    H235150   4.050   0.189  13.245 -1.3418  1.5862  0.7240
 4579TIP3   OH235151   6.587   0.424   5.735  0.8204 -0.0218  0.2348
 4579TIP3    H135152   6.535   0.494   5.697 -0.3437 -1.7280 -1.4995
 4579TIP3    H235153   6.676   0.460   5.740 -0.2898  2.8106  2.9016
 4580TIP3   OH235154   6.613   0.792  11.451  0.3156  0.3791 -0.2007
 4580TIP3    H135155   6.690   0.764  11.403  0.0328 -1.1375  0.1579
 4580TIP3    H235156   6.637   0.781  11.543 -0.7541 -1.5183 -0.0868
 4581TIP3   OH235157   5.417   3.917  16.416  0.1240  0.2183 -0.5532
 4581TIP3    H135158   5.487   3.970  16.453 -0.4534  0.2923  0.4567
 4581TIP3    H235159   5.355   3.981  16.381 -0.7066  0.2481  0.9084
 4582TIP3   OH235160   6.344   0.071  14.630  0.2404 -0.0858 -0.3645
 4582TIP3    H135161   6.324   0.036  14.717 -0.2586 -0.5298 -0.6512
 4582TIP3    H235162   6.297   0.154  14.626  0.4332  0.0363 -0.1352
 4583TIP3   OH235163   2.480   1.932  11.347 -0.2560  0.4473  0.1954
 4583TIP3    H135164   2.539   1.867  11.385  0.0099 -0.3809 -1.5527
 4583TIP3    H235165   2.503   2.014  11.391  0.1621 -0.4165  1.6381
 4584TIP3   OH235166   3.340   3.018   4.151 -0.3731 -0.2898  0.2092
 4584TIP3    H135167   3.272   2.958   4.182 -0.7332  0.0222  0.0243
 4584TIP3    H235168   3.380   3.052   4.231 -1.2129  0.4143  0.3408
 4585TIP3   OH235169   1.956   4.067   3.999 -0.5311  0.0106  0.4612
 4585TIP3    H135170   1.959   3.994   4.061 -1.7626  0.3042  0.9047
 4585TIP3    H235171   2.040   4.111   4.009 -0.0687 -0.9024  0.7239
 4586TIP3   OH235172   6.130   5.238  14.886 -0.0409  0.4900  0.1888
 4586TIP3    H135173   6.178   5.320  14.903  0.2425  0.5024 -0.6554
 4586TIP3    H235174   6.180   5.195  14.817 -0.8187  0.1362 -0.1601
 4587TIP3   OH235175   1.998   2.781   4.079  0.8154 -0.3217 -0.2473
 4587TIP3    H135176   2.052   2.815   4.008  1.6386  1.0953  0.9846
 4587TIP3    H235177   1.914   2.761   4.038  1.2013  0.6358 -1.5870
 4588TIP3   OH235178   6.557   0.069  14.894  0.0177  0.1935 -0.0438
 4588TIP3    H135179   6.538  -0.019  14.924 -0.3976 -0.0181 -0.8846
 4588TIP3    H235180   6.511   0.076  14.811  0.8568  0.8638 -0.4698
 4589TIP3   OH235181   4.088   2.488  15.094  0.7974  0.0959 -0.5166
 4589TIP3    H135182   4.066   2.527  15.179  0.9410  0.8703 -0.8261
 4589TIP3    H235183   4.130   2.405  15.116 -1.5665 -1.0310  0.1265
 4590TIP3   OH235184   6.532   6.412   2.661 -0.3103  0.2809  0.9762
 4590TIP3    H135185   6.588   6.458   2.724 -0.2751  0.1582  1.0345
 4590TIP3    H235186   6.534   6.467   2.583 -0.8682  0.7612  1.2925
 4591TIP3   OH235187   2.080   2.437   6.207  0.1675 -0.0086 -0.4299
 4591TIP3    H135188   2.039   2.375   6.146 -0.2869  0.9694 -1.1557
 4591TIP3    H235189   2.162   2.462   6.164 -0.0622  0.5347 -0.5715
 4592TIP3   OH235190   5.883   4.285  14.609  0.2496 -0.3675 -0.4929
 4592TIP3    H135191   5.812   4.338  14.646 -0.8937 -0.4695 -2.3798
 4592TIP3    H235192   5.926   4.246  14.685 -0.0690  1.7213  0.8610
 4593TIP3   OH235193   1.452   4.199  16.282 -0.7063 -0.3371  0.3707
 4593TIP3    H135194   1.482   4.119  16.239 -0.9400  0.3426 -1.1308
 4593TIP3    H235195   1.473   4.269  16.220  0.8077  0.9692  2.2393
 4594TIP3   OH235196   5.797   3.059  11.577  0.0453  0.1629  0.8038
 4594TIP3    H135197   5.839   3.124  11.634 -0.4953 -0.4405  1.9070
 4594TIP3    H235198   5.751   3.001  11.636 -0.9348 -0.2056 -0.2886
 4595TIP3   OH235199   0.353   3.608   2.100 -0.3668 -0.0405 -0.0611
 4595TIP3    H135200   0.415   3.628   2.030  0.1000  0.0179  0.3667
 4595TIP3    H235201   0.326   3.693   2.133  0.0455 -0.0780  0.3809
 4596TIP3   OH235202   5.237   3.344   2.214  0.1468 -0.3702 -0.0135
 4596TIP3    H135203   5.330   3.366   2.222  0.6393 -1.4612 -2.1399
 4596TIP3    H235204   5.192   3.420   2.250  1.8288 -0.1561  1.8627
 4597TIP3   OH235205   3.237   3.800  11.423  0.0867  0.2383  0.7007
 4597TIP3    H135206   3.223   3.709  11.449  0.5716 -0.6562 -1.8789
 4597TIP3    H235207   3.150   3.838  11.421 -0.5696 -1.1934 -1.4531
 4598TIP3   OH235208   6.588   1.256   0.001  0.2547  0.1287  0.4831
 4598TIP3    H135209   6.496   1.229  -0.004 -0.4777  2.4484  0.0993
 4598TIP3    H235210   6.602   1.279   0.093 -0.0163  1.1721  0.2759
 4599TIP3   OH235211   2.748   3.787   0.196  0.3449 -0.0436  0.1253
 4599TIP3    H135212   2.775   3.770   0.106 -1.7886  1.2728 -0.8472
 4599TIP3    H235213   2.659   3.753   0.201  0.3938 -0.0212  1.7268
 4600TIP3   OH235214   6.342   3.601   1.045 -0.3224  0.1329 -0.7053
 4600TIP3    H135215   6.351   3.653   1.125  0.3754 -0.7186 -0.2111
 4600TIP3    H235216   6.431   3.569   1.027 -0.8419 -1.4666 -0.5788
 4601TIP3   OH235217   1.937   4.441  14.909  0.1482  0.0777 -0.1721
 4601TIP3    H135218   1.890   4.371  14.864 -0.2390  0.6909 -0.7333
 4601TIP3    H235219   1.878   4.516  14.904 -0.4305 -0.1222  2.3747
 4602TIP3   OH235220   3.030   3.876   4.734 -0.0868  0.2284 -0.0843
 4602TIP3    H135221   3.035   3.852   4.827 -0.3446 -1.1441 -0.3951
 4602TIP3    H235222   3.037   3.971   4.733 -1.1227  0.3560  1.4317
 4603TIP3   OH235223   5.252   2.131  11.068  0.1175  0.1471 -0.1237
 4603TIP3    H135224   5.183   2.072  11.098  0.9081 -0.0911  1.3156
 4603TIP3    H235225   5.226   2.156  10.980 -2.0940  0.5060  0.5780
 4604TIP3   OH235226   4.965   4.289  15.717 -0.0418  0.2079 -0.6291
 4604TIP3    H135227   4.881   4.245  15.727  0.4384 -0.9896 -1.6225
 4604TIP3    H235228   4.945   4.382  15.727 -1.4887 -0.0477 -0.9499
 4605TIP3   OH235229   1.238   1.307   4.186  0.3185  0.3102  0.1394
 4605TIP3    H135230   1.310   1.341   4.239  0.6040  0.6543 -0.4541
 4605TIP3    H235231   1.226   1.217   4.216 -0.3555  0.8831  1.6379
 4606TIP3   OH235232   4.759   6.307  11.599  0.1679 -0.7043  0.3183
 4606TIP3    H135233   4.667   6.284  11.609 -0.1135 -0.1277 -0.8140
 4606TIP3    H235234   4.773   6.375  11.666 -0.3658 -0.4186  0.1461
 4607TIP3   OH235235   3.222   3.433  11.025 -0.4634  0.3953  0.1038
 4607TIP3    H135236   3.275   3.405  11.100  0.0321 -0.7085 -0.6317
 4607TIP3    H235237   3.140   3.384  11.034 -0.9218  1.2290  0.6054
 4608TIP3   OH235238   4.534   5.637   3.572  0.1561  0.5781 -0.3209
 4608TIP3    H135239   4.602   5.604   3.630 -0.6466  1.4706  1.1873
 4608TIP3    H235240   4.513   5.563   3.515 -0.2270 -0.9057  1.6531
 4609TIP3   OH235241   5.119   0.146   6.175  0.3067 -0.1904  0.0119
 4609TIP3    H135242   5.074   0.111   6.252 -0.1427  0.2171 -0.0589
 4609TIP3    H235243   5.062   0.122   6.101  0.3554  0.0621 -0.1100
 4610TIP3   OH235244   6.646   0.623   1.761  0.0438 -0.0091 -0.2780
 4610TIP3    H135245   6.568   0.672   1.788 -1.3019 -1.1063 -1.9942
 4610TIP3    H235246   6.696   0.685   1.708 -0.1515  0.4031  0.0149
 4611TIP3   OH235247   5.491   5.424  14.032 -0.1567  0.4478 -0.3627
 4611TIP3    H135248   5.538   5.397  14.111  0.2844  1.9853 -0.0556
 4611TIP3    H235249   5.556   5.419  13.962  0.6020  2.7787  0.0998
 4612TIP3   OH235250   4.716   3.374   2.833 -0.0139  0.3479 -0.0605
 4612TIP3    H135251   4.685   3.464   2.829  0.4402  0.4908 -0.6292
 4612TIP3    H235252   4.643   3.322   2.800  0.0901  0.6168 -0.7441
 4613TIP3   OH235253   3.864   4.275   0.536  0.2821 -0.1400  0.1216
 4613TIP3    H135254   3.819   4.314   0.612 -0.5768 -0.2627 -0.3130
 4613TIP3    H235255   3.793   4.248   0.478  0.9166 -0.7739 -0.3696
 4614TIP3   OH235256   5.219   4.599   1.775  0.2014 -1.0594  0.2845
 4614TIP3    H135257   5.245   4.681   1.732  0.2873 -0.2744  1.7992
 4614TIP3    H235258   5.134   4.617   1.814  0.0326 -1.8237  0.2921
 4615TIP3   OH235259   5.141   6.161  12.312  0.4923 -0.3602  0.4728
 4615TIP3    H135260   5.216   6.120  12.354  1.2163  0.2871 -0.1712
 4615TIP3    H235261   5.121   6.237  12.368 -2.5756 -2.9116  3.2793
 4616TIP3   OH235262   0.633   5.661  14.823  0.1101  0.0288 -0.0385
 4616TIP3    H135263   0.671   5.696  14.743  0.4816  1.5401  0.7519
 4616TIP3    H235264   0.551   5.709  14.834  0.6999  0.8210  1.1447
 4617TIP3   OH235265   5.175   2.304  11.301 -0.7859  0.1263 -0.1730
 4617TIP3    H135266   5.181   2.221  11.255  1.8160 -0.0065  0.2929
 4617TIP3    H235267   5.149   2.281  11.390  0.9240 -0.3246  0.2303
 4618TIP3   OH235268   6.679   4.255  14.191 -0.1628  0.0091 -0.0208
 4618TIP3    H135269   6.694   4.323  14.256 -0.2308  0.0982 -0.0983
 4618TIP3    H235270   6.723   4.177  14.227 -0.2743  0.0348  0.1707
 4619TIP3   OH235271   2.625   1.697   5.568 -0.2375  0.3241 -0.0330
 4619TIP3    H135272   2.543   1.683   5.617 -0.1028 -1.3657 -0.2171
 4619TIP3    H235273   2.670   1.767   5.615 -0.9081 -0.0630  1.2285
 4620TIP3   OH235274   2.762   4.486  15.976 -1.3018 -0.0206 -0.4863
 4620TIP3    H135275   2.850   4.476  15.940 -0.8702 -0.9816  0.7830
 4620TIP3    H235276   2.750   4.581  15.986 -1.6322  0.3557 -3.5040
 4621TIP3   OH235277   0.722   1.706   5.168  0.1712 -0.3405 -0.3935
 4621TIP3    H135278   0.813   1.713   5.197 -0.0494 -1.5790  0.6568
 4621TIP3    H235279   0.670   1.724   5.246 -0.6869  4.2091 -1.7086
 4622TIP3   OH235280   0.692   0.932  12.953  0.3679 -0.0705  0.0294
 4622TIP3    H135281   0.597   0.935  12.942  0.3190  0.4771  0.4994
 4622TIP3    H235282   0.708   0.858  13.012  0.2153 -0.0437  0.1026
 4623TIP3   OH235283   6.293   3.052  14.232 -0.0786 -0.0200  0.2854
 4623TIP3    H135284   6.349   3.105  14.175 -0.5973  1.4040  1.0540
 4623TIP3    H235285   6.208   3.051  14.187  0.0322 -0.5527  0.0773
 4624TIP3   OH235286   1.091   0.067   2.269 -0.1304 -0.3445  0.4294
 4624TIP3    H135287   1.176   0.105   2.288 -0.4179  0.9410 -0.7246
 4624TIP3    H235288   1.110  -0.009   2.215  0.3496 -0.8872  1.3386
 4625TIP3   OH235289   1.398   3.506   3.484  0.5847 -0.2764 -0.5390
 4625TIP3    H135290   1.391   3.435   3.548  1.6301 -0.2087 -0.3269
 4625TIP3    H235291   1.482   3.547   3.504 -0.3219  1.5029 -0.1713
 4626TIP3   OH235292   3.578   3.567  10.799 -0.2355  0.2072  0.1294
 4626TIP3    H135293   3.596   3.478  10.767 -1.2701 -0.6254  1.7218
 4626TIP3    H235294   3.644   3.621  10.757  2.7136 -1.8616  1.7053
 4627TIP3   OH235295   3.497   5.276  15.604 -0.5283  0.1227  0.3773
 4627TIP3    H135296   3.426   5.219  15.633 -0.9608  0.2312 -0.4240
 4627TIP3    H235297   3.459   5.326  15.532 -1.2027  3.7615  2.9892
 4628TIP3   OH235298   0.324   1.653  12.376 -0.4093  0.1822  0.1303
 4628TIP3    H135299   0.355   1.563  12.389 -0.0268  0.2739 -0.1251
 4628TIP3    H235300   0.391   1.708  12.416 -0.2217  0.3814 -0.4411
 4629TIP3   OH235301   5.230   5.760  13.320  0.2236 -0.8659  0.0248
 4629TIP3    H135302   5.301   5.786  13.261 -0.2705  1.1145  0.2214
 4629TIP3    H235303   5.186   5.842  13.341 -0.8941 -1.7991  1.5051
 4630TIP3   OH235304   4.569   1.149  11.590 -0.2303 -0.0216  0.1829
 4630TIP3    H135305   4.602   1.063  11.565  0.2575  0.1233  0.3057
 4630TIP3    H235306   4.539   1.138  11.680  0.7184  0.1571  0.5379
 4631TIP3   OH235307   2.088   4.356  11.826 -0.3435 -0.7474  0.8449
 4631TIP3    H135308   2.125   4.342  11.914  1.2404  2.4091  0.8197
 4631TIP3    H235309   2.057   4.447  11.828 -0.0635 -0.5317 -1.9367
 4632TIP3   OH235310   1.243   2.837   3.349 -0.4562  0.1632 -0.0679
 4632TIP3    H135311   1.282   2.886   3.422  0.8147  0.3704 -0.8749
 4632TIP3    H235312   1.152   2.822   3.378 -0.3154  1.2401  1.0611
 4633TIP3   OH235313   1.835   1.686  13.473  0.8053 -0.0755 -0.0654
 4633TIP3    H135314   1.843   1.749  13.401  0.2343  1.0022  0.7960
 4633TIP3    H235315   1.764   1.628  13.445  1.2900 -0.3220 -0.8343
 4634TIP3   OH235316   3.857   5.420   2.140 -0.2000 -0.3467 -0.5329
 4634TIP3    H135317   3.927   5.407   2.204 -1.1304 -2.4035  0.1522
 4634TIP3    H235318   3.900   5.466   2.068  1.7107 -1.0002  0.1032
 4635TIP3   OH235319   1.590   4.803   0.788  0.1728  0.0727 -0.7343
 4635TIP3    H135320   1.653   4.769   0.724 -0.7457 -3.2781 -0.0515
 4635TIP3    H235321   1.603   4.747   0.865 -3.1688 -0.3592 -0.3693
 4636TIP3   OH235322   4.668   2.562   6.221  0.4872  0.1621  0.2759
 4636TIP3    H135323   4.699   2.490   6.276 -1.7342 -0.8327  0.3405
 4636TIP3    H235324   4.678   2.640   6.275  2.6315 -0.0823  0.3214
 4637TIP3   OH235325   2.221   0.134   2.804  0.1496  0.3373  0.4984
 4637TIP3    H135326   2.272   0.056   2.828 -1.9762 -1.3776 -0.2992
 4637TIP3    H235327   2.163   0.104   2.734 -0.8930  2.6125  0.3211
 4638TIP3   OH235328   5.807   3.742  16.384 -0.5294  0.0995 -0.1721
 4638TIP3    H135329   5.864   3.666  16.397 -0.3317  0.0229 -1.3140
 4638TIP3    H235330   5.729   3.724  16.436 -1.0050 -1.4804 -1.3419
 4639TIP3   OH235331   4.643   0.009   5.074  0.0259  0.2300  0.5255
 4639TIP3    H135332   4.664  -0.068   5.127 -1.8818 -1.0010 -0.3856
 4639TIP3    H235333   4.657   0.084   5.133  0.7178 -0.8930  1.8313
 4640TIP3   OH235334   6.451   3.979   3.535  0.0854 -0.3116 -0.5784
 4640TIP3    H135335   6.513   3.928   3.482  1.2632  0.1319  0.3390
 4640TIP3    H235336   6.382   4.004   3.473  1.3846  0.1522 -1.8997
 4641TIP3   OH235337   1.933   5.525  11.417 -0.0552  0.0743  0.1990
 4641TIP3    H135338   1.843   5.502  11.393 -0.0372  0.8230 -0.6583
 4641TIP3    H235339   1.983   5.515  11.335  0.8938 -1.4743  0.9181
 4642TIP3   OH235340   6.373   0.307  13.316  0.1316  0.6946 -0.0882
 4642TIP3    H135341   6.430   0.269  13.249  0.6053 -1.2050  1.3281
 4642TIP3    H235342   6.330   0.232  13.357 -2.0451  1.9595  0.1099
 4643TIP3   OH235343   2.067   6.568  12.298  0.2531 -0.1997  0.2055
 4643TIP3    H135344   2.112   6.488  12.270  0.6454 -0.2718  1.0326
 4643TIP3    H235345   2.089   6.632  12.230 -0.5031 -0.9237 -0.7502
 4644TIP3   OH235346   4.082   3.105   5.747  0.6473 -0.0873 -0.0823
 4644TIP3    H135347   4.030   3.025   5.739  1.1303 -0.3220 -1.0553
 4644TIP3    H235348   4.058   3.156   5.670  0.7847  0.4449  0.2274
 4645TIP3   OH235349   0.594   1.459   0.724  0.1372 -0.0137 -0.6877
 4645TIP3    H135350   0.521   1.517   0.704  1.5251  1.8730 -0.5688
 4645TIP3    H235351   0.647   1.459   0.644  0.7891 -0.1393 -0.2652
 4646TIP3   OH235352   3.379   3.449   4.774 -0.9963 -0.0165 -0.5848
 4646TIP3    H135353   3.360   3.480   4.862  0.1718 -0.2739 -0.2184
 4646TIP3    H235354   3.430   3.520   4.734  2.4310 -1.6266  0.5424
 4647TIP3   OH235355   5.699   6.370   2.430 -0.5644 -0.6058  0.2021
 4647TIP3    H135356   5.684   6.442   2.490  0.3020  0.0198 -0.3085
 4647TIP3    H235357   5.754   6.309   2.479  0.9970  0.3726 -0.2419
 4648TIP3   OH235358   0.049   4.529   0.001  0.2701  0.1498 -0.4179
 4648TIP3    H135359  -0.008   4.601   0.028  0.6882  1.0621 -1.8312
 4648TIP3    H235360   0.107   4.515   0.076 -0.7951  0.2608  0.4367
 4649TIP3   OH235361   2.191   4.248  13.900  0.0535  0.9300 -0.1479
 4649TIP3    H135362   2.097   4.255  13.916 -0.6428 -2.3988 -1.8725
 4649TIP3    H235363   2.220   4.175  13.954  1.4716  1.2876 -0.3684
 4650TIP3   OH235364   1.484   6.774  13.066  0.0562  0.0403  0.5401
 4650TIP3    H135365   1.448   6.724  13.139  2.2240 -0.5310  1.2836
 4650TIP3    H235366   1.464   6.865  13.088 -2.3930 -0.3084  0.0322
 4651TIP3   OH235367   6.353   6.609  14.241 -0.2541 -0.6812 -0.3393
 4651TIP3    H135368   6.342   6.611  14.336 -1.1147 -1.4057 -0.4121
 4651TIP3    H235369   6.413   6.537  14.225 -0.3119 -0.7252 -0.3604
 4652TIP3   OH235370   2.419   1.737   5.755  0.3329  0.4545  0.0217
 4652TIP3    H135371   2.372   1.821   5.760 -0.8293 -0.1406 -0.5194
 4652TIP3    H235372   2.352   1.674   5.730  1.4298 -0.4431 -0.7502
 4653TIP3   OH235373   3.737   1.303  14.446  0.2606 -0.0364  0.5827
 4653TIP3    H135374   3.781   1.374  14.399  1.4441 -1.6175 -0.8813
 4653TIP3    H235375   3.671   1.271  14.385  1.4218 -1.7461  0.1326
 4654TIP3   OH235376   2.890   5.229   3.416 -0.1229  0.5477 -0.1459
 4654TIP3    H135377   2.862   5.195   3.331 -0.1178 -0.9676  0.4202
 4654TIP3    H235378   2.880   5.155   3.476 -0.4868  1.6894  1.2614
 4655TIP3   OH235379   6.154   5.333   0.783 -0.9884 -0.4214 -0.0110
 4655TIP3    H135380   6.187   5.282   0.857  0.1030 -1.7839 -1.3744
 4655TIP3    H235381   6.144   5.269   0.712  2.1429  1.4219 -2.3745
 4656TIP3   OH235382   4.241   0.110   4.092 -0.1383 -0.5528  0.5500
 4656TIP3    H135383   4.289   0.121   4.010 -0.5678 -1.5118  0.1622
 4656TIP3    H235384   4.158   0.156   4.078 -0.1111 -0.5075  0.5379
 4657TIP3   OH235385   1.054   2.943   0.747 -0.0599  0.1899  0.8499
 4657TIP3    H135386   1.108   3.022   0.743  0.7578 -0.3437  1.1305
 4657TIP3    H235387   1.064   2.903   0.661 -2.3064  1.5425 -0.1261
 4658TIP3   OH235388   1.913   0.818  16.482  0.3506  0.5526  0.2180
 4658TIP3    H135389   1.894   0.889  16.543 -1.0534  1.0707 -0.7699
 4658TIP3    H235390   1.996   0.781  16.513 -0.5290  0.4646  2.7247
 4659TIP3   OH235391   3.341   1.708  14.688  0.1316  0.0114 -0.0950
 4659TIP3    H135392   3.430   1.720  14.653  0.6262  0.2869  1.2117
 4659TIP3    H235393   3.329   1.781  14.749 -0.7603 -0.3796  0.2128
 4660TIP3   OH235394   4.970   6.483  12.010  0.1013  0.2604  0.4365
 4660TIP3    H135395   4.991   6.459  12.101  0.5269 -0.3075  0.2003
 4660TIP3    H235396   5.032   6.432  11.958  0.9494  1.8070 -0.1179
 4661TIP3   OH235397   3.044   4.103   3.701  0.2788  0.1918 -0.5297
 4661TIP3    H135398   3.044   4.116   3.796  1.5462  0.6644 -0.5644
 4661TIP3    H235399   3.137   4.092   3.679 -0.1879 -2.6173 -1.3921
 4662TIP3   OH235400   6.491   1.134  15.731 -0.8267  0.1570 -0.1257
 4662TIP3    H135401   6.576   1.166  15.700 -1.1175 -0.4523 -1.6766
 4662TIP3    H235402   6.511   1.068  15.796 -0.0707 -0.4598 -0.9591
 4663TIP3   OH235403   4.706   3.472  13.170 -0.3456  0.7076 -0.1731
 4663TIP3    H135404   4.749   3.487  13.085  0.0844 -0.7508 -0.2353
 4663TIP3    H235405   4.679   3.560  13.198  0.4587  1.3553 -1.3055
 4664TIP3   OH235406   0.282   2.171  12.571  0.4824  0.3725 -0.3568
 4664TIP3    H135407   0.217   2.220  12.623 -0.2001  0.5580 -1.3569
 4664TIP3    H235408   0.252   2.080  12.576  1.4532  0.1027  1.0638
 4665TIP3   OH235409   3.385   4.861   4.359  0.0369  0.4905  0.1352
 4665TIP3    H135410   3.456   4.921   4.334 -0.2002  1.3536  1.4427
 4665TIP3    H235411   3.417   4.819   4.439  0.6868 -2.0508 -1.3430
 4666TIP3   OH235412   2.563   4.602  17.079 -0.0315 -0.0908  0.1363
 4666TIP3    H135413   2.480   4.627  17.039 -0.1401  1.0306  0.9873
 4666TIP3    H235414   2.559   4.506  17.085 -0.3181 -0.2328 -1.7785
 4667TIP3   OH235415   1.799   6.554  15.670 -0.7894 -0.2270 -0.5097
 4667TIP3    H135416   1.798   6.465  15.635  0.2270 -0.4898  0.1037
 4667TIP3    H235417   1.775   6.543  15.763  1.6120 -0.1824  0.1838
 4668TIP3   OH235418   6.160   6.132  11.940  0.0406 -0.1506  0.0445
 4668TIP3    H135419   6.251   6.114  11.918 -0.4155 -0.3058 -1.9356
 4668TIP3    H235420   6.122   6.046  11.958 -0.2774 -0.4126 -1.6681
 4669TIP3   OH235421   6.580   6.141  11.488  0.3360  0.7152 -0.5928
 4669TIP3    H135422   6.507   6.146  11.426  0.3214  0.1956 -0.6231
 4669TIP3    H235423   6.603   6.048  11.490 -0.3676  0.5558  1.0119
 4670TIP3   OH235424   2.638   0.003   3.391 -0.0345 -0.0891  0.2947
 4670TIP3    H135425   2.659  -0.090   3.396  2.4286  0.4853  3.5539
 4670TIP3    H235426   2.722   0.047   3.379 -0.9159  1.7942  0.6238
 4671TIP3   OH235427   6.516   2.436   4.324 -0.0634 -0.1152 -0.2032
 4671TIP3    H135428   6.516   2.418   4.230 -1.4348  1.6885 -0.6183
 4671TIP3    H235429   6.592   2.493   4.337 -1.3870  1.9046 -0.8045
 4672TIP3   OH235430   2.734   6.752  16.210  0.2998 -0.4418 -0.3187
 4672TIP3    H135431   2.646   6.771  16.242 -0.0331  0.0337 -1.4701
 4672TIP3    H235432   2.781   6.835  16.219  0.5874 -0.6443  0.1087
 4673TIP3   OH235433   1.622   2.744   5.255  0.4046  0.7686 -0.5731
 4673TIP3    H135434   1.701   2.769   5.303  0.0061  0.2081  0.3951
 4673TIP3    H235435   1.558   2.811   5.276  0.0392  0.1865  0.1864
 4674TIP3   OH235436   5.847   2.930  10.705  0.2657  0.5915  0.4652
 4674TIP3    H135437   5.840   2.838  10.732  1.9348  0.0546 -0.7318
 4674TIP3    H235438   5.941   2.946  10.699  0.0319  2.6327  1.3464
 4675TIP3   OH235439   1.210   4.526  16.278 -0.3324 -0.2939 -0.0986
 4675TIP3    H135440   1.237   4.615  16.299 -0.6781 -0.3210  0.4828
 4675TIP3    H235441   1.284   4.471  16.306 -1.0869 -0.4028  1.8390
 4676TIP3   OH235442   3.851   1.371  11.690  0.3149  0.0783  0.4875
 4676TIP3    H135443   3.846   1.452  11.640  0.1584 -0.6638 -0.7424
 4676TIP3    H235444   3.844   1.398  11.782 -2.2177  1.2665  0.0178
 4677TIP3   OH235445   6.693   3.379   1.928 -1.3638  0.0521 -0.0740
 4677TIP3    H135446   6.720   3.290   1.906 -2.8663 -0.7762  1.2712
 4677TIP3    H235447   6.768   3.415   1.977 -1.7532 -1.4311  1.6994
 4678TIP3   OH235448   0.539   6.360   2.069 -0.1082  0.4407 -0.2386
 4678TIP3    H135449   0.552   6.455   2.072 -0.7083  0.8850 -4.6592
 4678TIP3    H235450   0.445   6.348   2.084 -1.0275  1.2542 -4.1480
 4679TIP3   OH235451   4.989   0.880  16.787 -0.0312 -0.1788 -0.3798
 4679TIP3    H135452   5.016   0.931  16.711  2.2474  0.8234  0.9997
 4679TIP3    H235453   5.021   0.791  16.768  1.0170  0.1884 -0.3463
 4680TIP3   OH235454   3.581   4.753   3.509  0.3402 -0.9279 -0.3355
 4680TIP3    H135455   3.507   4.724   3.564  0.2220 -1.4483 -0.7577
 4680TIP3    H235456   3.582   4.691   3.437 -0.1923  0.3837 -1.5224
 4681TIP3   OH235457   4.372   0.858  13.936  0.5011 -0.0223  0.6417
 4681TIP3    H135458   4.373   0.896  14.024  0.4773  0.1727  0.5561
 4681TIP3    H235459   4.315   0.915  13.886  0.4283 -0.1966  0.5254
 4682TIP3   OH235460   5.153   1.136   3.338  0.4805 -0.2538 -0.0196
 4682TIP3    H135461   5.095   1.206   3.367  1.5075  0.0915  1.2763
 4682TIP3    H235462   5.118   1.057   3.381  1.9373  0.2377  2.2511
 4683TIP3   OH235463   0.138   0.007  15.285  0.7313 -0.5316  0.1701
 4683TIP3    H135464   0.090  -0.073  15.309  0.4266 -0.5873 -0.5832
 4683TIP3    H235465   0.078   0.054  15.227 -0.2535  1.6202  2.7141
 4684TIP3   OH235466   5.633   0.185  11.831  0.7064 -0.0217 -0.0049
 4684TIP3    H135467   5.725   0.181  11.805  1.3612 -0.1843  2.1384
 4684TIP3    H235468   5.622   0.111  11.891 -0.9090 -0.1570 -0.4301
 4685TIP3   OH235469   4.007   3.061   6.217  0.2713  0.4403 -0.3846
 4685TIP3    H135470   4.016   3.015   6.134 -1.5446  0.7367 -0.7929
 4685TIP3    H235471   3.952   3.004   6.270  0.8911  0.5491  0.3790
 4686TIP3   OH235472   4.499   6.052   2.183 -0.4196  0.0868 -0.2693
 4686TIP3    H135473   4.450   6.123   2.142  0.0638  0.6522  0.1249
 4686TIP3    H235474   4.557   6.095   2.245  1.1369 -0.5205 -1.2619
 4687TIP3   OH235475   1.616   4.166   1.170  1.1542 -0.6429 -0.2561
 4687TIP3    H135476   1.560   4.170   1.094  1.0861  0.2061 -0.1627
 4687TIP3    H235477   1.556   4.158   1.244  1.1942 -0.7613 -0.2360
 4688TIP3   OH235478   0.119   2.297   4.877  0.2411  0.5663 -0.4594
 4688TIP3    H135479   0.131   2.382   4.920 -1.8771  0.0579  1.2990
 4688TIP3    H235480   0.028   2.298   4.847 -0.2019 -1.4845  0.6361
 4689TIP3   OH235481   4.182   0.152  13.379 -0.4233 -0.1583  0.5313
 4689TIP3    H135482   4.140   0.091  13.440  1.0958  0.3365  2.1249
 4689TIP3    H235483   4.208   0.226  13.433  0.9724  0.3040 -0.7093
 4690TIP3   OH235484   0.783   1.408   6.434  0.2750  0.0198  0.6425
 4690TIP3    H135485   0.860   1.411   6.378  0.7539  0.0477  1.2948
 4690TIP3    H235486   0.714   1.370   6.379  1.2172 -1.7421  0.6004
 4691TIP3   OH235487   0.966   2.483  17.015  0.3492 -0.2475 -0.2598
 4691TIP3    H135488   0.917   2.553  16.971  0.4847  0.7312  1.0663
 4691TIP3    H235489   0.911   2.406  17.006 -0.8907  0.5551  0.1633
 4692TIP3   OH235490   3.888   1.760   5.348  0.5855  0.0135 -0.5483
 4692TIP3    H135491   3.940   1.723   5.419 -0.1666 -0.9173 -0.4559
 4692TIP3    H235492   3.860   1.684   5.297  2.2374  0.7354 -2.6714
 4693TIP3   OH235493   3.701   0.259  16.343  0.4356  0.0944 -0.0682
 4693TIP3    H135494   3.671   0.211  16.420  1.0781 -0.3042 -0.0639
 4693TIP3    H235495   3.686   0.199  16.270 -0.1467  0.4605 -0.2549
 4694TIP3   OH235496   2.186   3.633   5.914  0.0130  0.1819 -1.0364
 4694TIP3    H135497   2.223   3.547   5.937 -0.4802  0.0630 -0.6820
 4694TIP3    H235498   2.102   3.636   5.960 -0.5552  0.3334 -2.0621
 4695TIP3   OH235499   6.181   1.494   4.328 -0.3171 -0.0285 -0.6079
 4695TIP3    H135500   6.146   1.405   4.327 -0.2431 -0.0591 -0.5341
 4695TIP3    H235501   6.108   1.548   4.355  0.2671 -0.3573  1.8964
 4696TIP3   OH235502   5.560   1.781  16.838  0.5692  0.0131 -0.4934
 4696TIP3    H135503   5.562   1.793  16.933  0.1525 -1.9141 -0.2089
 4696TIP3    H235504   5.604   1.697  16.823 -0.6720 -0.4457 -1.8610
 4697TIP3   OH235505   0.145   3.279  14.794  0.1924  0.0888 -0.2505
 4697TIP3    H135506   0.226   3.296  14.747 -0.1447  1.3073 -0.4489
 4697TIP3    H235507   0.076   3.307  14.734 -0.2719  1.0806  0.6883
 4698TIP3   OH235508   5.914   0.224  13.147  0.6207  0.2975 -0.1170
 4698TIP3    H135509   5.868   0.192  13.069 -1.6802 -0.7552  1.5372
 4698TIP3    H235510   5.886   0.315  13.156  1.4101  0.6271 -0.8295
 4699TIP3   OH235511   1.386   1.655  12.602 -0.1122  0.4020 -0.4808
 4699TIP3    H135512   1.335   1.579  12.631  0.5544  0.9204  2.3765
 4699TIP3    H235513   1.473   1.620  12.586 -0.1681  0.3195 -0.6059
 4700TIP3   OH235514   0.118   3.064  16.665  0.1688  0.0400 -0.0031
 4700TIP3    H135515   0.096   3.108  16.583 -0.6440  1.0195  0.7264
 4700TIP3    H235516   0.034   3.034  16.700  0.3157  0.9970  1.2242
 4701TIP3   OH235517   5.302   3.976  15.318  0.2985  0.6903  0.0134
 4701TIP3    H135518   5.274   4.054  15.269  1.3003  0.2655 -1.3112
 4701TIP3    H235519   5.228   3.916  15.310  0.2090  0.8573 -0.4692
 4702TIP3   OH235520   4.593   0.115   1.924 -0.6373  0.0397  0.2792
 4702TIP3    H135521   4.688   0.110   1.923 -0.5289  1.5013 -1.5766
 4702TIP3    H235522   4.566   0.040   1.977  1.5342 -0.0046  1.4578
 4703TIP3   OH235523   2.588   3.676  17.065 -0.2027  0.5216 -0.2527
 4703TIP3    H135524   2.668   3.623  17.058 -0.1075  0.5684  0.3888
 4703TIP3    H235525   2.541   3.637  17.139  0.9383  2.7065  1.7638
 4704TIP3   OH235526   4.050   3.059  12.851 -0.5072 -0.1639 -0.7864
 4704TIP3    H135527   3.974   3.117  12.857 -1.2790 -1.0407 -1.5096
 4704TIP3    H235528   4.122   3.109  12.888 -1.5287  0.5382  0.3610
 4705TIP3   OH235529   5.178   0.036   0.050 -0.2314  0.0896  0.5892
 4705TIP3    H135530   5.238  -0.015  -0.003 -2.3079 -0.7614 -1.0724
 4705TIP3    H235531   5.192   0.126   0.022  2.6106  0.4615  2.7016
 4706TIP3   OH235532   2.619   3.701   3.417  0.1014 -0.0452  0.2326
 4706TIP3    H135533   2.549   3.720   3.478 -0.1458 -0.0110 -0.0583
 4706TIP3    H235534   2.588   3.735   3.333  0.6913  0.4443  0.2077
 4707TIP3   OH235535   3.518   4.479  15.796  0.2147  0.3836 -0.6231
 4707TIP3    H135536   3.537   4.386  15.805  0.1468  0.3775 -0.5379
 4707TIP3    H235537   3.546   4.501  15.707 -1.6103 -0.1607 -1.3776
 4708TIP3   OH235538   5.691   6.205   2.670 -0.1946 -0.3710  0.6614
 4708TIP3    H135539   5.598   6.209   2.650 -1.0190  2.3057  3.9656
 4708TIP3    H235540   5.725   6.136   2.614 -3.6580  0.1116 -2.4277
 4709TIP3   OH235541   5.941   4.784   5.392 -0.0728  0.4417 -0.0972
 4709TIP3    H135542   5.856   4.747   5.416  0.4924  0.0060  1.3439
 4709TIP3    H235543   6.004   4.714   5.411  0.6372  0.8119 -0.9972
 4710TIP3   OH235544   0.472   5.528   2.570 -0.5797 -0.2857  0.0826
 4710TIP3    H135545   0.532   5.517   2.496  0.8092  1.2782  0.9092
 4710TIP3    H235546   0.461   5.440   2.605  0.7371 -0.7158 -0.5089
 4711TIP3   OH235547   2.543   1.043  13.282  0.5909  0.2732 -0.5039
 4711TIP3    H135548   2.623   1.053  13.334 -0.1578  0.9489  0.5553
 4711TIP3    H235549   2.511   0.956  13.306  1.3448 -0.2802 -1.4422
 4712TIP3   OH235550   3.473   6.510   2.636  0.5696  0.1941  0.3535
 4712TIP3    H135551   3.554   6.558   2.654  0.2328  0.8083  0.2565
 4712TIP3    H235552   3.501   6.420   2.624  1.5226  0.6928 -1.6333
 4713TIP3   OH235553   5.121   5.798   5.577  0.3128  0.1524 -0.0839
 4713TIP3    H135554   5.154   5.710   5.563  1.3269  0.4348  0.3860
 4713TIP3    H235555   5.178   5.834   5.646 -0.7137  0.8260  0.4415
 4714TIP3   OH235556   1.733   1.184   3.065  0.0354 -0.1294  0.0981
 4714TIP3    H135557   1.647   1.145   3.047 -0.2652  0.0713  1.0347
 4714TIP3    H235558   1.731   1.267   3.019 -0.7564  0.4203  1.0775
 4715TIP3   OH235559   0.000   1.019   1.294 -0.1492 -0.1130 -0.5649
 4715TIP3    H135560   0.055   1.020   1.372 -1.1004  0.1159  0.1243
 4715TIP3    H235561   0.004   1.109   1.260 -1.1543  0.2665  0.2682
 4716TIP3   OH235562   3.651   0.160  16.582  0.9164 -0.0410 -0.0493
 4716TIP3    H135563   3.725   0.205  16.623 -0.3053  1.6219  0.4397
 4716TIP3    H235564   3.612   0.109  16.653  0.3887  0.7125  0.2084
 4717TIP3   OH235565   6.659   2.111   5.239  0.0757 -0.0608  0.2440
 4717TIP3    H135566   6.582   2.124   5.294  0.1279 -0.4870  0.4255
 4717TIP3    H235567   6.721   2.064   5.296 -0.5948 -2.2637 -0.7452
 4718TIP3   OH235568   2.423   0.908   4.405  0.4454  0.2983 -0.3339
 4718TIP3    H135569   2.427   0.898   4.500  1.0720  0.6178 -0.3191
 4718TIP3    H235570   2.368   0.836   4.375 -0.7009  0.8435  0.3742
 4719TIP3   OH235571   0.461   0.591   2.532 -0.0698 -0.6452 -0.3103
 4719TIP3    H135572   0.369   0.607   2.510  0.0878 -1.4776 -1.7092
 4719TIP3    H235573   0.509   0.660   2.485  0.0801 -0.6836 -0.2146
 4720TIP3   OH235574   0.523   5.242   3.855 -0.2359 -0.0181 -0.5077
 4720TIP3    H135575   0.592   5.266   3.792 -0.9221  1.0529 -0.8867
 4720TIP3    H235576   0.543   5.294   3.933  0.7158 -1.4755  0.2687
 4721TIP3   OH235577   5.722   5.907  14.257  0.1088 -0.5995 -0.2056
 4721TIP3    H135578   5.671   5.883  14.334  2.0647 -2.1578  0.7085
 4721TIP3    H235579   5.738   5.824  14.213  1.9431 -0.2024 -0.3605
 4722TIP3   OH235580   4.049   6.494  14.637  0.0836 -0.4721  0.3026
 4722TIP3    H135581   4.005   6.420  14.595 -2.0083  0.7549  0.2077
 4722TIP3    H235582   3.996   6.514  14.714  0.7017  0.8132  0.4245
 4723TIP3   OH235583   0.131   2.862   0.424  0.1444 -0.3818  0.3593
 4723TIP3    H135584   0.071   2.788   0.416 -0.5321 -0.0104  1.5733
 4723TIP3    H235585   0.202   2.830   0.480 -0.2857 -0.0615  1.1099
 4724TIP3   OH235586   6.243   2.575  12.757 -0.1647  0.4488 -0.0246
 4724TIP3    H135587   6.192   2.627  12.819 -2.1397 -1.1012 -0.2294
 4724TIP3    H235588   6.210   2.601  12.671 -1.9131 -1.7017 -0.0965
 4725TIP3   OH235589   0.914   5.392  15.529 -0.0412 -0.0075 -0.3934
 4725TIP3    H135590   0.953   5.478  15.515  1.1819 -0.5474 -0.3839
 4725TIP3    H235591   0.958   5.357  15.606 -1.9698  0.1552  0.8678
 4726TIP3   OH235592   6.599   6.691   4.897  0.1818  0.3239  0.0365
 4726TIP3    H135593   6.520   6.671   4.947  1.1794 -1.1620  1.1124
 4726TIP3    H235594   6.567   6.718   4.811 -1.4973 -2.8223 -0.4904
 4727TIP3   OH235595   2.715   4.754   3.157 -0.2891 -0.1842 -0.2960
 4727TIP3    H135596   2.807   4.779   3.149 -0.4276  0.5558  0.3243
 4727TIP3    H235597   2.710   4.666   3.118  0.5959 -0.0675 -0.6871
 4728TIP3   OH235598   5.176   4.176  11.944 -0.5194  0.1295 -0.1956
 4728TIP3    H135599   5.117   4.213  11.878  0.4908  0.4857 -0.9089
 4728TIP3    H235600   5.158   4.082  11.943 -1.1896  0.2551 -0.2806
 4729TIP3   OH235601   2.937   6.268  16.615  0.3581  0.1248 -0.4438
 4729TIP3    H135602   2.853   6.227  16.594 -0.4128  1.2290  0.3435
 4729TIP3    H235603   2.987   6.199  16.658 -0.4255 -0.3675 -0.2961
 4730TIP3   OH235604   1.328   5.794   1.707  0.0447  0.0242  0.6168
 4730TIP3    H135605   1.360   5.881   1.733 -0.5437  1.1502 -2.1527
 4730TIP3    H235606   1.234   5.804   1.697 -0.1717 -1.2168  1.1321
 4731TIP3   OH235607   5.096   1.263  13.612  0.3708 -0.0912 -0.1702
 4731TIP3    H135608   5.131   1.343  13.652  0.2754 -0.5659  0.9167
 4731TIP3    H235609   5.173   1.219  13.576  0.7801 -0.5514  1.1676
 4732TIP3   OH235610   3.833   0.076   0.102  0.2076  0.2550 -0.2043
 4732TIP3    H135611   3.872  -0.011   0.093 -2.9463 -1.1351 -1.9048
 4732TIP3    H235612   3.890   0.133   0.050  2.4723 -0.6214  1.1453
 4733TIP3   OH235613   0.775   0.165   1.073  0.4910  0.4282  0.6174
 4733TIP3    H135614   0.712   0.225   1.114 -0.0603 -1.1392  2.1759
 4733TIP3    H235615   0.720   0.105   1.022  0.9843  0.7514 -0.3288
 4734TIP3   OH235616   5.454   0.568  11.110 -0.0105  0.3009 -0.2351
 4734TIP3    H135617   5.539   0.582  11.153  0.7354 -1.6293 -0.9836
 4734TIP3    H235618   5.426   0.656  11.084  2.0093  0.9454 -0.4278
 4735TIP3   OH235619   2.126   4.700  17.206  0.0159 -0.2892  0.4578
 4735TIP3    H135620   2.090   4.744  17.129  1.3929  0.5473  0.2605
 4735TIP3    H235621   2.050   4.686  17.263 -0.8952 -0.2216 -0.6988
 4736TIP3   OH235622   5.198   1.219   1.065  0.0532 -0.5352 -0.0254
 4736TIP3    H135623   5.177   1.216   0.972  0.2186 -0.1893 -0.0720
 4736TIP3    H235624   5.181   1.130   1.096 -2.3445 -0.0673  0.1337
 4737TIP3   OH235625   4.876   2.613  12.278  0.3882 -0.1819 -0.5056
 4737TIP3    H135626   4.799   2.589  12.226 -0.7554 -0.7049  1.3375
 4737TIP3    H235627   4.862   2.706  12.298  0.7376 -0.0274 -0.9604
 4738TIP3   OH235628   5.086   2.214   5.604  0.5115 -0.6484 -0.3802
 4738TIP3    H135629   5.132   2.292   5.634  0.9346 -0.3359 -1.7769
 4738TIP3    H235630   5.028   2.191   5.677  1.5576  0.0030  0.7016
 4739TIP3   OH235631   2.966   2.669  15.701  0.2526 -0.4889  0.3093
 4739TIP3    H135632   2.936   2.702  15.616  0.7460  2.4994  1.1697
 4739TIP3    H235633   3.043   2.616  15.681  0.1922 -0.0704 -1.1393
 4740TIP3   OH235634   2.966   0.210  10.396  0.2117  0.1344 -0.5210
 4740TIP3    H135635   2.902   0.277  10.417 -0.1566 -0.6675  1.0100
 4740TIP3    H235636   2.918   0.127  10.402  1.1421 -0.4083 -0.3606
 4741TIP3   OH235637   6.665   3.169   3.618  0.3140 -0.2942 -0.2336
 4741TIP3    H135638   6.613   3.175   3.538 -0.6788  2.1252  0.4998
 4741TIP3    H235639   6.665   3.076   3.640 -1.1121 -0.7418 -1.9237
 4742TIP3   OH235640   5.826   2.091  16.459  0.2724 -0.2730 -0.3468
 4742TIP3    H135641   5.865   2.050  16.536 -0.5034 -0.5469 -0.0912
 4742TIP3    H235642   5.732   2.080  16.470  0.0761  0.9029 -0.6562
 4743TIP3   OH235643   5.931   2.003   1.452 -0.3235 -0.0273 -0.2583
 4743TIP3    H135644   5.961   2.094   1.443 -0.7051  0.3562  1.9523
 4743TIP3    H235645   5.838   2.011   1.474 -0.8993 -1.0597 -2.0864
 4744TIP3   OH235646   0.646   1.923  13.762  0.1703 -0.6727  0.0568
 4744TIP3    H135647   0.674   1.951  13.675  0.0824  0.4104  0.3578
 4744TIP3    H235648   0.606   2.001  13.800 -0.1319 -1.2401  0.9273
 4745TIP3   OH235649   0.360   3.710   5.046 -0.5637  0.6081  0.2314
 4745TIP3    H135650   0.448   3.720   5.081 -0.7260  1.5222  0.4120
 4745TIP3    H235651   0.362   3.756   4.962 -0.6325 -0.1349 -0.1822
 4746TIP3   OH235652   4.019   0.471   3.091  0.2125  0.2102 -0.1114
 4746TIP3    H135653   3.947   0.524   3.057  2.5555  3.1030 -0.9700
 4746TIP3    H235654   4.010   0.477   3.186 -0.4860  0.8667 -0.2108
 4747TIP3   OH235655   6.616   5.011  10.643 -0.2383  0.4572  0.1334
 4747TIP3    H135656   6.558   4.936  10.656 -0.4094  0.4078 -0.8818
 4747TIP3    H235657   6.691   4.993  10.701  0.4184 -1.2343 -1.1523
 4748TIP3   OH235658   6.357   1.450   4.668 -0.1319  0.1098  0.1715
 4748TIP3    H135659   6.429   1.388   4.674 -2.0073 -2.4036 -1.4197
 4748TIP3    H235660   6.310   1.442   4.751 -1.3863 -2.0895 -0.6692
 4749TIP3   OH235661   0.231   5.870   5.751  0.1882 -0.0575  0.2885
 4749TIP3    H135662   0.269   5.812   5.817  2.6926  0.6831 -0.4074
 4749TIP3    H235663   0.175   5.929   5.801  1.6020  0.1390  1.7222
 4750TIP3   OH235664   0.395   5.600  12.429  0.3963  0.1067  0.5253
 4750TIP3    H135665   0.452   5.674  12.451  0.2674  0.7887 -1.2714
 4750TIP3    H235666   0.429   5.528  12.481  0.5457  1.4055  2.3087
 4751TIP3   OH235667   0.148   5.981  16.936  1.1959 -1.0031  0.2394
 4751TIP3    H135668   0.237   6.011  16.924  0.1054  2.3460 -0.4601
 4751TIP3    H235669   0.125   5.939  16.853  1.7248 -0.7876 -0.0165
 4752TIP3   OH235670   5.836   4.952  13.145 -0.4550 -0.5483  0.0659
 4752TIP3    H135671   5.751   4.909  13.155 -0.7143 -0.4570 -1.4397
 4752TIP3    H235672   5.892   4.910  13.209 -1.4298 -1.1752  0.5359
 4753TIP3   OH235673   3.269   4.608  15.789 -0.0086  0.6063 -0.0664
 4753TIP3    H135674   3.263   4.630  15.697  2.8586 -2.7391 -1.2769
 4753TIP3    H235675   3.362   4.595  15.805 -0.3400  1.4882  3.4821
 4754TIP3   OH235676   0.550   5.903   2.972  0.0253 -0.1944 -0.0514
 4754TIP3    H135677   0.564   5.831   2.910  1.1914 -0.4063  0.4351
 4754TIP3    H235678   0.536   5.860   3.056  2.2128  0.1270  0.5355
 4755TIP3   OH235679   2.046   1.429   2.982 -0.7134  0.2118  0.5268
 4755TIP3    H135680   2.106   1.473   2.922 -0.8648  0.2660  0.4131
 4755TIP3    H235681   2.054   1.336   2.959  0.9912 -0.0623  2.0018
 4756TIP3   OH235682   6.067   5.813  16.436 -0.2169 -0.4076  0.0994
 4756TIP3    H135683   5.991   5.764  16.403 -0.6885 -0.3462  1.0622
 4756TIP3    H235684   6.062   5.897  16.390  0.6387 -1.2339 -1.6193
 4757TIP3   OH235685   5.314   0.446   4.047 -0.0489  0.7443 -0.3229
 4757TIP3    H135686   5.317   0.541   4.037 -2.1899  0.8244 -0.7959
 4757TIP3    H235687   5.237   0.419   3.996  0.4527 -1.2410 -0.1291
 4758TIP3   OH235688   5.896   4.611   1.546  0.2673 -0.2763  0.1169
 4758TIP3    H135689   5.890   4.623   1.641  0.0821 -0.7371  0.1688
 4758TIP3    H235690   5.983   4.572   1.533  0.9551  1.2569 -0.0713
 4759TIP3   OH235691   5.774   0.252  12.889 -0.5491  0.0734  0.6911
 4759TIP3    H135692   5.782   0.247  12.793 -0.7992  0.1759  0.6653
 4759TIP3    H235693   5.807   0.339  12.910  1.4806 -0.6918  0.9028
 4760TIP3   OH235694   3.264   0.810   4.256  0.4115 -0.0843 -0.1834
 4760TIP3    H135695   3.225   0.882   4.207  0.5597 -1.8481 -3.1088
 4760TIP3    H235696   3.343   0.787   4.207  0.6016 -1.9830  0.8895
 4761TIP3   OH235697   6.298   1.323  11.650  0.1263  0.4458  0.1244
 4761TIP3    H135698   6.256   1.392  11.598 -0.8266 -1.1620 -1.3467
 4761TIP3    H235699   6.236   1.250  11.646  1.1273 -0.5326  1.6032
 4762TIP3   OH235700   2.372   2.603  14.050 -0.4364  0.1655 -0.3111
 4762TIP3    H135701   2.307   2.662  14.089  0.1067  1.6839 -1.6162
 4762TIP3    H235702   2.371   2.625  13.957  0.3794 -1.3388 -0.7021
 4763TIP3   OH235703   5.842   5.869  13.604  0.1570 -0.0853  0.2335
 4763TIP3    H135704   5.884   5.842  13.685 -0.9668 -2.6012  0.0611
 4763TIP3    H235705   5.748   5.869  13.623 -0.0548  0.7024 -0.6839
 4764TIP3   OH235706   5.914   1.558  15.342 -0.0879 -0.0596  0.1280
 4764TIP3    H135707   6.009   1.569  15.342 -0.2107  1.6010  1.7391
 4764TIP3    H235708   5.888   1.578  15.432 -2.1488  1.4893 -0.7260
 4765TIP3   OH235709   3.108   5.407   2.590  0.0215 -0.2291  0.1251
 4765TIP3    H135710   3.156   5.328   2.565 -2.5864 -1.4919 -1.2180
 4765TIP3    H235711   3.123   5.468   2.517  1.7234  0.4548  0.9872
 4766TIP3   OH235712   3.071   6.517   3.532  0.2814  0.0172 -0.2180
 4766TIP3    H135713   3.155   6.503   3.576 -1.2814 -0.9952  2.6824
 4766TIP3    H235714   3.046   6.606   3.554  0.3780  0.1667 -0.7023
 4767TIP3   OH235715   3.334   6.625  16.004 -0.0278  0.4319 -0.0609
 4767TIP3    H135716   3.322   6.559  15.935 -1.8931  1.7081 -1.0196
 4767TIP3    H235717   3.352   6.706  15.956 -0.5449  1.1812  0.9887
 4768TIP3   OH235718   0.108   4.611  12.208  0.2672  0.3496 -0.1512
 4768TIP3    H135719   0.149   4.681  12.259 -1.9341  1.7604 -0.1776
 4768TIP3    H235720   0.103   4.645  12.119 -2.4106  0.9988  0.1691
 4769TIP3   OH235721   0.598   4.031   0.030 -0.3611 -1.0560 -0.2107
 4769TIP3    H135722   0.673   3.974   0.048 -0.9307 -1.3021  1.6713
 4769TIP3    H235723   0.534   3.973  -0.013 -0.2392 -1.3851  0.0388
 4770TIP3   OH235724   3.854   3.710  16.549  0.1990  0.6143 -0.0123
 4770TIP3    H135725   3.806   3.766  16.488  0.5784  0.6968 -0.2343
 4770TIP3    H235726   3.903   3.770  16.605  0.2190  0.5213  0.0715
 4771TIP3   OH235727   4.638   4.146  16.097 -0.2230  0.0379  0.5003
 4771TIP3    H135728   4.590   4.120  16.176 -0.1455 -1.4944  0.0699
 4771TIP3    H235729   4.582   4.211  16.055 -0.5282  0.4505  1.5184
 4772TIP3   OH235730   1.694   5.834   5.996 -0.2160  0.5076 -0.0711
 4772TIP3    H135731   1.629   5.902   5.978  1.2376  1.5726 -1.5647
 4772TIP3    H235732   1.672   5.804   6.084 -2.6611  0.8687 -0.4762
 4773TIP3   OH235733   4.302   6.079   4.174  0.3330  0.3520 -0.1382
 4773TIP3    H135734   4.282   6.172   4.178 -0.5988  0.1207  2.3946
 4773TIP3    H235735   4.386   6.074   4.128 -0.5667  2.2221 -2.1724
 4774TIP3   OH235736   1.248   4.797   0.445  0.1011 -0.1045 -0.0436
 4774TIP3    H135737   1.176   4.740   0.470 -0.3437  0.5234  0.1362
 4774TIP3    H235738   1.232   4.879   0.493  1.4542 -0.2810  0.7663
 4775TIP3   OH235739   2.502   0.564  13.631 -0.3730 -0.0137 -0.0687
 4775TIP3    H135740   2.581   0.605  13.668 -0.8723  0.9592 -0.0452
 4775TIP3    H235741   2.441   0.637  13.618 -0.8586 -0.5874 -1.1595
 4776TIP3   OH235742   6.314   2.530   5.604  0.5005 -0.0942 -0.2753
 4776TIP3    H135743   6.256   2.455   5.615 -0.5282  0.8879  1.4072
 4776TIP3    H235744   6.398   2.491   5.579 -0.0646 -1.7810  0.2896
 4777TIP3   OH235745   6.381   6.635   5.071  0.4386 -0.5139  0.5715
 4777TIP3    H135746   6.310   6.700   5.075  0.6625 -0.2643  0.4647
 4777TIP3    H235747   6.366   6.580   5.148  0.5800  0.0078  0.9777
 4778TIP3   OH235748   1.035   2.786  13.026 -0.1059  0.3236 -1.0630
 4778TIP3    H135749   1.045   2.712  13.086  0.7920  1.6070  0.4520
 4778TIP3    H235750   0.941   2.792  13.011 -0.5495  0.8140  1.4117
 4779TIP3   OH235751   4.572   5.245   4.707  0.1688 -0.0093 -0.3164
 4779TIP3    H135752   4.567   5.152   4.682  0.2119 -0.0213 -0.2805
 4779TIP3    H235753   4.665   5.266   4.702  0.1696  0.0057 -0.2258
 4780TIP3   OH235754   4.965   4.981  11.891  0.3132  0.4275 -0.1059
 4780TIP3    H135755   4.987   5.065  11.932  1.6338 -0.2177  0.5920
 4780TIP3    H235756   5.043   4.958  11.841 -0.5197  0.2072 -1.3320
 4781TIP3   OH235757   2.722   2.446  16.358  0.2633  0.5606  0.2272
 4781TIP3    H135758   2.688   2.535  16.350  2.0550  1.2205 -0.8097
 4781TIP3    H235759   2.706   2.407  16.272  0.1248  0.1039  0.4544
 4782TIP3   OH235760   1.264   5.644  15.336 -0.3267 -0.1095  0.1718
 4782TIP3    H135761   1.309   5.690  15.407  0.3506 -0.9341  0.2884
 4782TIP3    H235762   1.294   5.554  15.343 -2.6630 -0.9264  0.7994
 4783TIP3   OH235763   2.285   2.166  16.183  0.6825 -0.2568  0.2230
 4783TIP3    H135764   2.257   2.152  16.092  0.6125 -1.4135  0.4101
 4783TIP3    H235765   2.204   2.181  16.231  0.8169  1.8779 -0.1292
 4784TIP3   OH235766   6.194   6.389   4.362 -0.2382 -0.8788  0.5224
 4784TIP3    H135767   6.183   6.298   4.334 -1.3280 -0.7108  0.3595
 4784TIP3    H235768   6.162   6.441   4.288  1.6866 -0.3070  0.0340
 4785TIP3   OH235769   5.465   3.337   2.869 -0.0419 -0.5589  0.5707
 4785TIP3    H135770   5.370   3.341   2.867 -0.0445 -0.6000 -1.5629
 4785TIP3    H235771   5.491   3.330   2.777  1.8706 -4.1180  1.2094
 4786TIP3   OH235772   3.578   0.145   5.432 -0.1416 -0.3326  0.0945
 4786TIP3    H135773   3.602   0.062   5.390  1.7259  0.2164 -0.0508
 4786TIP3    H235774   3.530   0.120   5.511 -1.6487 -1.4597 -1.1120
 4787TIP3   OH235775   3.455   1.783   0.592 -0.3777  0.0280  0.2500
 4787TIP3    H135776   3.411   1.858   0.551  3.3682  2.8568  0.7915
 4787TIP3    H235777   3.401   1.762   0.668 -0.4330  4.0929  1.6170
 4788TIP3   OH235778   1.668   4.785   3.072 -0.5651 -0.0426 -0.0802
 4788TIP3    H135779   1.696   4.773   2.981 -1.7509 -1.7303 -0.2811
 4788TIP3    H235780   1.741   4.830   3.114  0.5602 -0.3976 -1.5554
 4789TIP3   OH235781   0.984   5.488   0.332 -0.2561  0.0232 -0.1500
 4789TIP3    H135782   0.900   5.466   0.370 -0.2988 -2.5755 -1.5197
 4789TIP3    H235783   0.987   5.439   0.249  2.2086  0.7554 -0.5867
 4790TIP3   OH235784   3.872   0.811  14.383 -0.3901 -0.4644  0.3590
 4790TIP3    H135785   3.840   0.871  14.451 -0.1823 -0.5809  0.5615
 4790TIP3    H235786   3.795   0.762  14.355 -0.4974 -0.3365  0.4277
 4791TIP3   OH235787   6.051   6.654  13.432 -0.4734 -0.1337  0.2488
 4791TIP3    H135788   6.076   6.664  13.340 -0.9522  0.3557  0.1630
 4791TIP3    H235789   6.113   6.590  13.467 -0.6705 -0.7852 -0.5648
 4792TIP3   OH235790   0.800   3.820  17.177 -0.2784 -0.2610 -0.5475
 4792TIP3    H135791   0.746   3.748  17.144 -0.7342  0.4108 -1.2875
 4792TIP3    H235792   0.890   3.789  17.166 -0.4721 -1.4290  0.7832
 4793TIP3   OH235793   5.760   3.576  14.151 -1.0357  0.4158  0.5622
 4793TIP3    H135794   5.757   3.530  14.067  0.7045 -0.7236  1.0889
 4793TIP3    H235795   5.674   3.618  14.158 -0.8934  1.3913 -2.2382
 4794TIP3   OH235796   3.599   5.405  14.199 -0.2508 -0.0062 -0.1799
 4794TIP3    H135797   3.519   5.379  14.153  0.3001  0.4923 -1.4763
 4794TIP3    H235798   3.662   5.423  14.129  1.6536 -2.2845  0.7867
 4795TIP3   OH235799   5.676   1.899  11.602 -0.2866  0.0921  0.0982
 4795TIP3    H135800   5.758   1.867  11.565  0.1280  1.6160 -0.3583
 4795TIP3    H235801   5.700   1.977  11.651 -1.0774 -0.9639  2.2978
 4796TIP3   OH235802   5.629   6.715   3.034 -0.2149  0.5744  0.2549
 4796TIP3    H135803   5.648   6.639   3.089  0.3115 -1.2346 -2.2662
 4796TIP3    H235804   5.541   6.741   3.060  0.3954  0.4695  2.6361
 4797TIP3   OH235805   2.640   4.741   2.258  0.5485  0.1480 -0.1032
 4797TIP3    H135806   2.547   4.740   2.281  0.6707 -2.6422  0.6538
 4797TIP3    H235807   2.674   4.823   2.294 -1.4816  0.9626  0.0768
 4798TIP3   OH235808   4.661   2.968  13.332  0.2008  0.2921 -0.1435
 4798TIP3    H135809   4.617   2.944  13.250 -0.0330  1.4906 -0.3909
 4798TIP3    H235810   4.745   2.923  13.328 -0.9377 -2.0401  0.3276
 4799TIP3   OH235811   0.123   2.807  15.064  0.1161  0.3620  0.4408
 4799TIP3    H135812   0.049   2.836  15.011  0.6740  0.9075 -0.0512
 4799TIP3    H235813   0.121   2.864  15.141  0.0103  0.3560  0.4432
 4800TIP3   OH235814   2.227   0.132   1.167  0.0675 -0.1462 -0.1111
 4800TIP3    H135815   2.295   0.198   1.179 -2.1673  2.2710  0.0855
 4800TIP3    H235816   2.172   0.166   1.096 -0.5723 -2.3924 -0.7927
 4801TIP3   OH235817   5.994   4.446  11.545  0.0599  0.3748 -0.2955
 4801TIP3    H135818   6.076   4.409  11.577 -0.9707 -1.1614  0.7197
 4801TIP3    H235819   5.933   4.372  11.542 -1.6477  1.6730  0.2083
 4802TIP3   OH235820   4.070   4.430  16.265 -0.6038  0.0241 -0.5852
 4802TIP3    H135821   4.156   4.396  16.240 -1.2468 -1.7406 -0.5597
 4802TIP3    H235822   4.064   4.411  16.359 -0.7468  0.7922 -0.4341
 4803TIP3   OH235823   4.072   3.314  13.985 -0.1315  0.4007 -0.7167
 4803TIP3    H135824   4.045   3.397  14.025  1.0066  0.6552 -0.4591
 4803TIP3    H235825   3.989   3.271  13.964 -0.7923  0.4604  1.4705
 4804TIP3   OH235826   2.749   0.716   3.474 -0.1397 -0.0761  0.2878
 4804TIP3    H135827   2.791   0.802   3.469 -1.3263  0.5208  0.4178
 4804TIP3    H235828   2.711   0.713   3.562 -1.7829  0.0699 -0.3913
 4805TIP3   OH235829   0.906   4.468   2.114 -0.8765  0.2612 -0.2587
 4805TIP3    H135830   0.953   4.458   2.196 -0.2824 -0.8894 -0.7106
 4805TIP3    H235831   0.842   4.537   2.131 -0.0121  0.8262  0.8103
 4806TIP3   OH235832   4.701   0.615   5.489  0.4979 -0.2529  0.2027
 4806TIP3    H135833   4.716   0.647   5.400  0.0214  1.2684  0.6273
 4806TIP3    H235834   4.786   0.624   5.532  0.1255  1.7482  0.6574
 4807TIP3   OH235835   0.440   0.565   1.334 -0.5160 -0.1497  0.4807
 4807TIP3    H135836   0.485   0.623   1.396  0.0362 -1.3922  1.2803
 4807TIP3    H235837   0.478   0.588   1.249  0.1806  0.2077  0.8696
 4808TIP3   OH235838   3.330   1.251  14.340 -0.1579  0.1846  0.4858
 4808TIP3    H135839   3.375   1.258  14.255  1.3587 -2.5387  0.9503
 4808TIP3    H235840   3.366   1.322  14.392  1.7510 -0.3476 -0.0155
 4809TIP3   OH235841   0.583   1.766   4.074 -0.3887  0.2086 -0.4763
 4809TIP3    H135842   0.643   1.700   4.039  1.6558  0.6007  1.9935
 4809TIP3    H235843   0.548   1.727   4.154  1.0549  2.0953  1.1711
 4810TIP3   OH235844   6.063   1.381   5.706  0.4191  0.4978  0.3548
 4810TIP3    H135845   5.984   1.359   5.755  0.6813 -0.8897  0.2130
 4810TIP3    H235846   6.085   1.470   5.733 -0.2976  0.3137  1.5899
 4811TIP3   OH235847   0.578   0.472  16.994 -1.0353 -0.1784 -0.3657
 4811TIP3    H135848   0.486   0.494  16.977 -2.0911 -2.8313  1.2645
 4811TIP3    H235849   0.608   0.429  16.914 -1.7572 -0.7820 -0.3211
 4812TIP3   OH235850   5.114   4.032  13.838  0.9351 -0.4985  0.0648
 4812TIP3    H135851   5.137   4.120  13.869 -1.4258  0.3688 -0.5091
 4812TIP3    H235852   5.101   4.042  13.744  1.6992 -1.7300 -0.1911
 4813TIP3   OH235853   4.512   1.384  14.316  0.1429  0.1794 -0.0877
 4813TIP3    H135854   4.418   1.400  14.309  0.1143 -0.3356 -1.0730
 4813TIP3    H235855   4.547   1.409  14.230  0.4607 -2.4134 -0.8096
 4814TIP3   OH235856   4.739   1.491  12.402  0.1475 -1.1519  0.0390
 4814TIP3    H135857   4.671   1.496  12.335  0.4075 -0.8531 -0.2014
 4814TIP3    H235858   4.692   1.462  12.481 -0.3974 -0.2125  0.0745
 4815TIP3   OH235859   3.807   5.401   4.302 -0.1958  0.2809 -0.7768
 4815TIP3    H135860   3.741   5.426   4.367 -0.0023 -0.6830 -0.1804
 4815TIP3    H235861   3.891   5.424   4.344 -0.1070  0.5645 -1.1070
 4816TIP3   OH235862   3.217   3.364   2.262  0.0413  0.6054 -0.1938
 4816TIP3    H135863   3.199   3.445   2.214  1.0344  0.5379 -0.7257
 4816TIP3    H235864   3.208   3.295   2.196 -2.5020  0.0493  0.6276
 4817TIP3   OH235865   1.713   0.805   3.078  0.3677 -0.6548 -0.2206
 4817TIP3    H135866   1.627   0.827   3.043 -0.5947 -3.1028  0.3885
 4817TIP3    H235867   1.714   0.709   3.079  3.2042 -0.7002 -0.4011
 4818TIP3   OH235868   2.327   5.773  16.639  0.2052 -0.2280 -0.3793
 4818TIP3    H135869   2.365   5.860  16.625 -0.9778  0.4351  0.4127
 4818TIP3    H235870   2.402   5.714  16.633  1.0311  0.8318 -0.9621
 4819TIP3   OH235871   6.012   2.744  13.246 -0.4990  0.2078 -0.4270
 4819TIP3    H135872   6.101   2.756  13.279 -0.3198 -1.0075 -0.4191
 4819TIP3    H235873   6.024   2.731  13.152 -0.7201  0.5770 -0.5065
 4820TIP3   OH235874   1.394   1.793   0.072  0.0917  0.3920  0.4189
 4820TIP3    H135875   1.368   1.710   0.112 -1.1792  1.1549  1.2574
 4820TIP3    H235876   1.387   1.778  -0.022  1.6342 -0.9689  0.4862
 4821TIP3   OH235877   3.279   6.527  16.876 -0.1671  0.2042 -0.3773
 4821TIP3    H135878   3.197   6.486  16.905 -0.7846  1.2404 -0.5719
 4821TIP3    H235879   3.346   6.461  16.890 -1.3205 -1.4211 -2.0620
 4822TIP3   OH235880   3.627   0.278  12.993  0.6415  0.5521 -0.1178
 4822TIP3    H135881   3.602   0.269  12.901 -0.5452 -2.3430  0.3731
 4822TIP3    H235882   3.607   0.193  13.032  1.5509  1.5176  2.7434
 4823TIP3   OH235883   4.245   6.199   4.961 -0.1750 -0.2814  0.4141
 4823TIP3    H135884   4.295   6.186   4.880 -1.0344 -1.3810  0.0199
 4823TIP3    H235885   4.280   6.134   5.021 -0.2490 -0.1759  0.5712
 4824TIP3   OH235886   6.184   1.774   2.155 -0.1212  0.2973  1.1941
 4824TIP3    H135887   6.211   1.842   2.094 -0.7197  0.1435  0.7471
 4824TIP3    H235888   6.218   1.802   2.239  0.6761  0.5412  0.8015
 4825TIP3   OH235889   1.175   1.324  16.052  0.0265 -0.4998  0.3272
 4825TIP3    H135890   1.208   1.331  16.142  1.2981  2.0569 -0.2255
 4825TIP3    H235891   1.204   1.405  16.010  1.2156 -2.4608 -2.9917
 4826TIP3   OH235892   5.915   2.901  12.930  0.1955  0.0418 -0.0185
 4826TIP3    H135893   5.905   2.968  12.863 -0.0401  1.2841  1.2083
 4826TIP3    H235894   5.931   2.820  12.882 -2.4948  0.3832 -1.6711
 4827TIP3   OH235895   6.701   6.672  12.525  0.5156 -0.1822 -0.1466
 4827TIP3    H135896   6.685   6.692  12.433  0.4364 -0.3262 -0.1636
 4827TIP3    H235897   6.739   6.584  12.524 -0.7208 -0.7356  0.0540
 4828TIP3   OH235898   4.162   4.827   3.527  0.6738 -0.5920 -0.1877
 4828TIP3    H135899   4.084   4.840   3.474 -0.8925 -2.4685  1.5185
 4828TIP3    H235900   4.144   4.873   3.609  2.5660  1.2557 -0.7003
 4829TIP3   OH235901   6.464   0.742   2.179  0.1418  0.1275 -0.1998
 4829TIP3    H135902   6.383   0.748   2.231  0.6422 -1.8535  0.8769
 4829TIP3    H235903   6.463   0.822   2.125 -3.8341 -0.9797 -2.1481
 4830TIP3   OH235904   2.961   2.904   3.553  0.4093  0.4479 -0.2371
 4830TIP3    H135905   3.029   2.890   3.487  0.9368  1.4727  0.0700
 4830TIP3    H235906   2.938   2.996   3.545  0.4257  0.5679  0.9482
 4831TIP3   OH235907   3.789   0.627  14.113 -0.6176 -0.2587 -0.7886
 4831TIP3    H135908   3.818   0.694  14.052  0.3111 -1.9040 -2.2595
 4831TIP3    H235909   3.870   0.597  14.156 -1.1454  0.2425  0.6005
 4832TIP3   OH235910   0.354   6.354   5.285 -0.2742 -0.3720  0.0055
 4832TIP3    H135911   0.381   6.433   5.238  0.0359  0.6222  1.7508
 4832TIP3    H235912   0.259   6.362   5.293 -0.1699  0.2253  0.8029
 4833TIP3   OH235913   6.572   0.823  13.081  0.1970 -0.3203 -0.1659
 4833TIP3    H135914   6.478   0.835  13.069  0.1233 -0.1809  0.5018
 4833TIP3    H235915   6.594   0.878  13.157  0.7122 -0.7741  0.0237
 4834TIP3   OH235916   0.551   0.250   5.360 -0.0057  0.2454 -0.0202
 4834TIP3    H135917   0.499   0.278   5.285  0.3488  1.6012  0.2259
 4834TIP3    H235918   0.642   0.264   5.333  0.2697 -1.8146 -0.3310
 4835TIP3   OH235919   6.220   1.585  15.232  0.5652 -0.4306  0.1876
 4835TIP3    H135920   6.185   1.669  15.202 -0.1564 -0.1843  1.6015
 4835TIP3    H235921   6.248   1.540  15.153 -0.1813  0.6496 -0.7131
 4836TIP3   OH235922   1.382   2.855  13.152  0.5646 -0.0452  0.0366
 4836TIP3    H135923   1.378   2.846  13.057  1.4088  0.1803 -0.0273
 4836TIP3    H235924   1.425   2.774  13.182  0.4200 -0.0563  0.2144
 4837TIP3   OH235925   5.446   2.862  15.230  0.0022  0.3779 -0.1455
 4837TIP3    H135926   5.395   2.924  15.282 -0.4905  1.2909 -1.6628
 4837TIP3    H235927   5.536   2.894  15.239  0.0659 -0.0460  0.8993
 4838TIP3   OH235928   1.966   1.413   1.610 -0.1395  0.1619  0.2289
 4838TIP3    H135929   1.942   1.342   1.551  1.5622 -1.6500  1.6007
 4838TIP3    H235930   1.884   1.461   1.625 -1.3163 -1.4575 -0.7872
 4839TIP3   OH235931   3.561   0.771   5.287  0.4854 -0.0302 -0.1672
 4839TIP3    H135932   3.610   0.818   5.220 -0.4513  0.7472 -0.3294
 4839TIP3    H235933   3.571   0.825   5.366 -0.8967  0.6631 -0.4441
 4840TIP3   OH235934   5.069   1.872  16.210 -0.3279  0.1913  0.0557
 4840TIP3    H135935   5.090   1.955  16.253  0.2899  0.2911 -0.4137
 4840TIP3    H235936   4.988   1.890  16.163 -0.2486  0.5054  0.0320
 4841TIP3   OH235937   4.645   0.635  13.410 -0.1340 -0.4550 -0.2572
 4841TIP3    H135938   4.643   0.671  13.322  0.1511 -1.1396 -0.5534
 4841TIP3    H235939   4.561   0.592  13.422 -0.6493  0.6671  0.2604
 4842TIP3   OH235940   3.254   2.747  17.208 -0.3080  0.0587 -0.1680
 4842TIP3    H135941   3.236   2.691  17.284 -1.3441  1.1394  0.3964
 4842TIP3    H235942   3.332   2.796  17.232  1.5085 -2.1041 -1.2364
 4843TIP3   OH235943   3.816   2.910  12.450  0.0697  0.3631  0.3142
 4843TIP3    H135944   3.845   2.895  12.541  0.9601 -0.3231 -0.0653
 4843TIP3    H235945   3.723   2.888  12.451  0.0754  0.3326  1.0583
 4844TIP3   OH235946   5.603   2.359  13.739 -0.2920  0.0537  0.5783
 4844TIP3    H135947   5.614   2.363  13.834 -0.0582  1.7990  0.5075
 4844TIP3    H235948   5.599   2.450  13.712 -1.9667 -0.4052 -0.9160
 4845TIP3   OH235949   4.738   0.870   1.845  0.4306  0.0145 -0.3968
 4845TIP3    H135950   4.710   0.881   1.935  2.0038 -0.2116  0.1545
 4845TIP3    H235951   4.743   0.960   1.811  0.6753  0.1663  0.0258
 4846TIP3   OH235952   4.822   1.948  11.916  0.2697 -0.2864  0.3556
 4846TIP3    H135953   4.727   1.945  11.909  0.2733 -1.7226  0.6594
 4846TIP3    H235954   4.852   1.870  11.869  1.2667 -0.0862  0.6450
 4847TIP3   OH235955   3.237   0.990  16.868 -0.5033  0.1277 -0.0666
 4847TIP3    H135956   3.237   1.031  16.781  0.2175 -1.6914 -0.9815
 4847TIP3    H235957   3.289   0.910  16.857 -2.1432 -1.2625  1.4965
 4848TIP3   OH235958   2.546   2.384   1.201  0.4345  0.1356  0.1179
 4848TIP3    H135959   2.615   2.332   1.160 -0.6041 -1.7972  0.7232
 4848TIP3    H235960   2.587   2.420   1.280  1.0797  0.0401 -0.1619
 4849TIP3   OH235961   2.959   2.152   1.059  0.5682  0.4156  0.1836
 4849TIP3    H135962   3.043   2.131   1.101  1.1098 -2.4142 -1.9700
 4849TIP3    H235963   2.978   2.228   1.004  1.7814 -0.1856 -0.2707
 4850TIP3   OH235964   0.052   3.070  13.916 -0.2195 -0.0035  0.3967
 4850TIP3    H135965   0.147   3.071  13.926 -0.2054  1.1822  0.3920
 4850TIP3    H235966   0.037   3.109  13.829 -0.5932 -3.6875 -1.3628
 4851TIP3   OH235967   2.205   0.230   3.839  0.3863  0.1477 -0.2169
 4851TIP3    H135968   2.149   0.297   3.799  1.2797  0.9719 -0.1251
 4851TIP3    H235969   2.168   0.147   3.809 -1.2553  0.6436  0.3446
 4852TIP3   OH235970   5.078   4.904  13.595  0.1915  0.4022 -0.3402
 4852TIP3    H135971   5.068   4.836  13.528  0.0736  0.9914 -0.9195
 4852TIP3    H235972   5.042   4.983  13.556 -0.6378  0.5727  0.7240
 4853TIP3   OH235973   4.062   4.963   5.521  0.8625  0.0535 -0.0837
 4853TIP3    H135974   3.993   5.014   5.479  0.2448 -0.0835  0.7404
 4853TIP3    H235975   4.031   4.949   5.611  0.4091 -2.7744 -0.5771
 4854TIP3   OH235976   2.795   6.619  11.446 -0.3942  0.5152  0.2308
 4854TIP3    H135977   2.761   6.570  11.521 -0.5713 -0.2072 -0.3006
 4854TIP3    H235978   2.745   6.584  11.371  0.9049  0.0490 -0.4462
 4855TIP3   OH235979   6.394   0.315  12.922 -0.0132 -0.7779 -0.0446
 4855TIP3    H135980   6.469   0.296  12.978  0.5820 -0.8453 -0.8418
 4855TIP3    H235981   6.427   0.302  12.833 -0.2117  1.6372 -0.5614
 4856TIP3   OH235982   2.990   5.967  12.762  0.0244  0.2604 -0.3896
 4856TIP3    H135983   3.053   5.908  12.721  1.9481  0.0254  2.5472
 4856TIP3    H235984   3.035   6.052  12.766 -0.5769  0.5689  0.1484
 4857TIP3   OH235985   2.542   0.494   3.844  0.1450 -0.0890  0.1402
 4857TIP3    H135986   2.534   0.399   3.834  0.9591 -0.9822  5.1381
 4857TIP3    H235987   2.600   0.521   3.773 -1.6033 -2.8750 -2.5937
 4858TIP3   OH235988   5.018   1.073   1.913 -0.1158  0.0970  0.0709
 4858TIP3    H135989   4.957   1.064   1.840  0.1346  1.3115 -0.3140
 4858TIP3    H235990   5.003   1.161   1.946 -0.7514 -0.6893  2.0033
 4859TIP3   OH235991   1.907   0.998  12.431  0.3747  0.0723  0.3453
 4859TIP3    H135992   1.831   0.941  12.443 -0.1061  0.4608 -0.7576
 4859TIP3    H235993   1.898   1.033  12.342  1.2820  0.9533  0.5743
 4860TIP3   OH235994   0.534   2.216   3.743 -0.1350  0.1016 -0.9316
 4860TIP3    H135995   0.474   2.158   3.791 -1.2695  1.1862 -0.9883
 4860TIP3    H235996   0.556   2.167   3.664 -0.9946 -0.3096 -0.9336
 4861TIP3   OH235997   1.540   0.740  15.515 -0.4486  0.1845  0.9991
 4861TIP3    H135998   1.553   0.720  15.608  0.8542 -2.0673  0.4156
 4861TIP3    H235999   1.628   0.753  15.480 -0.8748  0.3983 -0.0459
 4862TIP3   OH236000   3.286   4.925  13.037  0.2393  0.0323  0.4664
 4862TIP3    H136001   3.313   4.991  13.100  0.5662 -1.2540  1.7329
 4862TIP3    H236002   3.367   4.885  13.008  0.2086  1.4404 -1.8078
 4863TIP3   OH236003   4.081   1.536  11.078 -0.0421 -0.2275 -0.9538
 4863TIP3    H136004   4.028   1.560  11.003  0.3816  0.0180 -1.1837
 4863TIP3    H236005   4.164   1.507  11.040  0.8211  1.5373 -0.5522
 4864TIP3   OH236006   6.746   0.111   5.042  0.2235  0.2004  0.0677
 4864TIP3    H136007   6.826   0.132   4.994 -0.1558  1.7209  0.0465
 4864TIP3    H236008   6.704   0.043   4.990  0.6582  0.6098 -0.8338
 4865TIP3   OH236009   0.937   6.057   4.965 -0.8632 -0.1261 -0.3547
 4865TIP3    H136010   1.024   6.060   4.925 -0.4011  0.1823  0.6565
 4865TIP3    H236011   0.877   6.072   4.892 -0.0496  0.2401 -0.9637
 4866TIP3   OH236012   1.210   4.451  15.998 -0.4116 -0.6297  0.3441
 4866TIP3    H136013   1.135   4.391  16.000 -2.2395  1.5405  1.0786
 4866TIP3    H236014   1.213   4.489  16.085  0.1515  0.9663 -0.3313
 4867TIP3   OH236015   3.746   3.312  13.068  0.1218 -0.0918 -0.0404
 4867TIP3    H136016   3.654   3.319  13.043  0.0096 -1.5725 -0.0837
 4867TIP3    H236017   3.760   3.387  13.126 -1.3059 -0.2553  0.5588
 4868TIP3   OH236018   4.704   2.920   0.227 -0.0948 -0.2313  0.3288
 4868TIP3    H136019   4.695   2.975   0.305  0.6661  0.3589  0.0099
 4868TIP3    H236020   4.796   2.894   0.226  0.2291  0.8537 -1.0824
 4869TIP3   OH236021   4.527   2.811  13.169  0.8106  0.3250  0.4380
 4869TIP3    H136022   4.520   2.731  13.220  4.0822 -0.3603  0.0230
 4869TIP3    H236023   4.475   2.794  13.090 -0.2185 -0.5199  1.2674
 4870TIP3   OH236024   4.084   3.876   4.705  0.1455 -0.2651 -0.4119
 4870TIP3    H136025   4.088   3.803   4.767 -0.7594  0.5704  0.6789
 4870TIP3    H236026   3.993   3.876   4.674  0.1166  0.4353 -0.3403
 4871TIP3   OH236027   4.745   0.448   2.139  0.1017 -0.5211 -0.1953
 4871TIP3    H136028   4.776   0.506   2.069  0.7656 -0.2250  0.3413
 4871TIP3    H236029   4.821   0.394   2.161  0.7076  1.1522  2.1011
 4872TIP3   OH236030   5.631   5.564  12.460  0.3985 -0.4677  0.2679
 4872TIP3    H136031   5.718   5.602  12.444  0.4309 -0.5880  0.1473
 4872TIP3    H236032   5.638   5.475  12.425  0.1461 -0.3916  0.0250
 4873TIP3   OH236033   2.953   3.740  16.825  0.2035 -0.2228  0.5636
 4873TIP3    H136034   3.006   3.793  16.885  0.2172  0.4881 -0.0628
 4873TIP3    H236035   2.872   3.789  16.814  0.4703  0.0054 -0.5206
 4874TIP3   OH236036   5.329   4.552   2.644 -0.1883  0.2458  0.2186
 4874TIP3    H136037   5.383   4.472   2.645 -0.2859  0.1600 -0.6108
 4874TIP3    H236038   5.361   4.604   2.718 -0.6376 -0.8969  1.2607
 4875TIP3   OH236039   5.543   1.104  15.132  0.1224 -0.5740  0.3822
 4875TIP3    H136040   5.630   1.133  15.105 -0.9107  1.4911 -0.9651
 4875TIP3    H236041   5.559   1.020  15.174  2.8695  0.1183  0.9791
 4876TIP3   OH236042   2.955   1.605   2.533  0.2732  0.0454  0.1113
 4876TIP3    H136043   3.027   1.652   2.575 -0.1892  0.9208 -0.0491
 4876TIP3    H236044   2.967   1.514   2.559  1.4358  0.1795  0.0837
 4877TIP3   OH236045   5.635   2.881  12.397  0.5297  0.1015 -0.2776
 4877TIP3    H136046   5.638   2.933  12.477  0.4039  0.3413 -0.4270
 4877TIP3    H236047   5.704   2.816  12.408 -0.6934 -1.0696  0.8414
 4878TIP3   OH236048   4.627   2.249  12.843 -0.6558  0.4324  0.7574
 4878TIP3    H136049   4.666   2.186  12.782 -3.0406 -0.8053  0.3744
 4878TIP3    H236050   4.688   2.252  12.917  0.1656 -1.3539  0.2089
 4879TIP3   OH236051   0.327   5.366  14.117 -0.0202 -0.6836 -0.2229
 4879TIP3    H136052   0.278   5.328  14.190  1.0433 -1.3568  0.1686
 4879TIP3    H236053   0.413   5.323  14.121  0.4524  0.1373 -1.1537
 4880TIP3   OH236054   4.918   4.460  12.397 -0.0322 -0.3991  0.5027
 4880TIP3    H136055   5.002   4.482  12.436  0.4331 -0.7498 -0.2656
 4880TIP3    H236056   4.870   4.542  12.395  0.9045  0.1485 -0.4924
 4881TIP3   OH236057   2.913   2.587  17.073 -0.2156  0.2059  0.7270
 4881TIP3    H136058   2.870   2.670  17.093 -2.1782 -0.1471 -1.6178
 4881TIP3    H236059   2.999   2.612  17.040 -0.1085  1.1761  1.6800
 4882TIP3   OH236060   2.599   0.077   2.886  0.3794 -0.0259  0.2814
 4882TIP3    H136061   2.582   0.143   2.820  0.2731 -0.7896 -0.4686
 4882TIP3    H236062   2.647   0.124   2.955 -0.9406  1.1522  0.4379
 4883TIP3   OH236063   1.889   4.864  11.876  0.7932  0.3349 -0.1472
 4883TIP3    H136064   1.824   4.912  11.825  0.8291 -0.5504 -1.0660
 4883TIP3    H236065   1.854   4.863  11.965 -0.1012  0.4739 -0.4905
 4884TIP3   OH236066   2.353   5.313  15.043  0.3833  0.0195 -0.4849
 4884TIP3    H136067   2.313   5.297  15.128  1.0664 -0.0044 -0.1608
 4884TIP3    H236068   2.326   5.239  14.989 -0.4159  0.2575 -0.4287
 4885TIP3   OH236069   6.226   1.768   1.151 -0.0777 -0.0938  0.0396
 4885TIP3    H136070   6.249   1.725   1.233  0.1727 -0.1562 -0.0612
 4885TIP3    H236071   6.298   1.745   1.092 -1.1967 -1.6816 -0.7801
 4886TIP3   OH236072   0.477   1.467   3.542  0.2637  0.4749 -0.2982
 4886TIP3    H136073   0.519   1.396   3.590 -1.3846  0.3601  1.0659
 4886TIP3    H236074   0.466   1.432   3.453 -2.2348 -1.8557  0.7614
 4887TIP3   OH236075   5.130   4.306   6.638 -0.2881 -0.2056  0.1762
 4887TIP3    H136076   5.220   4.275   6.652 -0.2689 -0.1643  0.1434
 4887TIP3    H236077   5.082   4.273   6.714 -0.1419  0.1919  0.4423
 4888TIP3   OH236078   0.997   6.048  15.843 -0.7103 -0.3487 -0.2952
 4888TIP3    H136079   0.995   6.050  15.747 -1.0910  0.9458 -0.2865
 4888TIP3    H236080   1.081   6.008  15.864 -0.3797 -0.1547 -1.1718
 4889TIP3   OH236081   5.221   5.393   1.638 -0.9411 -0.3641 -0.4872
 4889TIP3    H136082   5.167   5.469   1.614 -3.3521 -1.8698 -0.2195
 4889TIP3    H236083   5.287   5.428   1.698  0.5914  2.1752 -3.4161
 4890TIP3   OH236084   4.441   1.697  11.563 -0.2719  0.3844  0.7516
 4890TIP3    H136085   4.366   1.654  11.523 -0.0177 -2.1003  2.7063
 4890TIP3    H236086   4.427   1.790  11.546 -1.5714 -0.2757 -2.5336
 4891TIP3   OH236087   3.750   1.140   2.841 -0.4672  0.3758 -0.4741
 4891TIP3    H136088   3.802   1.069   2.879  0.1340  0.9419 -0.2139
 4891TIP3    H236089   3.715   1.103   2.760  0.8525  0.1638 -0.9696
 4892TIP3   OH236090   0.728   6.467   5.657 -0.1281 -0.1320 -0.3623
 4892TIP3    H136091   0.806   6.488   5.708  0.5664 -0.4937 -1.2532
 4892TIP3    H236092   0.706   6.377   5.681 -0.5546  0.1241  0.2321
 4893TIP3   OH236093   1.652   3.977  16.233  0.6769  0.5114 -0.2068
 4893TIP3    H136094   1.707   4.055  16.239  1.5271  0.1039 -2.0423
 4893TIP3    H236095   1.658   3.950  16.142 -2.3185  0.2027 -0.3959
 4894TIP3   OH236096   2.878   4.637   3.610 -0.2636 -0.4434  0.4499
 4894TIP3    H136097   2.926   4.634   3.693 -1.5017  2.7668  1.4306
 4894TIP3    H236098   2.796   4.680   3.632 -1.2457 -0.8282 -2.2088
 4895TIP3   OH236099   4.336   6.494  15.910 -0.1794  0.6345  0.3572
 4895TIP3    H136100   4.248   6.510  15.943 -1.1877  1.3491 -2.4094
 4895TIP3    H236101   4.324   6.478  15.816  2.7781  2.6465 -0.4999
 4896TIP3   OH236102   5.846   6.070   0.136 -0.2530  0.3982  0.5837
 4896TIP3    H136103   5.823   6.035   0.222  0.5750  2.2192  1.5868
 4896TIP3    H236104   5.762   6.078   0.091 -0.8029  0.2728  1.5569
 4897TIP3   OH236105   5.954   0.293   5.457 -0.5459 -0.0938 -0.1528
 4897TIP3    H136106   5.925   0.206   5.484 -0.4413  0.4761  2.0260
 4897TIP3    H236107   5.877   0.348   5.468 -0.7531  0.0532 -1.9925
 4898TIP3   OH236108   1.065   4.363  12.184  0.0368  0.2913 -0.2845
 4898TIP3    H136109   1.046   4.338  12.274 -0.1024  1.6346  0.0747
 4898TIP3    H236110   0.987   4.337  12.135 -0.6425  1.1659  0.3077
 4899TIP3   OH236111   3.332   4.349  15.221 -0.5553 -0.2055 -0.2774
 4899TIP3    H136112   3.319   4.310  15.135  0.9535 -0.6825 -0.3159
 4899TIP3    H236113   3.387   4.426  15.205  0.3336 -0.7012  0.3205
 4900TIP3   OH236114   3.300   5.622   3.089  0.3698 -0.7724 -0.1033
 4900TIP3    H136115   3.256   5.594   3.009  0.8380  0.4204 -0.7982
 4900TIP3    H236116   3.249   5.582   3.160 -1.6505  0.3161 -0.8789
 4901TIP3   OH236117   2.370   3.970   1.629 -0.0992  0.2531  0.1192
 4901TIP3    H136118   2.433   3.958   1.701  0.9645  2.1546 -0.4359
 4901TIP3    H236119   2.424   3.966   1.550 -0.9813  0.0561 -0.4767
 4902TIP3   OH236120   2.837   2.150  17.156 -0.2851 -0.0016  0.0617
 4902TIP3    H136121   2.870   2.122  17.071  0.8525 -1.6421  0.9752
 4902TIP3    H236122   2.748   2.114  17.161  0.5608 -2.1880  0.5452
 4903TIP3   OH236123   6.681   0.811  16.423 -0.0538  0.1570 -0.2568
 4903TIP3    H136124   6.591   0.830  16.396 -0.3242 -0.0092  0.5003
 4903TIP3    H236125   6.684   0.716  16.432 -0.7481  0.3077  2.7702
 4904TIP3   OH236126   6.681   6.051  11.116  0.6926  0.2296  0.7807
 4904TIP3    H136127   6.716   5.968  11.150 -1.2067 -0.7875  0.3976
 4904TIP3    H236128   6.599   6.027  11.073  0.2721  2.2778  0.3133
 4905TIP3   OH236129   1.904   4.160   1.868 -0.6112  0.3703 -0.6988
 4905TIP3    H136130   1.988   4.202   1.853 -0.2382 -0.7170 -1.9489
 4905TIP3    H236131   1.861   4.162   1.782 -0.5589 -1.7343 -0.8364
 4906TIP3   OH236132   2.026   2.922  15.216 -0.3014  0.4258 -0.3357
 4906TIP3    H136133   2.012   2.836  15.255 -0.6202  0.9066  0.6367
 4906TIP3    H236134   2.102   2.911  15.159 -1.0606 -0.7934 -1.1633
 4907TIP3   OH236135   1.589   3.423   6.263 -0.1774 -0.0281 -0.3160
 4907TIP3    H136136   1.647   3.445   6.336  1.5690 -1.8465 -1.0426
 4907TIP3    H236137   1.560   3.333   6.282 -0.1515 -0.3166 -1.5574
 4908TIP3   OH236138   3.858   1.457  12.269 -0.2094 -0.1944 -0.0802
 4908TIP3    H136139   3.798   1.529  12.246  1.2557  1.4099  0.8794
 4908TIP3    H236140   3.842   1.442  12.362  0.0092 -0.6073 -0.1090
 4909TIP3   OH236141   4.466   0.647  14.084  0.7749  0.0485 -0.3061
 4909TIP3    H136142   4.386   0.626  14.035  1.7202 -1.0823 -1.4348
 4909TIP3    H236143   4.488   0.736  14.056  1.7460 -0.8665 -2.6595
 4910TIP3   OH236144   4.893   3.677  15.960 -0.4096  0.0848 -0.2333
 4910TIP3    H136145   4.938   3.674  15.875  3.2448  2.2044  1.3559
 4910TIP3    H236146   4.831   3.750  15.952  0.4765  0.7852 -0.8760
 4911TIP3   OH236147   0.835   3.057   4.897 -0.6715  0.1856  0.0334
 4911TIP3    H136148   0.840   3.026   4.988 -2.4171 -0.0526  0.0678
 4911TIP3    H236149   0.871   2.985   4.845  1.1485  0.6564  0.5508
 4912TIP3   OH236150   6.189   0.491  11.760  0.0794 -0.5216 -0.2534
 4912TIP3    H136151   6.254   0.423  11.779  2.2273  1.5477  0.2571
 4912TIP3    H236152   6.189   0.498  11.664 -0.1822 -1.2415 -0.3105
 4913TIP3   OH236153   5.856   3.848  14.519 -0.2204  0.1232  0.4314
 4913TIP3    H136154   5.934   3.889  14.481 -1.3317  0.4115 -1.6778
 4913TIP3    H236155   5.799   3.921  14.542 -1.7106 -0.0774 -2.2466
 4914TIP3   OH236156   6.094   4.168   4.100 -0.0350 -0.2642 -0.3771
 4914TIP3    H136157   6.093   4.145   4.007 -0.9332 -0.8654 -0.2361
 4914TIP3    H236158   6.004   4.152   4.130  0.2200 -0.0079  0.5747
 4915TIP3   OH236159   5.075   2.448   2.131 -0.1998 -0.4159 -0.1764
 4915TIP3    H136160   5.002   2.436   2.070  0.1911  0.8089 -0.9387
 4915TIP3    H236161   5.067   2.376   2.194 -1.5351 -0.8052 -0.7607
 4916TIP3   OH236162   4.955   0.105  16.026 -0.0371 -0.0316 -0.0942
 4916TIP3    H136163   4.873   0.142  16.058 -0.1115 -0.6242  0.4018
 4916TIP3    H236164   4.934   0.015  16.002  0.2274  0.1279 -0.9757
 4917TIP3   OH236165   6.441   1.739   2.764 -0.2647  0.0352 -0.2719
 4917TIP3    H136166   6.393   1.795   2.824 -1.7817 -1.4505 -0.0239
 4917TIP3    H236167   6.458   1.659   2.814  0.2103 -0.4544 -1.1763
 4918TIP3   OH236168   2.464   3.577   1.438 -0.4645 -0.2375  0.0346
 4918TIP3    H136169   2.494   3.665   1.460  0.9276 -0.4862 -0.7833
 4918TIP3    H236170   2.444   3.536   1.522  1.8727 -0.1809  0.6667
 4919TIP3   OH236171   4.118   6.541   2.022  0.5689  0.5891  0.0917
 4919TIP3    H136172   4.108   6.625   2.066 -0.6032  0.4866  0.0452
 4919TIP3    H236173   4.050   6.540   1.956  1.9634  0.5146 -1.4076
 4920TIP3   OH236174   3.345   4.023  16.508  0.4502  0.2164  0.5402
 4920TIP3    H136175   3.262   3.992  16.544  0.3971 -0.1036  0.1527
 4920TIP3    H236176   3.321   4.097  16.453  0.2063 -0.8269 -0.8212
 4921TIP3   OH236177   6.504   3.686   5.255 -0.3705  0.0474  0.1879
 4921TIP3    H136178   6.559   3.728   5.188  0.2778 -0.2855  0.5129
 4921TIP3    H236179   6.490   3.597   5.222  0.6904 -0.4014  0.9181
 4922TIP3   OH236180   2.302   5.439  11.612  0.2341  0.0623 -0.0826
 4922TIP3    H136181   2.275   5.399  11.530  4.0181  1.5299 -2.3474
 4922TIP3    H236182   2.278   5.376  11.680 -2.1945 -1.6539 -2.3581
 4923TIP3   OH236183   4.785   4.014  13.211  0.5186  0.5528  0.7579
 4923TIP3    H136184   4.699   4.044  13.183  0.8846  1.3892  0.5094
 4923TIP3    H236185   4.842   4.090  13.201  1.0071  0.4083  2.2041
 4924TIP3   OH236186   1.080   5.580   3.285 -0.2080 -0.1118 -0.2406
 4924TIP3    H136187   1.051   5.596   3.196 -1.6750  1.0735  0.3999
 4924TIP3    H236188   1.003   5.544   3.329 -0.0740  1.0248  0.9812
 4925TIP3   OH236189   4.973   4.085  14.762  0.6376  0.1351 -0.0033
 4925TIP3    H136190   4.897   4.107  14.708 -0.2386 -0.4311  0.9555
 4925TIP3    H236191   5.009   4.007  14.721 -0.1598 -0.4293  0.3429
 4926TIP3   OH236192   1.812   3.222   2.939  0.4113  0.0031  0.5344
 4926TIP3    H136193   1.848   3.287   3.000  0.9618  0.3234 -0.1253
 4926TIP3    H236194   1.887   3.191   2.889 -0.2002  0.6987 -0.8719
 4927TIP3   OH236195   6.558   0.088  12.656 -0.7875 -0.1831  0.4643
 4927TIP3    H136196   6.596   0.008  12.619  0.1503  0.2097  0.5593
 4927TIP3    H236197   6.621   0.116  12.722 -1.5973  0.0973  1.1244
 4928TIP3   OH236198   5.511   3.445  11.398  0.2910 -0.3971 -0.3254
 4928TIP3    H136199   5.443   3.417  11.458  0.2632  1.6617  0.6798
 4928TIP3    H236200   5.592   3.411  11.436  0.0373 -1.1984 -0.4807
 4929TIP3   OH236201   0.945   5.819  13.862  0.5285 -0.3684  0.4789
 4929TIP3    H136202   1.027   5.840  13.819  0.6215 -0.1807  0.7431
 4929TIP3    H236203   0.918   5.735  13.824 -0.0325  0.3838 -0.8634
 4930TIP3   OH236204   2.745   2.820  13.044 -0.3520 -0.2397  0.3782
 4930TIP3    H136205   2.658   2.856  13.058  0.3894  1.8547  0.0116
 4930TIP3    H236206   2.802   2.875  13.098  1.1931  0.9925 -2.2937
 4931TIP3   OH236207   2.800   6.659   3.731 -0.3504  0.6701 -0.8283
 4931TIP3    H136208   2.765   6.723   3.794  1.0476 -0.0019  0.7019
 4931TIP3    H236209   2.887   6.692   3.709 -0.3711  0.2807 -1.5092
 4932TIP3   OH236210   4.341   5.076   4.405  0.0463  0.0684  0.4992
 4932TIP3    H136211   4.354   5.168   4.426 -1.4903  0.3449  0.3905
 4932TIP3    H236212   4.424   5.034   4.426  0.8850  1.5284  0.2365
 4933TIP3   OH236213   4.479   4.484  13.778  0.3067  0.1359  0.1337
 4933TIP3    H136214   4.466   4.531  13.860 -0.3183  0.9067 -0.3860
 4933TIP3    H236215   4.394   4.443  13.761  0.2534  0.4561 -0.4067
 4934TIP3   OH236216   5.987   4.136  12.637 -0.1934  0.5919 -0.5193
 4934TIP3    H136217   5.936   4.200  12.686 -0.8815  0.7332 -1.3896
 4934TIP3    H236218   5.936   4.055  12.644 -0.7846  0.8366 -1.7434
 4935TIP3   OH236219   2.078   5.886  16.328 -0.1768  0.0666 -0.3758
 4935TIP3    H136220   2.142   5.929  16.384 -1.1051 -0.6614  1.3194
 4935TIP3    H236221   1.999   5.939  16.336 -0.3977 -0.1921 -0.7870
 4936TIP3   OH236222   6.384   6.599   1.201  0.2741  0.1673 -0.0534
 4936TIP3    H136223   6.436   6.649   1.265 -0.0890  0.7271 -0.1938
 4936TIP3    H236224   6.446   6.578   1.131  0.6441 -0.3427  0.4129
 4937TIP3   OH236225   1.119   2.183   4.130  0.1976 -0.0304 -0.2044
 4937TIP3    H136226   1.039   2.232   4.149 -1.0356 -1.0448 -2.3501
 4937TIP3    H236227   1.184   2.218   4.191 -1.5209  1.7581  0.7180
 4938TIP3   OH236228   1.733   3.003   3.959 -0.0594  0.2386 -0.3663
 4938TIP3    H136229   1.772   3.009   4.046  0.2822  0.0923 -0.5035
 4938TIP3    H236230   1.751   2.913   3.931 -0.1882  0.2774 -0.5771
 4939TIP3   OH236231   3.674   0.336   0.690 -0.2770  0.4627 -0.1587
 4939TIP3    H136232   3.584   0.338   0.658 -0.4795  3.5365  0.3215
 4939TIP3    H236233   3.669   0.377   0.777  0.9661 -3.3635  1.9623
 4940TIP3   OH236234   1.943   1.672   6.361  0.6495 -0.0160 -0.2279
 4940TIP3    H136235   1.917   1.601   6.303  0.6621 -1.0382  0.9865
 4940TIP3    H236236   2.038   1.663   6.369  0.4636 -0.9467  1.2690
 4941TIP3   OH236237   2.727   4.676  14.859 -0.0263  0.2702  0.5301
 4941TIP3    H136238   2.811   4.630  14.868  0.2514  0.7392  0.3625
 4941TIP3    H236239   2.665   4.622  14.908 -0.0256 -1.1190 -0.9247
 4942TIP3   OH236240   1.139   1.272  10.944  0.0461  0.2086  0.9382
 4942TIP3    H136241   1.108   1.334  11.011  3.0808  1.0098  1.8083
 4942TIP3    H236242   1.099   1.189  10.967 -2.0079  1.2720  1.3998
 4943TIP3   OH236243   1.309   1.866   4.173 -0.1937 -0.0296 -0.0563
 4943TIP3    H136244   1.399   1.845   4.196 -0.7159 -3.9157 -0.7421
 4943TIP3    H236245   1.315   1.933   4.106  2.1597 -0.0755  0.0490
 4944TIP3   OH236246   2.238   6.594   0.541  0.5939 -0.4657  0.2829
 4944TIP3    H136247   2.155   6.550   0.564  1.6772 -2.0125  1.4674
 4944TIP3    H236248   2.216   6.647   0.465 -1.8797  0.4250  1.4997
 4945TIP3   OH236249   0.588   2.420  15.573  0.2684 -0.4084  0.0001
 4945TIP3    H136250   0.495   2.396  15.566 -0.1778  1.5122 -1.5298
 4945TIP3    H236251   0.587   2.504  15.620  1.1077  0.2179 -1.0574
 4946TIP3   OH236252   4.006   5.932  15.442 -0.0697  0.4097  0.4541
 4946TIP3    H136253   3.986   5.839  15.454 -0.5643  0.5170  0.5047
 4946TIP3    H236254   3.994   5.947  15.348  0.3537  0.3456  0.3894
 4947TIP3   OH236255   5.276   1.207  14.434 -0.2811 -0.3890  0.2630
 4947TIP3    H136256   5.240   1.119  14.418  2.0785 -1.3565 -0.1814
 4947TIP3    H236257   5.338   1.221  14.362  0.6381  0.9135  1.2537
 4948TIP3   OH236258   1.492   2.456  15.781 -0.7565  0.0891 -0.4995
 4948TIP3    H136259   1.436   2.461  15.858 -1.2363  2.4223 -0.9271
 4948TIP3    H236260   1.552   2.530  15.789 -0.4982  0.0959 -2.1109
 4949TIP3   OH236261   2.715   2.891  15.204 -0.0853 -0.0892 -0.3253
 4949TIP3    H136262   2.752   2.975  15.233  0.3198 -0.2369 -0.4043
 4949TIP3    H236263   2.669   2.912  15.123 -0.4213  0.1530 -0.0689
 4950TIP3   OH236264   4.529   3.026   3.270  0.3941 -0.2857  0.1751
 4950TIP3    H136265   4.448   2.979   3.288 -0.5421  1.4836  0.8754
 4950TIP3    H236266   4.598   2.959   3.275 -1.0332 -1.8869 -0.7785
 4951TIP3   OH236267   6.116   6.668  11.374 -0.6068  0.8400  0.4587
 4951TIP3    H136268   6.070   6.747  11.402 -0.0653  1.0158  0.8645
 4951TIP3    H236269   6.116   6.611  11.451  1.6881  1.6931  1.1843
 4952TIP3   OH236270   2.663   4.521   2.102 -0.5034 -0.0013 -0.4410
 4952TIP3    H136271   2.638   4.601   2.150 -1.7066 -0.3904 -0.3822
 4952TIP3    H236272   2.709   4.553   2.025 -0.1125  0.7088  0.0648
 4953TIP3   OH236273   3.511   3.294   4.604  0.4996  0.4321  0.1585
 4953TIP3    H136274   3.464   3.363   4.558  0.4689  0.1821 -0.1886
 4953TIP3    H236275   3.491   3.309   4.696  1.8200  1.8636  0.2379
 4954TIP3   OH236276   3.808   6.347   4.909  0.0619 -0.4879 -0.8111
 4954TIP3    H136277   3.752   6.270   4.898  0.1657 -0.4711 -1.4681
 4954TIP3    H236278   3.882   6.332   4.851  1.2156 -0.9223  0.7034
 4955TIP3   OH236279   5.903   6.694   4.044  0.1782  0.1485 -0.1034
 4955TIP3    H136280   5.986   6.713   4.002  0.1033 -2.9091 -1.9041
 4955TIP3    H236281   5.853   6.646   3.978 -1.4955 -1.4659  2.1867
 4956TIP3   OH236282   1.199   1.890   0.588 -0.1070 -0.3972  0.4707
 4956TIP3    H136283   1.228   1.967   0.540 -0.6521  0.2973  1.2309
 4956TIP3    H236284   1.181   1.922   0.676 -1.3341 -1.1761  0.5312
 4957TIP3   OH236285   1.508   6.449   5.268  0.5282 -0.3076 -0.0869
 4957TIP3    H136286   1.493   6.356   5.287  0.5515 -0.0110  1.4991
 4957TIP3    H236287   1.590   6.470   5.314  0.0358  0.7179  0.3538
 4958TIP3   OH236288   1.602   6.628   0.818  0.6501  0.4312 -0.7319
 4958TIP3    H136289   1.653   6.548   0.832 -1.0071 -0.4732  0.5440
 4958TIP3    H236290   1.515   6.606   0.851 -0.3973  2.1371 -2.2101
 4959TIP3   OH236291   0.130   1.137  16.680  0.4369 -0.2042  0.5721
 4959TIP3    H136292   0.105   1.230  16.680 -0.4703 -0.3347 -2.5116
 4959TIP3    H236293   0.048   1.090  16.694  0.4305 -0.5275 -0.4508
 4960TIP3   OH236294   2.624   6.477   3.876  0.0956 -0.5906 -1.1141
 4960TIP3    H136295   2.600   6.534   3.949  0.3491 -1.1584 -0.5685
 4960TIP3    H236296   2.694   6.524   3.831 -0.3084 -0.0732 -1.2072
 4961TIP3   OH236297   5.900   3.068   0.866  0.0916 -0.7841  0.6202
 4961TIP3    H136298   5.846   3.146   0.875  0.6409 -0.4715  1.2256
 4961TIP3    H236299   5.880   3.015   0.943  3.0900  0.8578  2.7052
 4962TIP3   OH236300   2.390   2.896   0.651 -0.1516 -0.3024 -0.0065
 4962TIP3    H136301   2.481   2.869   0.662  0.6754  2.1728 -0.1179
 4962TIP3    H236302   2.341   2.814   0.647  1.7186 -1.7156  2.6495
 4963TIP3   OH236303   4.914   2.133  11.388  0.4633 -0.1379 -0.4731
 4963TIP3    H136304   4.998   2.162  11.425  2.1904  0.0777 -4.0851
 4963TIP3    H236305   4.939   2.074  11.316 -2.6489 -2.1853 -0.0474
 4964TIP3   OH236306   2.708   3.367  15.200  0.9313  0.1503  0.0125
 4964TIP3    H136307   2.700   3.296  15.263  1.2774  0.1644  0.0764
 4964TIP3    H236308   2.759   3.329  15.128  0.0471 -0.0399 -0.5271
 4965TIP3   OH236309   6.559   5.241  14.987 -0.1226  0.7037  0.4485
 4965TIP3    H136310   6.589   5.198  15.066 -0.0984  0.1458  0.1430
 4965TIP3    H236311   6.492   5.182  14.951 -0.4535  1.1627  0.2882
 4966TIP3   OH236312   5.953   1.078   2.278 -0.3953  0.5466 -0.2280
 4966TIP3    H136313   5.979   1.004   2.333 -0.9276  1.0981  0.8012
 4966TIP3    H236314   5.907   1.137   2.338 -0.8373  1.2551 -1.2391
 4967TIP3   OH236315   5.156   4.697   1.383 -0.4775 -0.0736 -0.3156
 4967TIP3    H136316   5.072   4.652   1.390 -0.7422  0.4839  0.1824
 4967TIP3    H236317   5.168   4.739   1.468  0.2073  0.0209 -0.4534
 4968TIP3   OH236318   1.590   6.040   6.258 -0.5199  0.0170 -0.1214
 4968TIP3    H136319   1.599   5.945   6.250 -2.5843 -0.2418  0.2199
 4968TIP3    H236320   1.506   6.060   6.218 -0.1905  1.6998 -0.0481
 4969TIP3   OH236321   3.199   2.151   1.639 -0.3537 -0.8636 -0.4737
 4969TIP3    H136322   3.157   2.228   1.601 -0.9281 -0.3029  1.2529
 4969TIP3    H236323   3.276   2.137   1.584 -0.3618  0.7888 -0.9601
 4970TIP3   OH236324   1.525   6.069  10.551  0.1171 -0.2367  0.2025
 4970TIP3    H136325   1.614   6.096  10.571  0.2006 -0.2540 -0.1301
 4970TIP3    H236326   1.518   6.079  10.456 -0.4082  0.2901  0.2905
 4971TIP3   OH236327   6.518   4.890  16.177 -0.0760  0.0860  0.2263
 4971TIP3    H136328   6.448   4.953  16.194 -0.3207 -0.0518 -0.2309
 4971TIP3    H236329   6.487   4.808  16.215 -0.6779 -0.2522 -0.9241
 4972TIP3   OH236330   4.270   5.638   2.233 -0.2762 -0.6247  0.1024
 4972TIP3    H136331   4.227   5.579   2.171 -0.4111 -0.2714 -0.1420
 4972TIP3    H236332   4.264   5.725   2.193  1.0818 -0.6268 -0.1487
 4973TIP3   OH236333   1.780   5.053   1.303 -0.6865 -0.0615  0.1912
 4973TIP3    H136334   1.698   5.037   1.349 -0.0219 -0.1252  1.3896
 4973TIP3    H236335   1.812   5.136   1.338 -0.7750  0.5324 -1.0833
 4974TIP3   OH236336   0.998   4.583   6.822 -0.2899  0.3385  0.2134
 4974TIP3    H136337   0.924   4.611   6.876 -1.1114 -0.6846 -0.3463
 4974TIP3    H236338   1.037   4.664   6.790 -0.8405  0.9024  0.9513
 4975TIP3   OH236339   0.111   6.324   4.173 -0.0079  0.0112  0.0995
 4975TIP3    H136340   0.187   6.268   4.189  0.9960  1.1248 -0.6008
 4975TIP3    H236341   0.140   6.385   4.105 -2.0999 -0.6369 -1.4774
 4976TIP3   OH236342   6.701   6.250   1.213 -0.7472 -0.3368  0.1771
 4976TIP3    H136343   6.661   6.232   1.128 -0.7719 -0.7147  0.2662
 4976TIP3    H236344   6.629   6.238   1.276 -0.3744 -1.6284  0.3986
 4977TIP3   OH236345   5.750   5.006   1.213 -0.1092 -0.3640  0.3124
 4977TIP3    H136346   5.661   5.008   1.250  0.2255  0.1223  1.1225
 4977TIP3    H236347   5.785   4.921   1.241  1.0996  1.0257  3.5646
 4978TIP3   OH236348   1.367   3.795  11.725 -0.5327 -0.4286  0.2208
 4978TIP3    H136349   1.306   3.727  11.696 -1.9050  0.3663  1.1179
 4978TIP3    H236350   1.311   3.867  11.753  0.8551  0.5948  0.4580
 4979TIP3   OH236351   2.454   0.488   2.919  0.2197 -0.0497  0.3247
 4979TIP3    H136352   2.380   0.465   2.863 -0.2509  1.0716  0.4586
 4979TIP3    H236353   2.449   0.583   2.927  1.4971  0.0057  0.5934
 4980TIP3   OH236354   4.402   4.694   0.930  0.0195  0.0704  0.3484
 4980TIP3    H136355   4.419   4.788   0.922  2.2239 -0.1109  2.0524
 4980TIP3    H236356   4.322   4.689   0.982 -1.6001  0.9389 -1.8825
 4981TIP3   OH236357   4.151   6.589   4.037 -0.3829 -0.0982 -0.2509
 4981TIP3    H136358   4.218   6.654   4.014  0.0072  0.4895  2.2622
 4981TIP3    H236359   4.096   6.584   3.959  1.0821  1.3162 -1.4697
 4982TIP3   OH236360   3.758   2.838   4.525 -0.3391 -0.2400  0.3825
 4982TIP3    H136361   3.738   2.929   4.547  0.3692  0.7646 -2.6806
 4982TIP3    H236362   3.844   2.841   4.484  0.1246 -2.4727  1.0702
 4983TIP3   OH236363   5.309   3.976   2.147  0.1468  0.2242 -0.7729
 4983TIP3    H136364   5.300   3.882   2.133 -0.7314  0.3689 -1.2246
 4983TIP3    H236365   5.315   3.985   2.243  0.5940 -0.3107 -0.7443
 4984TIP3   OH236366   5.334   4.554  12.059 -0.4548 -0.3452  0.1101
 4984TIP3    H136367   5.381   4.605  11.993 -1.2663 -0.5758 -0.6731
 4984TIP3    H236368   5.249   4.597  12.065 -0.9261 -1.2261 -0.1094
 4985TIP3   OH236369   2.958   2.821   1.064  0.1733 -0.2802  0.1455
 4985TIP3    H136370   2.930   2.762   1.133  0.3400 -1.0460 -0.4321
 4985TIP3    H236371   2.971   2.765   0.988 -0.2193  0.5845 -0.5722
 4986TIP3   OH236372   6.238   1.381   2.901  0.1801 -0.0055  0.1325
 4986TIP3    H136373   6.232   1.366   2.995  0.6992  0.7435  0.2856
 4986TIP3    H236374   6.237   1.476   2.891 -2.1559 -0.0707 -0.7768
 4987TIP3   OH236375   5.139   6.198   3.692  0.4196 -0.2461  0.1871
 4987TIP3    H136376   5.223   6.155   3.709  0.5400 -0.3102 -0.5164
 4987TIP3    H236377   5.100   6.147   3.621 -1.4094 -1.7840  2.1672
 4988TIP3   OH236378   5.761   5.436   5.378 -0.0246 -0.8976  0.1699
 4988TIP3    H136379   5.854   5.449   5.398  0.3015 -2.9476  0.1785
 4988TIP3    H236380   5.756   5.444   5.283  0.1506 -0.6878  0.1782
 4989TIP3   OH236381   0.527   5.391   4.147  0.1907 -0.4995 -0.6298
 4989TIP3    H136382   0.520   5.297   4.161 -0.6030 -0.2781  0.5912
 4989TIP3    H236383   0.437   5.422   4.141  0.4480  0.0346 -2.3248
 4990TIP3   OH236384   4.695   2.780   0.683 -0.1012  0.5205 -1.0717
 4990TIP3    H136385   4.724   2.714   0.746  0.4493 -1.2644 -3.0747
 4990TIP3    H236386   4.657   2.850   0.736 -0.0274 -1.0706  1.1849
 4991TIP3   OH236387   6.685   1.188   1.017 -1.1012 -0.2151  0.0400
 4991TIP3    H136388   6.656   1.126   0.949  0.7840  0.7974 -1.8000
 4991TIP3    H236389   6.674   1.140   1.099 -1.1021 -2.4533 -1.1888
 4992TIP3   OH236390   1.585   3.245  16.448 -0.2364  0.2951  0.2449
 4992TIP3    H136391   1.609   3.275  16.536 -1.1240  0.3513  0.4749
 4992TIP3    H236392   1.510   3.188  16.461 -0.5202  0.4818 -0.4956
 4993TIP3   OH236393   3.698   1.509  11.303  0.1944 -0.2760  0.9965
 4993TIP3    H136394   3.710   1.576  11.236 -1.4427 -0.0100  0.9463
 4993TIP3    H236395   3.712   1.426  11.256 -1.8609 -0.1401  0.0485
 4994TIP3   OH236396   2.284   4.188  16.608  0.2294  0.0091 -0.2193
 4994TIP3    H136397   2.207   4.169  16.661  0.3027  1.6254  0.5422
 4994TIP3    H236398   2.328   4.259  16.655  1.1839  0.3717 -1.5947
 4995TIP3   OH236399   0.071   1.289   5.936 -0.2872  0.1573  0.2478
 4995TIP3    H136400   0.148   1.234   5.952 -0.2462  0.1900  0.1607
 4995TIP3    H236401   0.106   1.373   5.908 -0.3727 -0.3595 -1.5340
 4996TIP3   OH236402   2.966   1.051  13.441  0.4302 -0.5807 -0.2543
 4996TIP3    H136403   2.965   1.070  13.347  0.5066 -1.1030 -0.3649
 4996TIP3    H236404   3.038   1.103  13.475  0.8703 -0.9524 -0.6106
 4997TIP3   OH236405   6.158   3.673  12.965 -1.0513  0.1192  0.3204
 4997TIP3    H136406   6.093   3.735  13.000 -2.3182 -0.8158 -0.2908
 4997TIP3    H236407   6.206   3.722  12.899 -3.5873 -0.0975 -1.8440
 4998TIP3   OH236408   4.836   1.771  13.997  0.0156 -0.2675  0.1438
 4998TIP3    H136409   4.818   1.751  14.089  1.0493 -0.5996  0.2832
 4998TIP3    H236410   4.784   1.707  13.948  0.1605 -0.6697  0.5124
 4999TIP3   OH236411   4.549   2.333  10.773  0.2090  0.3318  0.6558
 4999TIP3    H136412   4.644   2.325  10.759 -0.1098 -1.7226 -0.6609
 4999TIP3    H236413   4.516   2.371  10.692 -0.1547  0.8334  1.0306
 5000TIP3   OH236414   3.715   1.256   1.564 -0.3381  0.9002 -0.2959
 5000TIP3    H136415   3.648   1.236   1.629  0.1799  1.2843  0.3694
 5000TIP3    H236416   3.766   1.176   1.557  0.1916  1.1592  0.4927
 5001TIP3   OH236417   5.096   4.249   5.165  0.4425  0.4290  0.2432
 5001TIP3    H136418   5.190   4.267   5.157  0.6645 -0.5823  0.3701
 5001TIP3    H236419   5.092   4.156   5.188 -0.6015  0.3801 -0.0871
 5002TIP3   OH236420   4.959   5.608   3.633  0.2010  0.2185  0.2639
 5002TIP3    H136421   5.054   5.614   3.648  0.0340 -1.0873  2.1874
 5002TIP3    H236422   4.938   5.686   3.582  2.4112  0.1829 -0.8066
 5003TIP3   OH236423   2.662   4.354  16.502 -0.2542 -0.0999 -0.3209
 5003TIP3    H136424   2.632   4.264  16.518 -1.1114  0.4055  1.1689
 5003TIP3    H236425   2.701   4.381  16.586  1.7064  0.3086 -1.3039
 5004TIP3   OH236426   6.361   4.471   2.044 -0.2264  0.1601  0.6368
 5004TIP3    H136427   6.318   4.386   2.056 -0.9399  0.6931  2.0161
 5004TIP3    H236428   6.435   4.469   2.105  2.1122 -0.9282 -2.0194
 5005TIP3   OH236429   5.554   3.001   4.022  0.4926 -0.3663  0.0438
 5005TIP3    H136430   5.573   3.043   4.105  1.2694  0.9042 -0.7460
 5005TIP3    H236431   5.626   3.025   3.965 -0.3618 -0.6408 -1.2076
 5006TIP3   OH236432   5.023   4.781   4.920 -0.5584 -0.1292 -0.1199
 5006TIP3    H136433   5.041   4.704   4.973  0.3344 -0.4872 -0.9181
 5006TIP3    H236434   5.047   4.855   4.976  0.1449 -0.4924  0.0663
 5007TIP3   OH236435   2.072   0.654  15.445  0.1128  1.3051  0.7026
 5007TIP3    H136436   2.119   0.615  15.372 -1.0809  1.2880 -0.0916
 5007TIP3    H236437   2.075   0.748  15.427 -1.2770  1.2301 -0.1083
 5008TIP3   OH236438   5.706   2.484   3.459 -0.1559 -0.5650  0.2357
 5008TIP3    H136439   5.696   2.579   3.455 -1.3977 -0.6917 -0.0947
 5008TIP3    H236440   5.786   2.470   3.509  0.9559  0.6878 -1.0853
 5009TIP3   OH236441   0.914   4.397   4.673  0.0843  0.3234  0.0990
 5009TIP3    H136442   0.927   4.449   4.594  0.6245 -1.5622 -1.1148
 5009TIP3    H236443   0.898   4.308   4.641  0.2119 -0.4784  2.1119
 5010TIP3   OH236444   2.283   5.705  15.038  0.4989  0.5874 -0.1365
 5010TIP3    H136445   2.232   5.786  15.052 -0.6186 -0.0474 -0.3875
 5010TIP3    H236446   2.365   5.735  15.000  0.7144  1.7336  1.1559
 5011TIP3   OH236447   5.761   6.150   1.503 -0.1103 -0.0351  0.4951
 5011TIP3    H136448   5.684   6.208   1.500  0.3498  0.5644  0.1607
 5011TIP3    H236449   5.835   6.209   1.514  0.5015 -0.4470 -1.1802
 5012TIP3   OH236450   2.428   6.024   2.685  0.1885 -0.1913 -0.0515
 5012TIP3    H136451   2.376   6.059   2.613  1.1203  1.2227 -0.0928
 5012TIP3    H236452   2.389   5.939   2.705  0.1541 -0.8234 -2.4927
 5013TIP3   OH236453   6.172   6.150  16.485 -0.1863  0.2108  0.0078
 5013TIP3    H136454   6.168   6.162  16.580  0.6309  0.6246  0.0047
 5013TIP3    H236455   6.081   6.139  16.458 -0.4629  0.4782  0.7949
 5014TIP3   OH236456   3.036   6.766   3.645 -0.1093  0.3500  0.1302
 5014TIP3    H136457   3.031   6.847   3.595  0.8994  0.1386 -0.3285
 5014TIP3    H236458   3.124   6.767   3.684  1.0470 -1.8202 -2.1747
 5015TIP3   OH236459   3.892   4.544   3.284  0.5782 -0.8657 -0.6935
 5015TIP3    H136460   3.977   4.503   3.295  0.3843 -1.3635 -1.0280
 5015TIP3    H236461   3.829   4.472   3.282  0.1080 -0.4810 -0.0899
 5016TIP3   OH236462   1.718   0.193  14.198 -0.0946 -0.5175 -0.7035
 5016TIP3    H136463   1.726   0.249  14.276 -1.7054 -2.1903  0.7663
 5016TIP3    H236464   1.624   0.188  14.182  0.0330 -2.4683 -1.0156
 5017TIP3   OH236465   2.087   5.473   5.631  0.1834  0.1786  0.0827
 5017TIP3    H136466   2.068   5.431   5.715 -0.7448 -0.4490 -0.4268
 5017TIP3    H236467   2.173   5.439   5.606 -0.2918 -0.9637 -0.0328
 5018TIP3   OH236468   3.368   2.097  11.708  0.0560  0.0425 -0.3482
 5018TIP3    H136469   3.400   2.030  11.768  0.1676 -0.2825 -0.7646
 5018TIP3    H236470   3.291   2.057  11.667  0.5928 -0.1561 -1.1954
 5019TIP3   OH236471   5.590   0.490  16.969  0.7412 -0.1534 -0.3864
 5019TIP3    H136472   5.499   0.494  16.940  0.3634  3.5092  0.6883
 5019TIP3    H236473   5.641   0.516  16.892  0.6049  0.2479 -0.3475
 5020TIP3   OH236474   3.614   4.697   2.219 -0.3647  0.2255 -0.8177
 5020TIP3    H136475   3.624   4.651   2.135 -1.0163  0.4410 -1.0275
 5020TIP3    H236476   3.685   4.760   2.221 -0.3118  0.1795 -1.1885
 5021TIP3   OH236477   5.301   5.092   5.135 -0.2358  0.1850  0.5062
 5021TIP3    H136478   5.277   5.135   5.217 -1.4530  1.6125 -0.5428
 5021TIP3    H236479   5.228   5.034   5.115  1.4698 -2.6974  1.9942
 5022TIP3   OH236480   3.392   1.402  12.438 -0.6362  0.0622 -0.0586
 5022TIP3    H136481   3.355   1.385  12.352  0.0521  0.4392 -0.4282
 5022TIP3    H236482   3.325   1.454  12.483 -0.7724  0.3030 -0.5374
 5023TIP3   OH236483   6.253   6.584   1.479  0.5599 -0.7669 -0.0460
 5023TIP3    H136484   6.243   6.678   1.495  1.2270 -0.8633  0.9756
 5023TIP3    H236485   6.317   6.580   1.407  0.7146 -0.4483  0.0689
 5024TIP3   OH236486   1.214   4.712   5.303 -0.4430 -0.3547  0.2802
 5024TIP3    H136487   1.236   4.796   5.342 -1.5204 -0.1055  0.3920
 5024TIP3    H236488   1.266   4.648   5.351 -0.4923  0.1276  0.9852
 5025TIP3   OH236489   4.633   5.962   0.080  0.4558  0.1123 -0.5299
 5025TIP3    H136490   4.693   6.037   0.072 -0.6435  1.1142  0.2910
 5025TIP3    H236491   4.646   5.913  -0.001  1.6328  0.8688 -0.8257
 5026TIP3   OH236492   4.389   0.680  15.650  0.2235 -0.3724 -0.5481
 5026TIP3    H136493   4.392   0.722  15.564 -0.1254  1.7332  0.4050
 5026TIP3    H236494   4.424   0.592  15.635  2.1751  0.6389 -2.4158
 5027TIP3   OH236495   2.331   6.269  15.624  0.5922  0.4229 -0.3884
 5027TIP3    H136496   2.399   6.334  15.644 -0.1929  0.9224  0.7724
 5027TIP3    H236497   2.377   6.185  15.626  1.1060  0.7025  0.9197
 5028TIP3   OH236498   6.671   6.406  14.034  0.2111  0.4273 -0.3471
 5028TIP3    H136499   6.724   6.353  13.974  0.8741 -1.5968  1.8271
 5028TIP3    H236500   6.735   6.458  14.083 -0.2219  1.2569 -0.6419
 5029TIP3   OH236501   5.482   4.270  15.528 -0.2009 -0.0170  0.2466
 5029TIP3    H136502   5.524   4.257  15.443 -0.7140  1.2230 -0.2163
 5029TIP3    H236503   5.396   4.229  15.519  0.2161 -1.0044  0.6093
 5030TIP3   OH236504   0.622   5.113  15.516  0.1929 -0.3457 -0.0198
 5030TIP3    H136505   0.657   5.191  15.558  0.0731 -0.7051  0.7537
 5030TIP3    H236506   0.650   5.040  15.572  4.0775 -1.4363 -2.8496
 5031TIP3   OH236507   6.372   6.757   6.356  0.0363  0.4679 -0.0038
 5031TIP3    H136508   6.457   6.798   6.371  0.5024 -0.2898 -0.5085
 5031TIP3    H236509   6.371   6.681   6.414 -0.3729  0.5744  0.1319
 5032TIP3   OH236510   6.443   4.682  16.306  0.1439 -0.3174  0.7230
 5032TIP3    H136511   6.480   4.638  16.383  0.2683  0.3606  1.0592
 5032TIP3    H236512   6.348   4.673  16.316  0.0983  1.1152  1.7821
 5033TIP3   OH236513   2.487   2.750   0.409 -0.0880 -0.5483 -0.1018
 5033TIP3    H136514   2.549   2.769   0.338  1.2368 -0.8257  0.9378
 5033TIP3    H236515   2.462   2.836   0.443  0.7771 -0.4569  0.3279
 5034TIP3   OH236516   0.361   3.838  14.307  0.1060  0.2600 -0.0714
 5034TIP3    H136517   0.346   3.895  14.382  1.2012 -1.2846  1.3957
 5034TIP3    H236518   0.409   3.892  14.244  0.3009  1.2161  0.8841
 5035TIP3   OH236519   3.867   4.122   1.119 -0.4219 -0.3011 -0.2010
 5035TIP3    H136520   3.833   4.211   1.116  1.3118  0.4313  0.1354
 5035TIP3    H236521   3.811   4.072   1.060 -1.9731  0.7945  0.2786
 5036TIP3   OH236522   2.164   5.004   5.455 -0.2860  0.4979  0.4012
 5036TIP3    H136523   2.103   4.952   5.506 -1.7571  2.8633  1.2327
 5036TIP3    H236524   2.236   5.022   5.515  1.6846 -2.7286 -0.7360
 5037TIP3   OH236525   6.509   1.798  11.221  0.0841  0.3063 -0.9895
 5037TIP3    H136526   6.444   1.729  11.207 -0.6214  1.3485 -3.2688
 5037TIP3    H236527   6.458   1.879  11.226  1.0438  0.8938 -0.2523
 5038TIP3   OH236528   1.069   4.329  12.739  0.3909 -0.4594 -0.6400
 5038TIP3    H136529   1.139   4.263  12.736  0.3398 -0.4889 -1.7509
 5038TIP3    H236530   1.001   4.290  12.793  1.0612 -0.6064  0.1107
 5039TIP3   OH236531   6.071   2.282  11.469 -0.3249 -0.0842  0.0748
 5039TIP3    H136532   6.092   2.318  11.555  2.7191 -0.8168 -0.2438
 5039TIP3    H236533   6.129   2.328  11.408 -1.5076 -0.4636 -1.4258
 5040TIP3   OH236534   1.115   5.073  15.703  0.3554  0.6145 -0.1898
 5040TIP3    H136535   1.091   5.139  15.767 -1.1537  1.2964 -1.3896
 5040TIP3    H236536   1.085   4.990  15.741 -0.2325  0.9684  0.1262
 5041TIP3   OH236537   2.314   4.389  12.463  0.0070 -0.2799 -0.0796
 5041TIP3    H136538   2.335   4.330  12.535  0.7044  0.0311 -0.0255
 5041TIP3    H236539   2.224   4.418  12.481 -0.3529 -1.3309 -0.1176
 5042TIP3   OH236540   4.421   2.455   4.348 -0.5028  0.0003 -0.0980
 5042TIP3    H136541   4.397   2.547   4.343  1.1937  0.5069  0.5947
 5042TIP3    H236542   4.408   2.432   4.440 -0.6918 -0.3946 -0.2202
 5043TIP3   OH236543   0.941   1.027   2.182 -0.1146  0.1497 -0.4720
 5043TIP3    H136544   0.915   1.111   2.219 -0.5392 -0.2486  0.1575
 5043TIP3    H236545   0.860   0.976   2.178  0.1191 -0.1909 -0.9485
 5044TIP3   OH236546   1.876   5.613   4.248 -0.4001 -0.2642  0.0421
 5044TIP3    H136547   1.852   5.691   4.298 -2.7476  0.1251 -1.5657
 5044TIP3    H236548   1.889   5.644   4.158  1.2679 -1.3508 -0.1461
 5045TIP3   OH236549   5.017   0.951   4.398 -0.4635 -0.7398 -0.1580
 5045TIP3    H136550   4.951   0.911   4.455 -1.1259 -1.0903 -1.1442
 5045TIP3    H236551   4.969   1.017   4.348  0.3717  0.4503  0.5732
 5046TIP3   OH236552   2.636   3.593   1.900 -0.7065 -0.7403  0.0927
 5046TIP3    H136553   2.674   3.570   1.985  0.2608  0.8243  0.1411
 5046TIP3    H236554   2.679   3.676   1.877 -3.2317  0.5132 -0.4442
 5047TIP3   OH236555   6.411   2.139   2.082  0.1433  0.0152  0.0038
 5047TIP3    H136556   6.357   2.216   2.069  0.1122 -0.1037 -0.6297
 5047TIP3    H236557   6.352   2.073   2.117 -0.2180 -0.2237 -1.0159
 5048TIP3   OH236558   5.325   1.558   1.873 -0.0327 -0.0077 -0.5365
 5048TIP3    H136559   5.342   1.465   1.862 -0.5921 -0.3475  1.1146
 5048TIP3    H236560   5.388   1.587   1.939  0.0337  0.7523 -0.9173
 5049TIP3   OH236561   1.777   3.217   1.753 -0.2960 -0.8853  0.0761
 5049TIP3    H136562   1.869   3.199   1.774 -0.6938 -1.3114  1.5794
 5049TIP3    H236563   1.730   3.139   1.782 -1.2986 -0.0900  0.6356
 5050TIP3   OH236564   1.882   5.208  11.782  0.0544 -0.0077 -0.2569
 5050TIP3    H136565   1.889   5.304  11.784 -1.4094  0.1200 -0.3689
 5050TIP3    H236566   1.892   5.185  11.689  1.3870 -0.0654 -0.1137
 5051TIP3   OH236567   6.326   4.814   1.593  0.1239  0.1140 -0.2959
 5051TIP3    H136568   6.356   4.825   1.683  0.2712 -0.2511 -0.3022
 5051TIP3    H236569   6.245   4.865   1.589 -1.6673 -2.4011  0.9462
 5052TIP3   OH236570   2.966   3.912   1.129 -0.4548  0.1145 -0.2235
 5052TIP3    H136571   2.903   3.976   1.162  1.8863  2.1573  0.5579
 5052TIP3    H236572   3.041   3.964   1.101  1.2466 -2.2373 -0.3367
 5053TIP3   OH236573   3.035   2.502   0.394  0.7650  0.0981 -0.4576
 5053TIP3    H136574   3.015   2.595   0.382  3.5235  0.8258 -0.0908
 5053TIP3    H236575   3.006   2.460   0.313 -0.9371  1.1571 -0.4396
 5054TIP3   OH236576   4.436   6.531  12.303  0.3676 -1.1729 -0.2715
 5054TIP3    H136577   4.405   6.611  12.344  0.0571 -0.6543 -1.4799
 5054TIP3    H236578   4.358   6.494  12.261  0.9142 -1.0209 -1.4529
 5055TIP3   OH236579   3.759   6.772   2.502  0.4651 -0.3204 -0.2841
 5055TIP3    H136580   3.754   6.717   2.424  0.8879 -1.2712  0.3379
 5055TIP3    H236581   3.752   6.710   2.575  1.6209  0.3740  0.4408
 5056TIP3   OH236582   3.008   4.788  13.695  0.3076 -0.0191  0.2488
 5056TIP3    H136583   3.028   4.696  13.709  0.5010  0.0133  0.1830
 5056TIP3    H236584   3.091   4.834  13.706  0.0054  0.2820  1.4467
 5057TIP3   OH236585   3.892   4.619   0.125  0.1193 -0.4212  0.0047
 5057TIP3    H136586   3.803   4.649   0.107 -1.1555 -2.7571  1.8009
 5057TIP3    H236587   3.935   4.619   0.040 -0.8598  2.7248 -0.6210
 5058TIP3   OH236588   6.306   1.163  14.801 -0.1695 -0.5420  0.2413
 5058TIP3    H136589   6.217   1.187  14.774 -0.4190 -2.1503 -0.5321
 5058TIP3    H236590   6.295   1.128  14.889 -0.3181 -0.7004  0.1631
 5059TIP3   OH236591   1.184   5.292  14.191  0.5599  0.1139  0.3637
 5059TIP3    H136592   1.171   5.376  14.148 -0.5085 -0.5630 -0.6813
 5059TIP3    H236593   1.239   5.242  14.132 -1.9452 -1.2840 -0.9664
 5060TIP3   OH236594   0.170   6.557   0.847 -0.4761  0.7567  0.5410
 5060TIP3    H136595   0.110   6.629   0.826 -0.1024  0.4184 -2.0353
 5060TIP3    H236596   0.114   6.480   0.848 -0.1074  0.2969 -2.8389
 5061TIP3   OH236597   1.529   0.315  17.091 -0.0746  0.2355  0.3528
 5061TIP3    H136598   1.574   0.399  17.077  0.2459 -0.1499 -1.2146
 5061TIP3    H236599   1.442   0.328  17.054 -0.1567  0.0098  0.4684
 5062TIP3   OH236600   3.191   1.283   2.042  0.1025 -0.0651 -0.4481
 5062TIP3    H136601   3.287   1.287   2.049 -0.0037  1.1402  0.7202
 5062TIP3    H236602   3.169   1.199   2.083  0.6868 -0.6562 -1.3034
 5063TIP3   OH236603   4.515   5.476   5.412 -0.1342  0.5283  0.0826
 5063TIP3    H136604   4.576   5.424   5.361  0.6430  2.4514 -1.0487
 5063TIP3    H236605   4.553   5.479   5.500  1.1402  1.2196 -0.4648
 5064TIP3   OH236606   3.462   4.503  15.454  0.3933 -0.2026  0.6518
 5064TIP3    H136607   3.440   4.443  15.383 -0.1576  0.4600  0.2547
 5064TIP3    H236608   3.544   4.543  15.426 -0.9211  1.6998 -0.7122
 5065TIP3   OH236609   3.851   0.282   1.018  0.6261  0.1607 -0.1063
 5065TIP3    H136610   3.781   0.315   1.075  0.4848  0.0392 -0.2105
 5065TIP3    H236611   3.912   0.239   1.078 -0.3019 -1.3414 -0.2093
 5066TIP3   OH236612   5.759   4.381   5.554 -0.6206  0.3919  0.0792
 5066TIP3    H136613   5.808   4.300   5.564 -0.1308  0.7802  0.9631
 5066TIP3    H236614   5.690   4.376   5.621 -0.1886  0.9788  0.5847
 5067TIP3   OH236615   6.401   4.838  12.555 -0.6358  0.1727 -0.1523
 5067TIP3    H136616   6.335   4.777  12.522 -0.0866 -0.2411 -0.5044
 5067TIP3    H236617   6.451   4.787  12.619 -0.2666  0.2919 -0.3441
 5068TIP3   OH236618   4.849   1.522  13.540 -0.2582 -0.4355  0.1482
 5068TIP3    H136619   4.769   1.538  13.490  0.5008  0.8094 -0.7206
 5068TIP3    H236620   4.891   1.449  13.495 -0.9324 -1.1555  0.6650
 5069TIP3   OH236621   4.933   4.251   5.800  0.0342  0.1532 -0.9856
 5069TIP3    H136622   4.914   4.309   5.874  1.2026 -1.8598  1.0168
 5069TIP3    H236623   4.847   4.233   5.761 -0.9774 -0.5988  1.3953
 5070TIP3   OH236624   4.042   3.150  16.050 -0.0675 -0.8153  0.3354
 5070TIP3    H136625   4.090   3.071  16.077 -0.5515 -1.3891 -0.4366
 5070TIP3    H236626   4.105   3.201  15.999 -0.6910 -2.4224 -2.2475
 5071TIP3   OH236627   2.959   1.995  11.400 -0.5535  0.6085 -0.9711
 5071TIP3    H136628   2.934   2.032  11.484 -2.5989 -0.5580 -0.9963
 5071TIP3    H236629   2.898   2.034  11.337 -1.0036 -0.7314 -1.4079
 5072TIP3   OH236630   1.056   2.409  13.242 -0.2137 -0.1743  0.1294
 5072TIP3    H136631   1.090   2.326  13.275 -0.8758  0.1286  1.6290
 5072TIP3    H236632   1.108   2.476  13.286  0.8664  0.2483 -1.6723
 5073TIP3   OH236633   2.473   5.942  16.948 -0.1201  0.4993 -0.1548
 5073TIP3    H136634   2.395   5.988  16.917 -1.9065 -0.9464  1.9113
 5073TIP3    H236635   2.490   5.978  17.035  1.7532  0.9732 -0.6524
 5074TIP3   OH236636   4.044   4.618   3.829  0.1175 -0.1017 -0.8473
 5074TIP3    H136637   3.986   4.597   3.756  0.1176  0.5546 -1.0448
 5074TIP3    H236638   4.020   4.707   3.854  1.0720  0.2043 -0.9719
 5075TIP3   OH236639   1.686   5.390  15.793 -0.1370  0.2753  0.1944
 5075TIP3    H136640   1.706   5.409  15.884  0.0993 -1.9108  0.6530
 5075TIP3    H236641   1.733   5.458  15.743  0.5780  0.8867  1.6430
 5076TIP3   OH236642   3.988   1.926   3.427 -0.2164  0.6167 -0.7358
 5076TIP3    H136643   3.939   1.878   3.493 -1.7582  1.3797 -1.2655
 5076TIP3    H236644   4.068   1.953   3.471  0.5820 -2.1410 -0.3525
 5077TIP3   OH236645   6.636   5.782  12.627  0.3043 -0.6846 -0.2661
 5077TIP3    H136646   6.651   5.715  12.693  2.0470  0.6736  0.8298
 5077TIP3    H236647   6.683   5.859  12.661 -0.2007  0.5712 -2.2657
 5078TIP3   OH236648   1.453   4.862  15.113 -0.0162  0.1716 -0.3513
 5078TIP3    H136649   1.405   4.944  15.125  2.3046  1.6305 -0.3685
 5078TIP3    H236650   1.415   4.803  15.178 -1.3452  1.4554  0.1056
 5079TIP3   OH236651   1.300   0.459   1.242  0.0652 -0.1229  0.7709
 5079TIP3    H136652   1.371   0.488   1.185 -0.8286 -1.6169 -1.2094
 5079TIP3    H236653   1.259   0.540   1.271  1.7091  0.7322  0.8805
 5080TIP3   OH236654   2.530   3.903  10.207 -0.8700  0.9303  0.8696
 5080TIP3    H136655   2.541   3.924  10.300 -3.5422 -0.3206  1.5420
 5080TIP3    H236656   2.545   3.809  10.201  0.2022  1.1464 -0.1639
 5081TIP3   OH236657   3.491   1.893  13.056  0.3239 -0.1342 -0.0792
 5081TIP3    H136658   3.423   1.950  13.021  0.2706 -0.4235 -0.4519
 5081TIP3    H236659   3.547   1.952  13.108  0.6411  0.3748 -0.9829
 5082TIP3   OH236660   1.689   1.068   1.970  0.0581 -0.2211 -0.3152
 5082TIP3    H136661   1.669   1.117   2.050 -1.1692 -0.4686 -0.4541
 5082TIP3    H236662   1.778   1.093   1.948 -0.1520  1.0767  0.2449
 5083TIP3   OH236663   0.762   2.400  15.014 -0.2314 -0.4811 -0.4414
 5083TIP3    H136664   0.796   2.486  14.988  0.8292  0.7177  3.9894
 5083TIP3    H236665   0.669   2.403  14.994  0.2658  0.4472 -3.0151
 5084TIP3   OH236666   2.826   5.144   2.814 -0.0296  0.2172  0.0266
 5084TIP3    H136667   2.859   5.200   2.885  1.4121 -0.6857  0.1040
 5084TIP3    H236668   2.774   5.203   2.760  0.4181  1.3561  0.7888
 5085TIP3   OH236669   6.363   4.862   3.745  0.5975 -0.1335  0.0824
 5085TIP3    H136670   6.285   4.843   3.693  1.0061  0.9188 -0.9426
 5085TIP3    H236671   6.329   4.902   3.825 -0.0672 -2.1949  0.9089
 5086TIP3   OH236672   6.312   0.603   4.075 -0.3903 -0.1306  0.5405
 5086TIP3    H136673   6.331   0.521   4.030  0.6721 -0.5041  1.6368
 5086TIP3    H236674   6.322   0.670   4.007 -0.2633 -0.8097 -0.1199
 5087TIP3   OH236675   0.708   4.291   3.856 -0.2167 -0.1511  0.2815
 5087TIP3    H136676   0.739   4.370   3.901 -1.9954  0.0547  1.2201
 5087TIP3    H236677   0.777   4.226   3.872  1.7178  1.3932 -1.2634
 5088TIP3   OH236678   4.185   0.915  10.941  0.6875 -0.7612  0.7447
 5088TIP3    H136679   4.100   0.911  10.897  0.0396 -2.0974  2.0345
 5088TIP3    H236680   4.238   0.973  10.886 -0.6491 -0.9170 -0.7761
 5089TIP3   OH236681   5.379   1.128   6.218 -0.8057 -0.5837 -0.1739
 5089TIP3    H136682   5.382   1.169   6.131  1.7092 -1.2111 -0.4353
 5089TIP3    H236683   5.433   1.050   6.210  0.8653  0.1949  2.3615
 5090TIP3   OH236684   0.886   0.334   0.809  0.5219 -0.0355  0.5349
 5090TIP3    H136685   0.917   0.332   0.900  1.0545  0.6513  0.3746
 5090TIP3    H236686   0.898   0.244   0.778  1.2288 -0.0658  0.8608
 5091TIP3   OH236687   6.190   3.792  16.318 -0.0537  0.2550 -0.2123
 5091TIP3    H136688   6.268   3.737  16.327  0.1240  0.5097 -0.1914
 5091TIP3    H236689   6.143   3.781  16.401 -0.3903 -0.4367 -0.4905
 5092TIP3   OH236690   5.398   2.978  13.198  0.4045 -0.1123 -0.2507
 5092TIP3    H136691   5.395   2.888  13.232  0.1343  0.4961  1.4499
 5092TIP3    H236692   5.490   2.995  13.183  0.5235 -0.4556  0.0658
 5093TIP3   OH236693   3.513   4.165  12.084  0.1892 -0.5679 -0.0275
 5093TIP3    H136694   3.526   4.152  11.990 -0.5131 -0.2030 -0.1817
 5093TIP3    H236695   3.601   4.165  12.120  0.4247 -1.8368 -0.5337
 5094TIP3   OH236696   3.770   2.079   1.148  0.2301 -0.0399 -0.5032
 5094TIP3    H136697   3.676   2.069   1.162  0.3742 -0.6256  0.0933
 5094TIP3    H236698   3.804   2.110   1.231  0.8038 -1.5344 -0.1433
 5095TIP3   OH236699   4.405   4.173   5.236  0.2652  0.0839 -0.0396
 5095TIP3    H136700   4.477   4.135   5.186  2.6031  3.8586  0.0204
 5095TIP3    H236701   4.347   4.212   5.170 -0.4812 -0.9146  0.0069
 5096TIP3   OH236702   0.265   6.324   2.119 -0.2927 -1.0252 -0.0883
 5096TIP3    H136703   0.265   6.267   2.196 -0.1739 -1.1440 -0.1739
 5096TIP3    H236704   0.265   6.413   2.154 -0.3281 -1.0795  0.0481
 5097TIP3   OH236705   0.698   0.006   0.653  0.3299 -0.2353 -0.0786
 5097TIP3    H136706   0.645  -0.074   0.648 -1.1079  0.7829 -2.4768
 5097TIP3    H236707   0.653   0.069   0.598  3.6464  0.9666 -1.6851
 5098TIP3   OH236708   3.666   1.329  14.709  0.4557  0.1477  0.2999
 5098TIP3    H136709   3.701   1.317  14.621  0.2115 -1.4263  0.3867
 5098TIP3    H236710   3.731   1.383  14.753  1.4932 -0.5715 -0.3073
 5099TIP3   OH236711   6.251   3.962   0.556 -0.3907 -0.7773 -0.4460
 5099TIP3    H136712   6.249   3.979   0.461  1.2845 -0.5044 -0.4622
 5099TIP3    H236713   6.200   4.033   0.594 -3.0183 -2.1046 -1.2451
 5100TIP3   OH236714   0.115   3.902  12.899  0.4880  0.0874 -0.2083
 5100TIP3    H136715   0.158   3.987  12.910 -0.2192  0.4754 -0.3689
 5100TIP3    H236716   0.050   3.898  12.969 -0.5745  0.3887 -1.1386
 5101TIP3   OH236717   0.023   5.477   4.674 -0.0140  0.2919  0.0551
 5101TIP3    H136718  -0.000   5.557   4.721  0.3854  0.4418  0.0076
 5101TIP3    H236719   0.059   5.419   4.741  0.7684  0.5908 -0.0848
 5102TIP3   OH236720   3.539   4.442  16.468  0.7207  0.0907  0.6728
 5102TIP3    H136721   3.618   4.402  16.433  1.2655 -0.0461  2.0077
 5102TIP3    H236722   3.567   4.527  16.500  0.4760 -0.2274  1.7671
 5103TIP3   OH236723   4.245   1.112   4.604 -0.2996  0.1494  0.2233
 5103TIP3    H136724   4.166   1.139   4.556 -0.6146 -1.1309 -0.0115
 5103TIP3    H236725   4.315   1.164   4.566 -1.0564  1.5354  0.6335
 5104TIP3   OH236726   3.227   0.482   4.567 -0.6603  0.9553 -0.0954
 5104TIP3    H136727   3.320   0.464   4.581 -0.4328  1.8993 -0.3368
 5104TIP3    H236728   3.182   0.419   4.623  0.0711 -1.0224 -1.5926
 5105TIP3   OH236729   3.977   3.034   0.308 -0.6790 -0.3111  0.6933
 5105TIP3    H136730   4.016   3.078   0.232  1.5309 -0.4565  1.6692
 5105TIP3    H236731   3.889   3.070   0.314 -0.4806  0.6255 -1.1975
 5106TIP3   OH236732   3.173   2.707   3.395 -0.3324 -0.0655  0.2953
 5106TIP3    H136733   3.202   2.757   3.318 -0.2677 -0.7360 -0.1274
 5106TIP3    H236734   3.250   2.705   3.452 -0.7047  1.3671  0.8924
 5107TIP3   OH236735   4.528   0.776  16.227 -0.2305 -0.1367 -0.0482
 5107TIP3    H136736   4.534   0.686  16.261 -0.7155 -0.3045 -0.3980
 5107TIP3    H236737   4.550   0.767  16.134  0.0060  0.1565 -0.0220
 5108TIP3   OH236738   0.946   1.333  16.978 -0.0671  0.1066 -0.1334
 5108TIP3    H136739   0.934   1.395  16.905 -0.4697 -1.1836 -1.1973
 5108TIP3    H236740   1.036   1.302  16.969  0.1800  0.6089  0.4842
 5109TIP3   OH236741   5.264   6.630  16.628 -0.6080  0.0203 -0.4672
 5109TIP3    H136742   5.271   6.557  16.690  1.6860  0.2263 -0.4088
 5109TIP3    H236743   5.175   6.623  16.594 -2.1422  0.1209  3.0730
 5110TIP3   OH236744   1.819   3.524  12.238  0.1281 -0.2927  0.7993
 5110TIP3    H136745   1.782   3.502  12.153 -1.9246 -1.0839  1.8305
 5110TIP3    H236746   1.835   3.440  12.280  2.2340  0.0585  0.8030
 5111TIP3   OH236747   0.042   3.248  15.344 -0.6372  0.1579 -0.1416
 5111TIP3    H136748  -0.033   3.189  15.351 -0.2107 -0.3942 -0.1097
 5111TIP3    H236749   0.004   3.334  15.326 -1.2751 -0.1098 -0.0937
 5112TIP3   OH236750   4.848   0.385   2.545 -0.2975  0.1615  0.2063
 5112TIP3    H136751   4.909   0.312   2.555  0.2430  0.5175 -0.4253
 5112TIP3    H236752   4.886   0.455   2.597 -1.0253 -0.1073  1.1461
 5113TIP3   OH236753   6.764   0.530  16.845  0.2839  0.0667 -0.2728
 5113TIP3    H136754   6.779   0.625  16.851 -1.6747  0.6618 -2.6754
 5113TIP3    H236755   6.689   0.514  16.902  0.7662 -0.0968  0.3203
 5114TIP3   OH236756   3.558   4.910  13.362 -0.5289 -0.2250  0.1762
 5114TIP3    H136757   3.463   4.907  13.350 -0.6366 -1.7039  1.1072
 5114TIP3    H236758   3.593   4.861  13.289 -0.3922  1.1288 -0.6989
 5115TIP3   OH236759   6.228   5.640   1.762 -0.4142 -0.4671 -0.1402
 5115TIP3    H136760   6.207   5.547   1.767  0.0957 -0.5931 -0.3031
 5115TIP3    H236761   6.249   5.655   1.670  0.7524 -0.4726  0.1052
 5116TIP3   OH236762   1.600   0.613   4.741  0.1899  0.2635  0.1659
 5116TIP3    H136763   1.557   0.698   4.748  0.9987  0.5899  1.3817
 5116TIP3    H236764   1.652   0.619   4.661  1.7088  1.6227  1.2026
 5117TIP3   OH236765   3.280   3.765   1.683 -0.2753 -0.2994 -0.0619
 5117TIP3    H136766   3.237   3.827   1.742  1.0977 -0.1609  0.8375
 5117TIP3    H236767   3.364   3.806   1.662 -0.2398 -0.9002 -1.1799
 5118TIP3   OH236768   1.931   5.064   2.189  0.1821  0.1229  0.1908
 5118TIP3    H136769   1.867   4.998   2.166  1.6721 -2.1357  2.0308
 5118TIP3    H236770   1.880   5.138   2.221 -1.5501 -1.3926  1.1053
 5119TIP3   OH236771   3.833   4.983  16.751  0.0973 -0.3690 -0.0377
 5119TIP3    H136772   3.858   5.012  16.838 -1.6020 -2.2994  1.1828
 5119TIP3    H236773   3.785   5.058  16.714 -0.0954  0.0988  1.1194
 5120TIP3   OH236774   4.762   3.012  16.003  0.0905 -0.4112 -0.6749
 5120TIP3    H136775   4.745   3.015  15.909 -0.6527 -0.4126 -0.5447
 5120TIP3    H236776   4.678   2.987  16.042  0.1611  0.4127  0.0505
 5121TIP3   OH236777   4.634   0.080   2.917  0.0616 -0.3506  0.2707
 5121TIP3    H136778   4.691   0.098   2.843  0.5217 -0.0210  0.6967
 5121TIP3    H236779   4.564   0.024   2.881  1.3492 -1.8676  0.0174
 5122TIP3   OH236780   3.056   0.110  15.216  0.5198 -0.3407  0.5232
 5122TIP3    H136781   3.041   0.176  15.148  2.5941  0.3148  0.6469
 5122TIP3    H236782   3.052   0.159  15.298  2.0194 -0.3253  0.6171
 5123TIP3   OH236783   5.894   0.383  15.026  0.2145  0.2705 -0.3154
 5123TIP3    H136784   5.926   0.409  14.939  1.0017  2.3346  0.5420
 5123TIP3    H236785   5.799   0.398  15.021  0.2921  0.6579 -0.7172
 5124TIP3   OH236786   5.610   6.095  17.205  0.2330  0.6205  0.1993
 5124TIP3    H136787   5.567   6.102  17.290 -0.8642  0.4245 -0.3307
 5124TIP3    H236788   5.569   6.163  17.151  0.4849  0.3307 -0.3656
 5125TIP3   OH236789   3.351   0.739   6.670 -0.5665  0.4622 -0.4765
 5125TIP3    H136790   3.262   0.718   6.640 -1.4826  3.4826 -0.1936
 5125TIP3    H236791   3.361   0.833   6.653  1.4533  0.8595  2.2182
 5126TIP3   OH236792   6.453   1.770   2.090 -0.4888  0.2589  0.5304
 5126TIP3    H136793   6.482   1.820   2.167  1.5574 -0.4051  0.2603
 5126TIP3    H236794   6.375   1.816   2.059 -0.1703  1.7301  1.8014
 5127TIP3   OH236795   2.905   4.492  11.290 -0.1499  0.2078  0.5944
 5127TIP3    H136796   2.885   4.502  11.197 -1.7557 -1.5112  0.6920
 5127TIP3    H236797   2.984   4.437  11.291 -1.2538 -1.4521  0.2141
 5128TIP3   OH236798   2.845   4.641   0.361  0.3606 -0.1930 -0.2442
 5128TIP3    H136799   2.870   4.580   0.431  0.1528 -1.1143 -0.9562
 5128TIP3    H236800   2.928   4.660   0.316  0.4888  0.3720  0.2156
 5129TIP3   OH236801   5.837   6.137  16.766  0.4893 -0.5518  0.3139
 5129TIP3    H136802   5.845   6.142  16.861  0.1804 -0.4455  0.3384
 5129TIP3    H236803   5.909   6.082  16.738 -0.0750 -1.5108  0.7136
 5130TIP3   OH236804   4.332   2.843   3.268 -0.0110  0.0847  0.0896
 5130TIP3    H136805   4.251   2.839   3.216  0.0622 -1.0373  0.0390
 5130TIP3    H236806   4.375   2.759   3.251  1.2738  0.7442 -0.0381
 5131TIP3   OH236807   2.012   1.297  11.946 -0.5167 -0.5667  0.0870
 5131TIP3    H136808   2.105   1.273  11.948 -0.5357 -0.7375 -0.8459
 5131TIP3    H236809   1.999   1.347  12.027  0.2306 -1.0978  0.5550
 5132TIP3   OH236810   2.216   0.062  11.375 -0.0018  0.1834 -0.4675
 5132TIP3    H136811   2.194   0.143  11.421  0.1734  0.1471 -0.3162
 5132TIP3    H236812   2.172   0.069  11.290 -1.0649 -0.1489  0.0456
 5133TIP3   OH236813   1.024   5.160  16.358 -0.0906 -0.1381 -0.0866
 5133TIP3    H136814   1.073   5.093  16.407 -0.3061  0.7220  1.3688
 5133TIP3    H236815   0.948   5.178  16.412  0.6660  2.2972  0.3088
 5134TIP3   OH236816   5.484   2.042  15.818 -0.4925  0.0928 -0.7468
 5134TIP3    H136817   5.434   1.967  15.850 -1.0945  1.2000  1.0488
 5134TIP3    H236818   5.571   2.030  15.855  0.1569 -0.9456 -2.4815
 5135TIP3   OH236819   1.210   0.383  14.358  0.0104 -0.2689  0.0597
 5135TIP3    H136820   1.135   0.381  14.417  1.1015 -1.1272  1.4938
 5135TIP3    H236821   1.233   0.291  14.346 -0.4952 -0.1613 -2.1903
 5136TIP3   OH236822   3.869   3.225   2.236 -0.2006  0.0371 -0.5646
 5136TIP3    H136823   3.888   3.303   2.289 -0.6559 -0.2935  0.1031
 5136TIP3    H236824   3.853   3.156   2.300  0.2530 -0.6286 -1.1528
 5137TIP3   OH236825   4.434   5.103  15.399 -0.1729 -0.0220 -0.3741
 5137TIP3    H136826   4.507   5.115  15.459  0.4940  0.7686 -1.3212
 5137TIP3    H236827   4.419   5.189  15.361 -0.6072 -0.4960 -1.3116
 5138TIP3   OH236828   1.255   5.156  14.431 -0.0047  0.1255  0.4772
 5138TIP3    H136829   1.347   5.156  14.403  0.0646  2.0065  0.5529
 5138TIP3    H236830   1.206   5.158  14.349  0.0484  0.0079  0.4422
 5139TIP3   OH236831   1.257   6.613  16.436  0.3957  0.2852  0.0551
 5139TIP3    H136832   1.207   6.596  16.356 -0.3386 -2.9189  1.0125
 5139TIP3    H236833   1.328   6.670  16.409 -1.1037  1.1458 -2.3729
 5140TIP3   OH236834   0.198   2.811   1.716  0.0570 -0.3521 -0.8185
 5140TIP3    H136835   0.159   2.863   1.786  0.6400 -1.0070  0.0106
 5140TIP3    H236836   0.147   2.730   1.715  0.5813 -0.6927 -0.5715
 5141TIP3   OH236837   1.110   0.402  16.211  0.2759  0.9290  0.3293
 5141TIP3    H136838   1.148   0.461  16.277  0.6521  3.5963 -2.0728
 5141TIP3    H236839   1.175   0.401  16.141 -0.4812 -1.1650 -0.4059
 5142TIP3   OH236840   1.694   5.451   0.672  0.4984 -0.3072  0.9886
 5142TIP3    H136841   1.611   5.441   0.719 -0.2164 -0.8454 -0.3228
 5142TIP3    H236842   1.703   5.545   0.659  0.3095 -0.2133  1.5296
 5143TIP3   OH236843   1.744   3.621  16.509  0.0208 -0.6909 -0.3976
 5143TIP3    H136844   1.807   3.676  16.555  0.4296 -2.0232  0.7031
 5143TIP3    H236845   1.768   3.629  16.417 -0.0253  1.0560 -0.2854
 5144TIP3   OH236846   5.626   5.439   2.215  0.2298  0.4642 -0.2279
 5144TIP3    H136847   5.591   5.499   2.148 -1.6290 -0.9519 -0.6021
 5144TIP3    H236848   5.589   5.472   2.297  0.6580  0.8492 -0.1823
 5145TIP3   OH236849   4.328   2.448  16.899 -0.1883  0.3831 -0.3406
 5145TIP3    H136850   4.286   2.534  16.904 -1.4873 -0.1765 -1.1696
 5145TIP3    H236851   4.373   2.438  16.983 -1.9967  0.8760  0.7369
 5146TIP3   OH236852   2.751   3.077  15.637  0.1967 -0.2393 -0.2682
 5146TIP3    H136853   2.753   3.132  15.715 -0.5984 -0.1320 -0.3214
 5146TIP3    H236854   2.803   3.000  15.661  0.7384  0.2133  0.0415
 5147TIP3   OH236855   5.262   1.420   2.473  0.0903 -0.2277 -0.5533
 5147TIP3    H136856   5.322   1.356   2.510 -0.9741 -0.4396  0.8581
 5147TIP3    H236857   5.186   1.369   2.446 -1.4592  0.5332  2.0403
 5148TIP3   OH236858   0.917   6.215  11.179  0.2396  0.2151  0.1348
 5148TIP3    H136859   1.002   6.174  11.196  0.3495  1.1171  2.0019
 5148TIP3    H236860   0.938   6.304  11.153 -0.1135  0.1330 -0.4491
 5149TIP3   OH236861   6.156   1.463   5.440 -0.2945 -0.3637 -0.2789
 5149TIP3    H136862   6.118   1.413   5.512 -0.4695  0.6255  0.3417
 5149TIP3    H236863   6.236   1.416   5.417 -0.0212 -0.4696  0.8396
 5150TIP3   OH236864   3.345   5.729   0.786  0.0436 -0.8519 -0.0333
 5150TIP3    H136865   3.277   5.719   0.852  0.0885  0.5331  0.2698
 5150TIP3    H236866   3.307   5.788   0.721  1.6311  1.8029  1.2621
 5151TIP3   OH236867   1.616   3.008  14.392 -0.0493  0.4297  0.2340
 5151TIP3    H136868   1.652   3.072  14.331 -0.5279  2.2414  1.7376
 5151TIP3    H236869   1.549   2.961  14.342  0.6351  0.7891 -1.0434
 5152TIP3   OH236870   4.692   1.178  15.185 -0.2342  0.0038 -0.1838
 5152TIP3    H136871   4.618   1.124  15.157 -0.7480  0.5580  0.0688
 5152TIP3    H236872   4.699   1.246  15.118  0.0833 -0.0802 -0.2376
 5153TIP3   OH236873   0.299   3.780   3.683  0.4690  0.0933  0.3208
 5153TIP3    H136874   0.239   3.843   3.722 -0.1461 -0.7528  0.7934
 5153TIP3    H236875   0.247   3.739   3.613  0.9114  0.2088 -0.0838
 5154TIP3   OH236876   6.064   2.941   4.398 -0.1581 -0.5959 -0.0169
 5154TIP3    H136877   6.039   2.870   4.338  1.6770 -2.2301  1.0597
 5154TIP3    H236878   6.102   2.897   4.474 -0.7074  1.4928  1.5810
 5155TIP3   OH236879   1.404   6.145  12.529 -0.4967  0.1407  0.5643
 5155TIP3    H136880   1.334   6.183  12.582 -0.7398 -0.0349  0.3763
 5155TIP3    H236881   1.466   6.216  12.516 -0.0334 -0.0192  1.7464
 5156TIP3   OH236882   4.528   6.467   1.754  0.2803 -0.3472  0.6743
 5156TIP3    H136883   4.564   6.501   1.673 -0.4148 -1.4018 -0.1012
 5156TIP3    H236884   4.536   6.540   1.816  0.3339  0.6580 -0.4748
 5157TIP3   OH236885   0.404   3.364  11.570  0.0129  0.3327 -0.8689
 5157TIP3    H136886   0.427   3.422  11.498 -0.1323  0.8276 -0.5175
 5157TIP3    H236887   0.337   3.306  11.534 -0.8224  1.2614 -0.8226
 5158TIP3   OH236888   5.591   5.249   5.148  0.5471  0.1416  0.1473
 5158TIP3    H136889   5.596   5.317   5.082  0.4368  0.4121  0.4150
 5158TIP3    H236890   5.531   5.284   5.214  0.0196 -0.4504  0.0035
 5159TIP3   OH236891   4.602   0.411  13.976 -0.6741 -0.1612 -0.2045
 5159TIP3    H136892   4.572   0.498  14.004  0.3650  0.2722 -0.3850
 5159TIP3    H236893   4.656   0.379  14.049 -0.7218 -0.4777 -0.3078
 5160TIP3   OH236894   3.049   5.493   5.597 -0.4157  0.4904  0.0864
 5160TIP3    H136895   2.973   5.456   5.643  0.4681 -1.9329 -0.2733
 5160TIP3    H236896   3.017   5.511   5.509 -0.5488 -0.8131 -0.1566
 5161TIP3   OH236897   4.373   3.906  16.932  0.0391 -0.2683  0.2288
 5161TIP3    H136898   4.379   3.842  16.862  1.3115  0.6755 -0.5743
 5161TIP3    H236899   4.302   3.874  16.988 -0.4596 -1.4746 -1.0334
 5162TIP3   OH236900   0.185   5.394  14.932 -0.4949  0.3944  0.1802
 5162TIP3    H136901   0.170   5.300  14.916  2.6517 -0.2435  0.3491
 5162TIP3    H236902   0.231   5.397  15.016 -1.2213  2.1911  0.5534
 5163TIP3   OH236903   1.042   1.050   3.991 -0.2869 -0.2150 -0.3594
 5163TIP3    H136904   0.953   1.056   4.026 -0.2586 -3.2812  0.5465
 5163TIP3    H236905   1.070   1.141   3.980 -1.9682  0.9273  3.3127
 5164TIP3   OH236906   3.789   3.910   3.976 -0.1825 -0.2234 -0.0068
 5164TIP3    H136907   3.853   3.982   3.972 -0.4214  0.0648  0.9465
 5164TIP3    H236908   3.842   3.831   3.967  0.1336  0.0481 -0.6624
 5165TIP3   OH236909   0.273   1.992   1.024 -0.3931  0.3831 -0.2906
 5165TIP3    H136910   0.249   1.907   1.060 -2.3616  0.4388 -1.3460
 5165TIP3    H236911   0.367   1.999   1.041 -0.3775 -1.5243  0.7438
 5166TIP3   OH236912   3.654   1.408   0.959  0.1117 -0.0957  0.5083
 5166TIP3    H136913   3.624   1.418   1.049 -0.0563 -0.1147  0.4539
 5166TIP3    H236914   3.575   1.412   0.906  0.3329  1.3046  0.2457
 5167TIP3   OH236915   6.034   3.498  12.817  0.0934 -0.1024 -0.5929
 5167TIP3    H136916   6.098   3.550  12.866 -0.7033 -0.4983  0.9335
 5167TIP3    H236917   6.085   3.459  12.746  1.4441 -0.0239  0.2871
 5168TIP3   OH236918   4.264   0.763  12.484  0.2171  0.7845 -0.2920
 5168TIP3    H136919   4.226   0.786  12.399  1.4132  0.7083 -0.8662
 5168TIP3    H236920   4.358   0.776  12.473  0.2311  3.2701  1.8031
 5169TIP3   OH236921   5.166   0.341   1.693 -0.1975  0.1676  0.2728
 5169TIP3    H136922   5.134   0.370   1.779  1.6659  0.1149  1.0356
 5169TIP3    H236923   5.201   0.254   1.709  0.8009  0.4312 -0.3710
 5170TIP3   OH236924   3.753   1.938   0.558 -0.1415 -0.0805 -0.0335
 5170TIP3    H136925   3.778   2.028   0.578 -0.3011 -0.2182  0.8443
 5170TIP3    H236926   3.754   1.933   0.463  2.3534  0.1670 -0.0809
 5171TIP3   OH236927   5.351   5.626  13.938  0.7883  0.2808 -0.3645
 5171TIP3    H136928   5.358   5.682  14.016  1.5100 -0.1994 -0.0659
 5171TIP3    H236929   5.416   5.558  13.953  1.5816  0.6791 -1.8060
 5172TIP3   OH236930   2.685   6.345   0.863 -0.0453 -0.1591  0.0123
 5172TIP3    H136931   2.774   6.322   0.840  0.0564  0.4579 -0.2384
 5172TIP3    H236932   2.676   6.437   0.836 -0.4347  0.0947  0.9478
 5173TIP3   OH236933   6.025   0.557  11.194 -0.0607 -0.2395  0.3675
 5173TIP3    H136934   6.084   0.556  11.119 -0.2978 -2.4246  0.1327
 5173TIP3    H236935   5.990   0.467  11.199 -0.1503 -0.1562  2.9995
 5174TIP3   OH236936   3.372   1.178   6.163 -0.2836 -0.3229  0.3439
 5174TIP3    H136937   3.302   1.225   6.207 -0.9975 -0.0534 -1.0279
 5174TIP3    H236938   3.452   1.220   6.194 -0.8574  1.0300  0.0515
 5175TIP3   OH236939   2.585   2.991   2.440  0.2192  0.4122  0.2550
 5175TIP3    H136940   2.527   3.068   2.441 -1.1097 -0.5576  0.8929
 5175TIP3    H236941   2.597   2.970   2.348 -0.2960  0.7424  0.1122
 5176TIP3   OH236942   3.675   6.188  15.801 -0.1894 -0.3285  0.2179
 5176TIP3    H136943   3.666   6.283  15.802 -1.5836 -0.4347  0.1652
 5176TIP3    H236944   3.769   6.172  15.804  0.0823  1.0600 -0.2653
 5177TIP3   OH236945   2.077   0.979  11.330 -0.4614  0.1926  0.6043
 5177TIP3    H136946   2.133   1.002  11.256  0.1962  0.4848  1.1829
 5177TIP3    H236947   2.052   0.888  11.314 -0.0413  0.1437  0.2008
 5178TIP3   OH236948   4.900   3.808  13.684  0.0985  0.6232 -0.4187
 5178TIP3    H136949   4.919   3.738  13.747 -2.5403 -0.5108 -0.7542
 5178TIP3    H236950   4.858   3.876  13.736 -2.0618 -0.3046 -0.8354
 5179TIP3   OH236951   4.146   0.432  17.144  0.3910  0.3846  0.6572
 5179TIP3    H136952   4.162   0.516  17.101  0.4798  0.2065  0.3381
 5179TIP3    H236953   4.169   0.448  17.236  1.3812  0.4421  0.4160
 5180TIP3   OH236954   2.039   4.107  10.252  0.2794 -0.3564  0.5788
 5180TIP3    H136955   2.109   4.118  10.187 -1.8314 -1.8462 -2.1186
 5180TIP3    H236956   2.054   4.020  10.288 -1.4403 -1.7762 -1.8380
 5181TIP3   OH236957   1.818   4.892  16.622 -0.0338  0.0487 -0.3334
 5181TIP3    H136958   1.910   4.916  16.613  0.6047 -1.7940  0.7960
 5181TIP3    H236959   1.770   4.967  16.587  1.8803  1.3728 -0.2525
 5182TIP3   OH236960   4.999   4.617  15.655  0.3211 -0.1916 -0.6133
 5182TIP3    H136961   4.913   4.616  15.613 -0.1740  0.5241  0.3560
 5182TIP3    H236962   4.983   4.589  15.745  0.8151  1.4342  0.0265
 5183TIP3   OH236963   0.309   3.753   1.707  0.0746 -0.1645 -0.4717
 5183TIP3    H136964   0.323   3.700   1.629 -0.3084  1.5719 -1.7674
 5183TIP3    H236965   0.334   3.842   1.682 -1.7819  0.7970  0.7879
 5184TIP3   OH236966   2.305   0.392   5.313 -0.5398 -0.4490 -0.0932
 5184TIP3    H136967   2.265   0.311   5.282 -1.9447 -0.0412  0.5547
 5184TIP3    H236968   2.278   0.459   5.249  1.7806 -0.6729 -1.4295
 5185TIP3   OH236969   1.261   2.397   2.356  0.5212  0.1290 -0.1848
 5185TIP3    H136970   1.356   2.399   2.343  0.8207  0.7949  1.7255
 5185TIP3    H236971   1.232   2.321   2.306  2.3519 -1.2769  0.7359
 5186TIP3   OH236972   4.341   3.899  14.572 -0.7358  0.3624  0.0651
 5186TIP3    H136973   4.334   3.975  14.515  0.4677  1.2230  1.0170
 5186TIP3    H236974   4.264   3.904  14.630  0.4583  2.1577  1.6005
 5187TIP3   OH236975   0.329   0.018   1.079 -0.2038  0.1797 -0.0141
 5187TIP3    H136976   0.324  -0.058   1.137 -1.9478  0.5196  0.3240
 5187TIP3    H236977   0.271   0.082   1.119  0.2395  1.2148 -1.0005
 5188TIP3   OH236978   2.810   0.894  14.949 -0.1016 -0.0031 -0.1546
 5188TIP3    H136979   2.878   0.863  14.891 -0.0197  0.6954 -0.4449
 5188TIP3    H236980   2.854   0.908  15.033 -0.5113 -2.3840  0.5204
 5189TIP3   OH236981   2.078   3.287   0.277 -0.3491 -0.5944 -0.1063
 5189TIP3    H136982   2.085   3.362   0.336 -0.0262 -0.4906 -0.2705
 5189TIP3    H236983   1.992   3.296   0.237  0.5050  0.9513 -1.7843
 5190TIP3   OH236984   1.379   6.477   3.082 -0.1435  0.6661  0.1143
 5190TIP3    H136985   1.283   6.479   3.087 -0.3693 -1.1622 -1.9705
 5190TIP3    H236986   1.398   6.435   2.998  2.5132  1.6081  0.1445
 5191TIP3   OH236987   6.161   6.639   4.580 -0.3266 -0.3160 -0.0775
 5191TIP3    H136988   6.120   6.718   4.547 -1.1517 -0.0522  1.4603
 5191TIP3    H236989   6.112   6.618   4.660 -0.8330 -2.9872 -0.9794
 5192TIP3   OH236990   2.414   6.346   5.544  0.0597  0.3001  0.2879
 5192TIP3    H136991   2.436   6.430   5.585  0.1741 -0.6795  2.3174
 5192TIP3    H236992   2.370   6.296   5.613  0.0292 -1.3411 -0.8668
 5193TIP3   OH236993   4.246   1.832  13.992 -0.1656  0.2127  0.1103
 5193TIP3    H136994   4.157   1.862  13.971 -0.0939  0.4982  0.2035
 5193TIP3    H236995   4.302   1.878  13.929 -0.1366 -0.3780 -0.2960
 5194TIP3   OH236996   4.621   4.909  12.113 -0.2784 -0.1422 -0.1055
 5194TIP3    H136997   4.603   4.816  12.127  1.1035 -0.4589 -0.2331
 5194TIP3    H236998   4.625   4.919  12.018 -0.3207  0.0261 -0.0898
 5195TIP3   OH236999   6.436   4.389   4.853  0.1104  0.2703 -0.0250
 5195TIP3    H137000   6.396   4.302   4.861 -0.5932  0.4540 -1.3736
 5195TIP3    H237001   6.408   4.421   4.768 -0.4734  2.2523  0.8500
 5196TIP3   OH237002   5.991   2.576   5.081  0.5391 -0.3420  0.3903
 5196TIP3    H137003   5.921   2.582   5.016  0.1301 -1.6214  0.7047
 5196TIP3    H237004   6.065   2.538   5.033  1.2260  1.4445 -0.0699
 5197TIP3   OH237005   5.872   2.512  16.815  0.5873  0.1458  0.7246
 5197TIP3    H137006   5.840   2.585  16.761  0.5844  1.2804  2.2129
 5197TIP3    H237007   5.799   2.489  16.872  0.5512 -1.1302  0.2082
 5198TIP3   OH237008   0.516   2.888  11.570 -0.2684 -0.0204  0.5036
 5198TIP3    H137009   0.523   2.837  11.650  0.5746 -0.5855  0.0918
 5198TIP3    H237010   0.438   2.942  11.582 -0.7478 -0.8530  1.2646
 5199TIP3   OH237011   0.201   5.665   2.357 -0.1905 -0.0400 -0.4201
 5199TIP3    H137012   0.272   5.656   2.294 -0.5025  0.6707 -0.8907
 5199TIP3    H237013   0.231   5.733   2.417  0.6542 -1.5938  0.9961
 5200TIP3   OH237014   1.767   3.930   4.495 -0.0787  0.0524  0.0795
 5200TIP3    H137015   1.852   3.946   4.536 -0.0749  1.0279 -0.2903
 5200TIP3    H237016   1.711   4.001   4.526 -0.7105 -0.4680  0.1613
 5201TIP3   OH237017   3.847   6.566   3.138  0.3599  0.0645  0.3662
 5201TIP3    H137018   3.903   6.595   3.209 -1.3436  1.9622  1.0533
 5201TIP3    H237019   3.826   6.646   3.089 -1.4371 -0.5945 -0.0451
 5202TIP3   OH237020   3.499   5.306   0.886  0.0723 -0.6944  0.5979
 5202TIP3    H137021   3.460   5.254   0.815  0.1935 -0.5945  0.4556
 5202TIP3    H237022   3.541   5.242   0.943  1.7648 -0.6524 -0.5216
 5203TIP3   OH237023   1.672   4.339  15.416  0.1736 -0.1180 -0.0288
 5203TIP3    H137024   1.591   4.339  15.365  0.7722 -0.0454 -1.0170
 5203TIP3    H237025   1.716   4.421  15.391  0.7683 -0.3775  0.1447
 5204TIP3   OH237026   6.025   6.742  14.633 -0.2271 -0.3990 -0.8628
 5204TIP3    H137027   5.958   6.686  14.673 -0.1212 -0.1272 -0.2889
 5204TIP3    H237028   6.107   6.696  14.652  0.1600  1.2199  2.0063
 5205TIP3   OH237029   4.653   0.843   1.191 -0.2518 -0.0905  0.4392
 5205TIP3    H137030   4.568   0.869   1.225 -1.2478 -2.5624  0.0321
 5205TIP3    H237031   4.714   0.863   1.262 -1.6798 -1.3100  2.1015
 5206TIP3   OH237032   0.719   6.729   4.220  0.1301  0.2755  0.0315
 5206TIP3    H137033   0.769   6.810   4.226 -0.4722  0.6432  0.1807
 5206TIP3    H237034   0.765   6.678   4.153  0.2501  0.9314 -0.4017
 5207TIP3   OH237035   2.098   3.121  16.173 -0.4427  0.0060 -0.4627
 5207TIP3    H137036   2.064   3.174  16.101 -0.8729  0.5924  0.1574
 5207TIP3    H237037   2.021   3.078  16.209 -0.2036 -0.4270 -0.4625
 5208TIP3   OH237038   2.560   4.627   1.845  0.1562 -0.1383 -0.6218
 5208TIP3    H137039   2.610   4.701   1.813 -0.6856  0.2286 -1.1366
 5208TIP3    H237040   2.547   4.572   1.768  0.8405 -0.8691 -0.2285
 5209TIP3   OH237041   6.378   2.744  15.833  0.2535 -0.2155 -0.2094
 5209TIP3    H137042   6.385   2.816  15.895  1.0091 -0.3840 -0.0948
 5209TIP3    H237043   6.289   2.711  15.844  0.0322  0.4475  0.0142
 5210TIP3   OH237044   4.634   2.406  14.571  0.3067 -0.2810 -0.0068
 5210TIP3    H137045   4.640   2.477  14.635 -0.6618  0.4783 -0.7337
 5210TIP3    H237046   4.687   2.436  14.497 -0.7897  0.0815 -0.6611
 5211TIP3   OH237047   6.780   0.845  14.658  0.0287 -0.1571 -0.3775
 5211TIP3    H137048   6.874   0.863  14.665  0.2290 -1.0830 -0.5089
 5211TIP3    H237049   6.768   0.816  14.568 -0.5493  0.8355 -0.6227
 5212TIP3   OH237050   3.568   5.876   5.110  0.2773 -0.1142 -0.0428
 5212TIP3    H137051   3.531   5.964   5.117  0.2229 -0.1819  0.5456
 5212TIP3    H237052   3.653   5.881   5.154  0.3749 -0.3045 -0.2016
 5213TIP3   OH237053   2.284   4.110  13.515  0.2655 -0.1724  0.3021
 5213TIP3    H137054   2.278   4.154  13.431  1.0410 -1.1627 -0.3016
 5213TIP3    H237055   2.362   4.054  13.508  0.1216 -0.5755  1.5272
 5214TIP3   OH237056   6.160   5.118   5.382  0.0036  0.3738  0.0074
 5214TIP3    H137057   6.220   5.066   5.435 -0.1952 -2.2203 -2.0947
 5214TIP3    H237058   6.192   5.208   5.390  2.1425 -0.4548  1.5534
 5215TIP3   OH237059   1.678   5.737   4.780  0.4955 -0.3653 -0.1759
 5215TIP3    H137060   1.585   5.757   4.790  0.3617 -0.3682 -1.3135
 5215TIP3    H237061   1.715   5.814   4.738  1.4852  0.6020  2.2723
 5216TIP3   OH237062   2.528   0.521   6.064  0.6242 -0.5721  0.0096
 5216TIP3    H137063   2.489   0.438   6.035 -0.7614  0.3703 -0.9623
 5216TIP3    H237064   2.546   0.508   6.157  0.1016 -1.8428 -0.0430
 5217TIP3   OH237065   1.988   0.675  14.311  0.6312 -0.0269 -0.1851
 5217TIP3    H137066   1.967   0.583  14.295  0.7644 -0.1957  0.5413
 5217TIP3    H237067   2.064   0.672  14.370 -0.8273  0.4998  1.8261
 5218TIP3   OH237068   0.628   4.153  10.482 -0.1670  0.0691  0.5901
 5218TIP3    H137069   0.639   4.211  10.557  0.4463 -1.9203  2.1348
 5218TIP3    H237070   0.717   4.139  10.448 -0.3927  0.6117 -0.2706
 5219TIP3   OH237071   2.629   6.618  16.009 -0.3912 -0.5948 -0.3213
 5219TIP3    H137072   2.699   6.558  15.982 -0.7370 -1.4089  0.5092
 5219TIP3    H237073   2.662   6.658  16.090 -1.0861 -1.3997  0.3845
 5220TIP3   OH237074   1.443   2.405  16.383 -0.3209 -0.6874  0.0992
 5220TIP3    H137075   1.445   2.489  16.338 -2.2221 -1.0122 -0.7016
 5220TIP3    H237076   1.385   2.350  16.329  1.2502 -2.6795  0.3297
 5221TIP3   OH237077   0.415   2.410   4.338 -0.6557 -0.2276 -0.3368
 5221TIP3    H137078   0.419   2.505   4.354 -0.5404 -0.2606 -0.1747
 5221TIP3    H237079   0.404   2.403   4.243 -0.1410 -0.0670 -0.4091
 5222TIP3   OH237080   1.691   6.753  13.416  0.0200 -0.2513 -0.1860
 5222TIP3    H137081   1.665   6.661  13.418 -2.1236  0.2925 -0.6014
 5222TIP3    H237082   1.745   6.761  13.337 -2.6324 -0.5279 -2.1746
 5223TIP3   OH237083   0.621   3.727  14.762  0.2220 -0.0441  0.0914
 5223TIP3    H137084   0.614   3.701  14.670  0.4400 -0.4782  0.1958
 5223TIP3    H237085   0.615   3.645  14.811 -0.0300  0.1996  0.4718
 5224TIP3   OH237086   4.291   4.516   3.844  0.1281 -0.0322  0.4417
 5224TIP3    H137087   4.200   4.545   3.845  0.8633  2.7138 -1.2169
 5224TIP3    H237088   4.334   4.570   3.910  0.6065 -1.3132  1.2157
 5225TIP3   OH237089   1.210   6.097  11.840 -0.0115 -0.1028  0.8239
 5225TIP3    H137090   1.198   6.191  11.826 -1.9721 -0.2208  1.4335
 5225TIP3    H237091   1.124   6.058  11.823  1.1312 -2.0556 -1.0932
 5226TIP3   OH237092   6.608   0.129  12.013 -0.1099  0.4734  0.1119
 5226TIP3    H137093   6.587   0.202  11.954 -0.5305 -0.5974 -1.1135
 5226TIP3    H237094   6.530   0.119  12.068 -0.5799  0.1243 -0.6058
 5227TIP3   OH237095   1.526   6.147   4.522  0.1067 -0.6588 -0.2616
 5227TIP3    H137096   1.602   6.098   4.553  0.8922  0.5470 -0.2133
 5227TIP3    H237097   1.526   6.132   4.427  2.3778  1.8402 -0.8033
 5228TIP3   OH237098   5.756   3.157  13.431  0.2235 -1.0584  0.1797
 5228TIP3    H137099   5.760   3.204  13.348  1.5891 -0.7460  0.3904
 5228TIP3    H237100   5.664   3.161  13.457  0.2165  1.1793 -0.0015
 5229TIP3   OH237101   4.019   5.235   3.331 -0.0595  0.5562 -0.1332
 5229TIP3    H137102   4.029   5.264   3.422  1.1063 -0.7120  0.1772
 5229TIP3    H237103   3.951   5.292   3.295 -1.4783  0.2595  1.8886
 5230TIP3   OH237104   2.171   3.293   6.151  0.4733  0.1038 -0.0680
 5230TIP3    H137105   2.202   3.202   6.146  0.5820 -0.0622  2.3341
 5230TIP3    H237106   2.246   3.345   6.122  1.0900 -0.5295  0.3388
 5231TIP3   OH237107   4.834   1.192   3.498 -0.0125 -0.2577 -0.3901
 5231TIP3    H137108   4.778   1.153   3.566 -0.3415  0.8893  0.0178
 5231TIP3    H237109   4.881   1.118   3.461 -0.0742 -0.9567  0.8676
 5232TIP3   OH237110   6.414   5.779  16.822  0.0829  0.0504 -0.3028
 5232TIP3    H137111   6.495   5.823  16.797  2.0736 -3.0588  0.1263
 5232TIP3    H237112   6.369   5.761  16.739 -0.9018  2.8483 -0.4809
 5233TIP3   OH237113   1.987   6.628  15.226  0.4481  0.0938  0.0377
 5233TIP3    H137114   2.066   6.618  15.280 -1.4292 -0.6052  2.8862
 5233TIP3    H237115   1.980   6.722  15.212 -0.1155  0.6302  3.0938
 5234TIP3   OH237116   4.198   5.681  12.179  0.4911 -0.1757 -0.0196
 5234TIP3    H137117   4.257   5.633  12.120 -0.1739 -1.3488  0.2483
 5234TIP3    H237118   4.252   5.754  12.211  1.0755  0.1091 -1.5400
 5235TIP3   OH237119   2.247   5.941  13.974 -0.1027 -0.6483  0.5734
 5235TIP3    H137120   2.263   5.851  13.944  0.1147 -0.9291  1.5030
 5235TIP3    H237121   2.226   5.932  14.067 -0.2275  0.2567  0.6422
 5236TIP3   OH237122   3.836   0.925  12.816  0.1024 -0.2190  0.3979
 5236TIP3    H137123   3.865   0.888  12.900  0.6673  0.1743  0.3767
 5236TIP3    H237124   3.747   0.891  12.805  0.2939 -0.8710  0.7978
 5237TIP3   OH237125   3.743   4.495   4.491 -0.0103 -0.2854 -0.6782
 5237TIP3    H137126   3.822   4.447   4.465  1.2391  0.3667  1.6242
 5237TIP3    H237127   3.758   4.584   4.460  0.0279 -0.2239 -0.4814
 5238TIP3   OH237128   0.522   0.640   4.037 -0.1194 -0.0315 -0.1790
 5238TIP3    H137129   0.433   0.609   4.019 -0.6362 -0.4601  2.7116
 5238TIP3    H237130   0.527   0.724   3.990 -2.0152 -0.0213 -0.4546
 5239TIP3   OH237131   2.534   3.456  13.683 -0.4193  0.7577 -0.1550
 5239TIP3    H137132   2.629   3.445  13.695 -0.3481  1.3616 -0.1060
 5239TIP3    H237133   2.509   3.519  13.751 -1.0329 -0.1248  0.4547
 5240TIP3   OH237134   3.985   2.944  14.239  0.3481  0.5882  0.1656
 5240TIP3    H137135   3.989   2.850  14.258 -1.4058  0.6165  0.8248
 5240TIP3    H237136   3.972   2.949  14.144 -1.7333  0.0584  0.3835
 5241TIP3   OH237137   5.233   0.376   0.278  0.3224 -0.0360  0.1139
 5241TIP3    H137138   5.153   0.354   0.325 -0.0660  1.1613  0.0290
 5241TIP3    H237139   5.303   0.354   0.339 -0.1893  2.0289  1.5412
 5242TIP3   OH237140   2.646   1.915   2.394 -0.5251  0.0862 -0.1207
 5242TIP3    H137141   2.723   1.955   2.432 -0.7538 -0.7583  1.3469
 5242TIP3    H237142   2.674   1.826   2.371 -0.6402  0.2948 -1.0883
 5243TIP3   OH237143   3.008   2.471  14.614 -0.1815 -0.3483 -0.5587
 5243TIP3    H137144   3.008   2.397  14.554  0.7771 -2.2441  1.6171
 5243TIP3    H237145   2.928   2.460  14.666 -0.9323  1.1761 -1.3464
 5244TIP3   OH237146   3.811   4.983   1.840 -0.4208  0.3307  0.1233
 5244TIP3    H137147   3.901   4.966   1.868 -0.0873  0.6108 -0.7428
 5244TIP3    H237148   3.818   5.005   1.747 -1.4372 -0.0860 -0.0690
 5245TIP3   OH237149   3.728   2.886   0.239  0.0410  0.4101 -0.2016
 5245TIP3    H137150   3.730   2.891   0.335  0.6838  1.5097 -0.2558
 5245TIP3    H237151   3.753   2.974   0.210 -3.7868  1.2779 -1.4075
 5246TIP3   OH237152   3.661   5.297   1.511 -0.3264  0.4770 -0.8913
 5246TIP3    H137153   3.594   5.360   1.538  1.4989  1.5675  1.4956
 5246TIP3    H237154   3.685   5.325   1.422 -1.6468  1.2608 -1.0354
 5247TIP3   OH237155   4.690   0.529  10.653 -0.1052  1.0118  0.3056
 5247TIP3    H137156   4.633   0.601  10.681 -0.8203  0.8665 -0.7301
 5247TIP3    H237157   4.723   0.556  10.567  2.2027  1.5335  1.2674
 5248TIP3   OH237158   0.474   0.480   0.509 -0.4426 -0.1460 -0.0088
 5248TIP3    H137159   0.516   0.565   0.510 -0.9162  0.1019 -0.6275
 5248TIP3    H237160   0.542   0.419   0.541  0.6600  0.1225 -1.7182
 5249TIP3   OH237161   4.542   6.409  15.258 -0.3202 -0.2412  0.2253
 5249TIP3    H137162   4.630   6.435  15.287 -0.5301  0.4881  0.2319
 5249TIP3    H237163   4.502   6.491  15.227 -0.5276 -0.7959 -1.0198
 5250TIP3   OH237164   1.928   5.763   1.235  0.2365 -0.2783 -0.0174
 5250TIP3    H137165   1.863   5.694   1.245  0.1062 -0.5716 -2.3360
 5250TIP3    H237166   1.876   5.841   1.213  0.5765 -0.1428 -0.3346
 5251TIP3   OH237167   5.287   6.183  16.324 -0.0931 -0.3574 -0.8806
 5251TIP3    H137168   5.194   6.158  16.318  0.4666 -2.4678 -1.8442
 5251TIP3    H237169   5.302   6.236  16.246 -1.3658  3.6352  1.3272
 5252TIP3   OH237170   3.175   6.302  16.428  0.0937  0.1894  0.3614
 5252TIP3    H137171   3.105   6.269  16.484 -0.0892 -2.0685 -1.0899
 5252TIP3    H237172   3.251   6.311  16.486 -0.8748  0.8844  1.5576
 5253TIP3   OH237173   3.090   6.217   4.610 -0.3743 -0.0688 -0.2018
 5253TIP3    H137174   3.099   6.181   4.698 -0.4248 -0.6353 -0.4222
 5253TIP3    H237175   3.180   6.231   4.580 -0.3546  0.0241 -0.0976
 5254TIP3   OH237176   5.161   3.887  11.751  0.4230  0.2835  0.4204
 5254TIP3    H137177   5.234   3.863  11.808  0.2347 -1.9196 -0.1498
 5254TIP3    H237178   5.169   3.827  11.676 -0.1906  2.0921 -1.1698
 5255TIP3   OH237179   2.790   5.991  15.676 -0.1164  0.2371 -0.1059
 5255TIP3    H137180   2.756   6.022  15.760  0.0356 -1.4937  0.6476
 5255TIP3    H237181   2.879   5.961  15.696 -0.5277 -1.4136 -0.5390
 5256TIP3   OH237182   3.013   2.793  14.247 -0.1118  0.4362 -0.1348
 5256TIP3    H137183   3.082   2.845  14.205 -0.6338  2.0331  0.9096
 5256TIP3    H237184   3.055   2.753  14.323  0.6968 -2.0458 -1.7287
 5257TIP3   OH237185   4.236   6.379   3.679 -0.1717  0.1865 -0.4402
 5257TIP3    H137186   4.265   6.416   3.763 -0.9222  1.1650 -0.5959
 5257TIP3    H237187   4.206   6.291   3.701  0.0195  0.2843  0.2444
 5258TIP3   OH237188   3.774   4.291  16.273 -0.3379  0.1594  0.2079
 5258TIP3    H137189   3.866   4.284  16.247 -0.3872 -0.3983  0.1616
 5258TIP3    H237190   3.751   4.382  16.257  0.2059  0.3007  0.2135
 5259TIP3   OH237191   5.347   6.303   1.382  0.0857  0.1005 -0.5990
 5259TIP3    H137192   5.321   6.213   1.362  0.8754 -0.0790 -0.8530
 5259TIP3    H237193   5.308   6.355   1.311  0.9610 -0.2520 -1.3640
 5260TIP3   OH237194   5.550   1.128  12.652 -0.0099 -0.5159 -0.1337
 5260TIP3    H137195   5.601   1.207  12.673  0.8049 -0.6348 -1.5612
 5260TIP3    H237196   5.580   1.063  12.715  0.1904 -0.0291  0.2827
 5261TIP3   OH237197   5.799   2.458   3.086  0.4907  0.0872 -0.1039
 5261TIP3    H137198   5.744   2.393   3.130 -1.6892 -0.0407 -2.7612
 5261TIP3    H237199   5.809   2.528   3.150 -0.7282 -0.9680  1.3167
 5262TIP3   OH237200   2.252   6.764   3.139 -0.1378 -0.6090 -0.7050
 5262TIP3    H137201   2.311   6.835   3.166 -2.6708  0.7216  1.9470
 5262TIP3    H237202   2.268   6.695   3.204 -1.1214 -0.4320 -0.2671
 5263TIP3   OH237203   0.096   1.681   2.942 -0.3390  0.2701  0.3277
 5263TIP3    H137204   0.171   1.698   2.885 -0.3188  1.1300  0.5918
 5263TIP3    H237205   0.031   1.639   2.886  0.5654 -1.1045  0.2376
 5264TIP3   OH237206   0.009   4.717  14.063 -0.2868  0.1489 -0.2646
 5264TIP3    H137207  -0.041   4.638  14.045 -2.1318  0.9922  0.8494
 5264TIP3    H237208   0.013   4.762  13.978 -0.9601 -0.1946 -0.4874
 5265TIP3   OH237209   3.037   3.146   2.837 -0.0648 -0.2291 -0.6165
 5265TIP3    H137210   2.950   3.181   2.819 -0.2117 -0.1703  0.1797
 5265TIP3    H237211   3.059   3.181   2.923  0.7586 -0.2273 -0.8229
 5266TIP3   OH237212   2.535   0.009   2.520 -0.6369  0.7187 -0.6917
 5266TIP3    H137213   2.445   0.031   2.495 -1.1959 -1.0515 -0.3937
 5266TIP3    H237214   2.555   0.069   2.591 -1.5159  1.2686 -0.8875
 5267TIP3   OH237215   4.453   3.139   3.569  0.1245 -0.3333  0.1182
 5267TIP3    H137216   4.519   3.071   3.572 -0.7035 -1.1249  1.4181
 5267TIP3    H237217   4.412   3.137   3.656 -1.2002  0.5275 -0.4522
 5268TIP3   OH237218   1.813   5.179   4.778 -0.7556 -0.2091  0.1174
 5268TIP3    H137219   1.797   5.258   4.830 -0.3370  0.7245 -1.1049
 5268TIP3    H237220   1.754   5.188   4.703 -1.5577 -1.6653  0.5365
 5269TIP3   OH237221   0.906   5.863  14.451  0.5415  0.4672  0.6841
 5269TIP3    H137222   0.998   5.848  14.471  0.3062  0.4621  1.8143
 5269TIP3    H237223   0.884   5.794  14.388  0.6664 -1.1648  2.3492
 5270TIP3   OH237224   5.573   4.071   0.837  0.3779  0.1792  0.1573
 5270TIP3    H137225   5.606   3.983   0.857  0.3407  0.1445  0.0677
 5270TIP3    H237226   5.619   4.129   0.898  0.0080  0.0348  0.5726
 5271TIP3   OH237227   3.074   1.553  12.884  0.4716  0.2548  0.0484
 5271TIP3    H137228   3.130   1.562  12.962  0.1178 -0.1321  0.3537
 5271TIP3    H237229   3.065   1.642  12.851  1.9988  0.2198 -0.5317
 5272TIP3   OH237230   1.329   1.419  14.026  0.1971 -0.1316  0.2111
 5272TIP3    H137231   1.351   1.377  14.109  1.1477 -1.2928 -0.5970
 5272TIP3    H237232   1.242   1.384  14.004 -0.1976  0.4239  0.8567
 5273TIP3   OH237233   2.366   3.471  12.058  0.2170  0.0077  0.2847
 5273TIP3    H137234   2.332   3.411  11.992 -1.4795 -0.2172  1.2932
 5273TIP3    H237235   2.459   3.450  12.064 -0.1193 -1.7926 -0.1667
 5274TIP3   OH237236   0.917   0.763   0.012 -0.2075  0.0107 -0.1348
 5274TIP3    H137237   0.941   0.801   0.096 -2.5795  0.4735  0.4079
 5274TIP3    H237238   0.918   0.668   0.026  2.1202 -0.0640 -0.4403
 5275TIP3   OH237239   3.055   1.978  15.689  0.2790 -0.6174  0.2594
 5275TIP3    H137240   3.086   1.917  15.622 -0.1672 -0.4288 -0.1181
 5275TIP3    H237241   2.960   1.966  15.691  0.2446 -0.3049  0.5496
 5276TIP3   OH237242   0.982   0.625   6.016  0.4530  1.0016 -0.0129
 5276TIP3    H137243   1.005   0.717   6.024  2.2436  0.9964 -3.2351
 5276TIP3    H237244   1.041   0.579   6.075  0.3844  1.8298  0.7068
 5277TIP3   OH237245   6.612   1.500  16.603 -0.7897  0.0585 -0.0678
 5277TIP3    H137246   6.675   1.572  16.614 -2.1239  1.2719 -0.0872
 5277TIP3    H237247   6.626   1.443  16.678  1.1273 -0.3459 -0.6799
 5278TIP3   OH237248   0.322   1.368   5.002  0.1453  0.0804  0.2953
 5278TIP3    H137249   0.232   1.335   5.007  0.2573 -0.3938 -0.7012
 5278TIP3    H237250   0.357   1.356   5.090  0.3399 -2.8963 -0.1145
 5279TIP3   OH237251   2.296   2.237  10.246  0.1888  0.6146 -0.1437
 5279TIP3    H137252   2.314   2.312  10.302  2.0515 -0.8614  1.3376
 5279TIP3    H237253   2.367   2.175  10.263 -0.7476 -1.1158 -2.0147
 5280TIP3   OH237254   0.586   5.183   1.266  0.2422  0.7291  0.8935
 5280TIP3    H137255   0.573   5.156   1.175  0.7072  1.6598  0.5407
 5280TIP3    H237256   0.502   5.221   1.292  0.1539  0.5943  0.8080
 5281TIP3   OH237257   5.134   1.664   2.147 -0.2739 -0.2437 -0.3269
 5281TIP3    H137258   5.164   1.701   2.064  0.3283  1.7798  0.7205
 5281TIP3    H237259   5.075   1.731   2.183 -0.9307 -1.3026  0.6514
 5282TIP3   OH237260   4.382   4.375   1.216  0.0737 -0.3091  0.2204
 5282TIP3    H137261   4.445   4.431   1.170  0.7073 -0.2240  1.1530
 5282TIP3    H237262   4.380   4.295   1.164  0.5153 -0.0911 -0.1476
 5283TIP3   OH237263   4.335   2.071   2.433  0.0247 -0.0547  0.4347
 5283TIP3    H137264   4.273   2.007   2.469  0.5867 -0.1220  1.3241
 5283TIP3    H237265   4.325   2.064   2.338 -0.5386 -0.8413  0.5438
 5284TIP3   OH237266   2.269   2.758   2.376  0.2201 -0.3194 -0.0920
 5284TIP3    H137267   2.299   2.815   2.306 -0.1768  0.0168  0.0089
 5284TIP3    H237268   2.220   2.689   2.332  1.3607 -1.0293 -0.2828
 5285TIP3   OH237269   5.656   5.052   2.766  0.1096  0.0007 -0.3950
 5285TIP3    H137270   5.665   5.142   2.797  0.1583  0.2254 -1.0416
 5285TIP3    H237271   5.744   5.016   2.767  0.2205  0.2492 -0.9774
 5286TIP3   OH237272   2.640   5.798   1.564 -0.6335 -0.3931  0.3777
 5286TIP3    H137273   2.559   5.765   1.601 -0.4502 -1.2882 -0.0043
 5286TIP3    H237274   2.618   5.817   1.472 -0.6251  0.1474  0.4852
 5287TIP3   OH237275   2.557   0.920  11.964 -0.2258  0.5855 -0.3059
 5287TIP3    H137276   2.523   1.005  11.993 -0.5697  0.6541 -0.8768
 5287TIP3    H237277   2.613   0.942  11.889 -2.9537  0.0991 -2.6831
 5288TIP3   OH237278   4.138   1.798  16.496  0.0876 -0.0785  0.0164
 5288TIP3    H137279   4.095   1.797  16.410 -1.3273  0.3115  0.6993
 5288TIP3    H237280   4.211   1.859  16.484 -0.2911  0.2345 -0.8300
 5289TIP3   OH237281   4.698   2.812   2.388  0.0601 -0.4114  0.4362
 5289TIP3    H137282   4.681   2.888   2.443  1.8931 -0.6100  1.3776
 5289TIP3    H237283   4.648   2.741   2.429 -1.7981  0.2774 -0.5510
 5290TIP3   OH237284   0.390   0.454   6.189 -0.2115  0.6158  0.4360
 5290TIP3    H137285   0.453   0.457   6.116 -1.2537  0.7329 -0.4898
 5290TIP3    H237286   0.442   0.429   6.265  0.6706 -0.9786 -0.6342
 5291TIP3   OH237287   2.270   0.502   0.922  0.0248 -0.6784 -0.1931
 5291TIP3    H137288   2.223   0.522   0.842 -0.1848  1.5230  0.4324
 5291TIP3    H237289   2.207   0.519   0.992  1.0985  0.3284  0.5578
 5292TIP3   OH237290   5.981   5.628  15.758  0.1099 -0.2635  0.3681
 5292TIP3    H137291   6.056   5.671  15.798 -0.3719 -0.5461  1.6532
 5292TIP3    H237292   5.934   5.698  15.713  0.3755  0.1895  0.7836
 5293TIP3   OH237293   3.521   2.742   6.472  0.1086  0.0558 -0.3322
 5293TIP3    H137294   3.531   2.651   6.497 -1.7598 -0.1255 -0.1190
 5293TIP3    H237295   3.610   2.772   6.453  0.6066 -2.2800 -2.0905
 5294TIP3   OH237296   0.694   0.349   0.618 -0.6034  0.3509  0.0035
 5294TIP3    H137297   0.626   0.316   0.676 -0.1607  2.7320  2.0019
 5294TIP3    H237298   0.767   0.370   0.676  0.7374  0.6866 -1.7165
 5295TIP3   OH237299   0.683   6.349  14.287 -0.1383 -0.4970 -0.0217
 5295TIP3    H137300   0.669   6.280  14.353  1.7197 -1.1288 -0.2267
 5295TIP3    H237301   0.688   6.302  14.204  1.8717 -0.2717 -0.0852
 5296TIP3   OH237302   4.788   0.694  14.741  0.1894  0.1517 -0.1936
 5296TIP3    H137303   4.716   0.746  14.776  0.8266  0.9608 -0.0271
 5296TIP3    H237304   4.863   0.716  14.798 -0.0393 -2.8479  1.4827
 5297TIP3   OH237305   2.861   1.632  12.189  0.0978  0.2734  0.5569
 5297TIP3    H137306   2.850   1.724  12.167  0.7654  0.4020  0.7321
 5297TIP3    H237307   2.850   1.629  12.284  0.8413  0.3007  0.6500
 5298TIP3   OH237308   0.806   2.616  13.075  0.0509  0.0426  0.0373
 5298TIP3    H137309   0.800   2.539  13.132 -1.2575 -0.3563 -0.5960
 5298TIP3    H237310   0.721   2.620  13.032 -0.2587  2.3866  0.7307
 5299TIP3   OH237311   4.124   1.697  12.038 -0.4348 -0.1413  0.2207
 5299TIP3    H137312   4.171   1.669  11.960  1.6921 -1.4269  1.8355
 5299TIP3    H237313   4.060   1.760  12.007  1.6433  0.8795 -2.3070
 5300TIP3   OH237314   4.468   0.465  14.942 -0.1809 -0.1359  0.2485
 5300TIP3    H137315   4.484   0.371  14.953  1.1641 -0.0022 -0.3137
 5300TIP3    H237316   4.469   0.478  14.847  0.5406  0.5761  0.3454
 5301TIP3   OH237317   3.036   5.000  13.167 -0.2994  0.0376  0.1863
 5301TIP3    H137318   3.026   5.083  13.121 -0.1079  0.6333  1.2044
 5301TIP3    H237319   3.120   4.966  13.138 -0.4328  0.1315 -0.3205
 5302TIP3   OH237320   6.416   6.485   0.124  0.1255 -0.1205  0.1919
 5302TIP3    H137321   6.510   6.501   0.133 -0.1322  1.3916  0.5346
 5302TIP3    H237322   6.399   6.498   0.030  0.2217 -0.2045  0.1619
 5303TIP3   OH237323   2.721   1.108  12.512 -0.2019 -0.0713  0.1845
 5303TIP3    H137324   2.737   1.202  12.525  1.3716 -0.4424  1.1530
 5303TIP3    H237325   2.634   1.104  12.472 -1.4052  1.6703  2.3895
 5304TIP3   OH237326   0.391   1.324  10.728 -0.2972 -0.2185  1.0177
 5304TIP3    H137327   0.300   1.333  10.698 -0.0642 -0.1890  0.2891
 5304TIP3    H237328   0.422   1.414  10.738  0.4191 -0.1315 -1.2207
 5305TIP3   OH237329   1.077   1.275  15.354  0.3716  0.2634  0.1737
 5305TIP3    H137330   1.141   1.204  15.366 -0.1683 -0.3812 -0.5997
 5305TIP3    H237331   1.036   1.255  15.270 -2.3208 -0.5322  1.5630
 5306TIP3   OH237332   5.226   0.915   0.443  0.1266 -0.4447  0.4594
 5306TIP3    H137333   5.264   1.000   0.422 -0.8864 -0.5146 -2.1290
 5306TIP3    H237334   5.156   0.934   0.505  0.1058  0.5872  0.1341
 5307TIP3   OH237335   3.894   5.231  12.315  0.1425 -0.0790 -0.1546
 5307TIP3    H137336   3.865   5.318  12.341  1.4920  1.0624 -2.2182
 5307TIP3    H237337   3.942   5.197  12.391  1.1394  1.7269  0.0671
 5308TIP3   OH237338   3.076   3.133   1.669 -0.0238 -0.1832 -0.1383
 5308TIP3    H137339   3.121   3.055   1.700 -1.3643 -1.0187 -0.1997
 5308TIP3    H237340   3.042   3.108   1.583 -0.6897  0.3675 -0.0414
 5309TIP3   OH237341   1.345   0.296   5.057  0.0858 -0.4091 -0.0151
 5309TIP3    H137342   1.291   0.242   5.115 -1.7483  1.2921 -0.0566
 5309TIP3    H237343   1.389   0.232   5.000 -1.1733 -1.9166  0.6150
 5310TIP3   OH237344   1.384   0.614  14.040  0.0367 -0.1270 -0.2978
 5310TIP3    H137345   1.384   0.584  14.131  2.0268 -0.1161 -0.2699
 5310TIP3    H237346   1.368   0.709  14.047 -1.7776 -0.4133 -0.1190
 5311TIP3   OH237347   0.009   0.784   1.599  0.7518  0.5719 -0.3170
 5311TIP3    H137348   0.094   0.813   1.567  0.5618  1.3945 -0.1003
 5311TIP3    H237349  -0.053   0.849   1.566  0.3572  0.6208  0.4895
 5312TIP3   OH237350   4.257   5.258   0.369  0.2095  0.5057 -0.6122
 5312TIP3    H137351   4.291   5.306   0.444 -0.9705  1.1197 -0.4510
 5312TIP3    H237352   4.335   5.221   0.327  0.8691 -0.0001  1.0031
 5313TIP3   OH237353   4.999   3.321   0.759  0.1626 -0.6276 -0.4583
 5313TIP3    H137354   5.014   3.359   0.846 -0.3161 -0.1109 -0.6004
 5313TIP3    H237355   5.001   3.395   0.699  0.5772 -0.9942 -0.9063
 5314TIP3   OH237356   5.675   5.916   1.837 -0.7450 -0.1626  0.0482
 5314TIP3    H137357   5.658   6.010   1.837  1.7605  0.3671  1.2641
 5314TIP3    H237358   5.655   5.889   1.927 -0.1662 -0.5003  0.0802
 5315TIP3   OH237359   3.908   3.030  16.353  0.4692  0.2468  0.5263
 5315TIP3    H137360   3.865   3.067  16.431 -0.9041  2.0921 -0.9969
 5315TIP3    H237361   3.868   3.077  16.280  3.2778  0.1873 -1.1995
 5316TIP3   OH237362   1.686   3.587   5.735 -0.2895 -0.0759 -0.3312
 5316TIP3    H137363   1.761   3.538   5.702 -0.6080 -1.0216  0.3098
 5316TIP3    H237364   1.679   3.663   5.676  1.3405  0.2040 -0.2147
 5317TIP3   OH237365   1.234   1.126   2.490 -0.1120 -0.1206 -0.8411
 5317TIP3    H137366   1.321   1.107   2.523  0.5352  0.7720 -1.9793
 5317TIP3    H237367   1.191   1.040   2.488  1.3161 -0.8583 -1.8639
 5318TIP3   OH237368   0.720   1.269   3.860  0.3263  0.1083  0.8601
 5318TIP3    H137369   0.737   1.230   3.946 -0.1293  0.8102  1.2784
 5318TIP3    H237370   0.750   1.203   3.798 -0.0070 -0.7239  1.5531
 5319TIP3   OH237371   2.593   5.057   3.907  0.2393  0.3500 -0.1040
 5319TIP3    H137372   2.686   5.033   3.902  0.6079  1.7433 -0.5019
 5319TIP3    H237373   2.551   5.004   3.840  0.5947 -0.8652  0.5901
 5320TIP3   OH237374   6.230   4.688   0.075  0.0425 -0.0118  0.0728
 5320TIP3    H137375   6.219   4.593   0.080 -0.9532  0.0540 -0.4715
 5320TIP3    H237376   6.319   4.701   0.043 -0.0771 -0.7977 -0.6104
 5321TIP3   OH237377   2.194   3.193   0.517  0.1473  0.3106 -0.1251
 5321TIP3    H137378   2.136   3.208   0.443  0.3302  1.2802 -0.0851
 5321TIP3    H237379   2.148   3.129   0.571 -1.7254  2.3266  0.8061
 5322TIP3   OH237380   5.942   2.325  15.035  0.0073 -0.8131 -0.7713
 5322TIP3    H137381   5.927   2.291  14.946 -0.9653 -0.8614 -0.5947
 5322TIP3    H237382   5.975   2.414  15.021 -0.6786 -0.6144 -1.1807
 5323TIP3   OH237383   0.576   1.990   6.192 -0.0127 -0.1802 -0.1425
 5323TIP3    H137384   0.581   1.921   6.126 -0.7273 -1.3190  0.9314
 5323TIP3    H237385   0.616   1.951   6.270 -0.1833  0.7158  0.4028
 5324TIP3   OH237386   5.806   5.610  13.122  0.0222 -0.0690 -0.3190
 5324TIP3    H137387   5.774   5.674  13.185  0.1141 -0.1232 -0.2161
 5324TIP3    H237388   5.803   5.526  13.170  1.1988  0.0595  0.0115
 5325TIP3   OH237389   1.599   3.961   2.049 -0.5734  0.1161 -0.1981
 5325TIP3    H137390   1.626   3.917   1.968 -0.1312  1.4904 -0.8130
 5325TIP3    H237391   1.593   4.053   2.026 -0.8664  0.4782  1.2405
 5326TIP3   OH237392   1.761   1.625   2.083  0.0297 -0.6318 -0.0907
 5326TIP3    H137393   1.819   1.692   2.047  0.3335  0.3372  2.0489
 5326TIP3    H237394   1.716   1.588   2.007 -1.0383  2.7846 -1.2967
 5327TIP3   OH237395   0.466   5.219  13.290 -0.0576  0.4038 -0.3083
 5327TIP3    H137396   0.453   5.137  13.338  1.2918  0.2245 -0.1903
 5327TIP3    H237397   0.547   5.255  13.328  0.9539  0.3458 -2.2916
 5328TIP3   OH237398   3.183   3.015  17.128  0.0731 -0.1841  0.2735
 5328TIP3    H137399   3.234   2.949  17.175  0.1744 -0.3924 -0.1163
 5328TIP3    H237400   3.154   2.970  17.048  1.7326  0.7701 -0.9484
 5329TIP3   OH237401   1.034   5.015  10.881 -0.6345  0.0957  0.0560
 5329TIP3    H137402   1.015   4.938  10.828  1.2644 -1.5823  1.6405
 5329TIP3    H237403   1.087   4.982  10.953 -0.8241  2.7079  1.5250
 5330TIP3   OH237404   5.479   4.527  15.051  0.4456 -0.7427  0.4989
 5330TIP3    H137405   5.403   4.585  15.046  0.8366 -0.2937 -0.3162
 5330TIP3    H237406   5.442   4.441  15.072 -0.0973 -0.1273  2.2974
 5331TIP3   OH237407   5.536   2.408   6.236 -0.5731  0.0888  0.6452
 5331TIP3    H137408   5.586   2.361   6.303 -0.4364  2.8296  2.6422
 5331TIP3    H237409   5.456   2.356   6.225  0.6842 -1.9929  0.6645
 5332TIP3   OH237410   2.612   1.911   0.824  0.2976 -0.4152  0.4217
 5332TIP3    H137411   2.517   1.908   0.828  0.3105  0.1207  1.5103
 5332TIP3    H237412   2.632   1.940   0.735 -0.4903 -2.1710 -0.3779
 5333TIP3   OH237413   0.182   3.843  15.999 -0.1062  0.3208 -0.3320
 5333TIP3    H137414   0.253   3.819  15.939 -0.2602  0.1380 -0.4384
 5333TIP3    H237415   0.212   3.811  16.084 -0.6095 -0.8506 -0.5804
 5334TIP3   OH237416   0.456   4.608   3.374  0.2898 -0.4354  0.3155
 5334TIP3    H137417   0.473   4.544   3.443 -0.3352 -0.1191  0.7713
 5334TIP3    H237418   0.367   4.637   3.390 -0.4837 -1.5661 -1.6070
 5335TIP3   OH237419   1.579   2.435  12.864  0.3431  0.0137 -0.3875
 5335TIP3    H137420   1.582   2.515  12.916 -0.4469 -0.2954  0.1610
 5335TIP3    H237421   1.510   2.382  12.905  0.5395 -0.7560 -1.0108
 5336TIP3   OH237422   1.722   5.328  11.425  0.0514 -0.4507 -0.4778
 5336TIP3    H137423   1.631   5.306  11.447 -0.0106 -1.0836 -1.3376
 5336TIP3    H237424   1.774   5.281  11.490 -0.2203 -0.3515 -0.1841
 5337TIP3   OH237425   5.664   1.194  10.796 -0.0579 -0.2472 -0.6597
 5337TIP3    H137426   5.713   1.185  10.714  2.1932 -1.7477  0.7541
 5337TIP3    H237427   5.722   1.242  10.855 -1.3499  0.1881  0.3270
 5338TIP3   OH237428   1.757   4.195   1.614  0.3391  0.0064 -0.0731
 5338TIP3    H137429   1.732   4.283   1.583 -0.1964 -0.4763 -1.0634
 5338TIP3    H237430   1.700   4.136   1.565 -2.0071 -0.7851  3.2741
 5339TIP3   OH237431   0.376   1.451   4.033  0.3882  0.0393 -0.3073
 5339TIP3    H137432   0.468   1.468   4.050  0.0206  0.3007  1.6980
 5339TIP3    H237433   0.355   1.374   4.086 -0.8675  0.8623  0.4414
 5340TIP3   OH237434   5.574   5.175   5.821 -0.6665 -0.1868  0.1217
 5340TIP3    H137435   5.510   5.116   5.861 -2.1196  0.7372 -0.7830
 5340TIP3    H237436   5.659   5.136   5.844 -1.5246 -1.4941  1.2598
 5341TIP3   OH237437   6.706   2.459  13.143 -0.2722 -0.4370 -0.3532
 5341TIP3    H137438   6.782   2.423  13.189  0.2941  2.7004  1.4703
 5341TIP3    H237439   6.637   2.462  13.209 -1.4179 -1.4146 -1.4561
 5342TIP3   OH237440   3.485   3.345  15.348  0.0562  0.5424  0.9158
 5342TIP3    H137441   3.504   3.399  15.271 -0.6182  0.1018  0.4245
 5342TIP3    H237442   3.416   3.394  15.395 -0.6733  0.0435  0.3826
 5343TIP3   OH237443   0.672   5.051   1.621 -0.0406  0.0546 -0.1436
 5343TIP3    H137444   0.725   4.972   1.608  2.5519  2.1033 -4.3160
 5343TIP3    H237445   0.595   5.038   1.567 -0.0631  0.0320 -0.1062
 5344TIP3   OH237446   2.197   5.373   3.739 -0.0196  0.0753 -0.5672
 5344TIP3    H137447   2.263   5.411   3.681  1.9587  3.2238  3.2654
 5344TIP3    H237448   2.226   5.282   3.751  2.7755  0.8858 -0.3250
 5345TIP3   OH237449   4.670   3.741  13.198 -0.1214  0.6754 -0.1501
 5345TIP3    H137450   4.740   3.805  13.206  1.1229 -0.7551  1.2341
 5345TIP3    H237451   4.615   3.756  13.276 -1.1792  1.5272 -1.0218
 5346TIP3   OH237452   5.429   3.999  12.086 -0.1621 -0.0475 -0.3627
 5346TIP3    H137453   5.455   4.090  12.080 -1.2370  0.2318 -1.1314
 5346TIP3    H237454   5.496   3.950  12.039  0.7161  0.2730  0.5344
 5347TIP3   OH237455   2.782   1.626  16.535 -0.3660 -0.1406  0.2005
 5347TIP3    H137456   2.774   1.536  16.505 -0.2712  0.4173 -1.5783
 5347TIP3    H237457   2.854   1.663  16.484 -0.2520  0.8900  1.0665
 5348TIP3   OH237458   1.485   4.765  12.433 -0.0916  0.2018  0.1932
 5348TIP3    H137459   1.506   4.672  12.442  0.6320  0.2201 -1.0931
 5348TIP3    H237460   1.447   4.790  12.517  0.6703 -1.0017  0.9075
 5349TIP3   OH237461   2.739   6.181  14.085 -0.7735 -0.1709  0.3752
 5349TIP3    H137462   2.689   6.112  14.042 -0.6563 -0.8194  1.2488
 5349TIP3    H237463   2.830   6.159  14.068 -0.7433  0.2240 -0.0139
 5350TIP3   OH237464   6.536   4.677  15.080 -0.1012  0.2540  0.4533
 5350TIP3    H137465   6.521   4.692  14.987 -1.0035 -1.7605  0.2184
 5350TIP3    H237466   6.454   4.703  15.122  0.1475  0.7401  0.6433
 5351TIP3   OH237467   0.318   4.090  11.558 -0.1564 -0.1716 -0.3959
 5351TIP3    H137468   0.320   4.107  11.464 -2.4241 -1.9873 -0.8461
 5351TIP3    H237469   0.349   4.000  11.568 -0.1571 -0.0813  0.5706
 5352TIP3   OH237470   0.803   0.265   3.255  0.1141 -0.2142  0.8516
 5352TIP3    H137471   0.799   0.332   3.187  2.0929 -1.5409 -0.6692
 5352TIP3    H237472   0.887   0.279   3.299  0.9814 -2.1575 -0.0654
 5353TIP3   OH237473   2.199   5.300  11.399 -0.3676 -0.3568  0.5200
 5353TIP3    H137474   2.212   5.210  11.367  0.7184 -0.1215  0.2581
 5353TIP3    H237475   2.155   5.344  11.327  1.9533  0.1345 -0.6855
 5354TIP3   OH237476   2.744   0.486   2.904  0.0204 -0.3256 -0.1791
 5354TIP3    H137477   2.771   0.429   2.832  0.4064  1.5055 -1.5305
 5354TIP3    H237478   2.648   0.484   2.902  0.0191  0.3597 -1.2931
 5355TIP3   OH237479   6.223   1.528  12.531 -0.2889  0.1531  0.5482
 5355TIP3    H137480   6.285   1.515  12.603  0.6668 -1.0255 -0.4371
 5355TIP3    H237481   6.151   1.577  12.570  1.4653  2.0144  1.6358
 5356TIP3   OH237482   4.126   4.247  15.407 -0.9134 -0.3192  0.3496
 5356TIP3    H137483   4.148   4.159  15.377 -1.1845  0.3795 -2.1377
 5356TIP3    H237484   4.036   4.262  15.376 -0.7009  0.9876  0.2941
 5357TIP3   OH237485   4.185   6.252   2.259  0.5769 -0.1393  0.4366
 5357TIP3    H137486   4.232   6.274   2.179  1.4354  0.3368  1.0566
 5357TIP3    H237487   4.152   6.336   2.291 -1.8026 -0.5846 -0.6239
 5358TIP3   OH237488   3.180   1.044  11.357 -0.5797  0.2104 -0.2080
 5358TIP3    H137489   3.125   1.086  11.422 -2.6769 -2.2355 -0.2404
 5358TIP3    H237490   3.140   0.958  11.343  1.4405 -0.4752 -2.6342
 5359TIP3   OH237491   1.590   6.141  16.506  0.1587 -0.3675 -1.0469
 5359TIP3    H137492   1.595   6.196  16.428 -0.3046  1.2086  0.0010
 5359TIP3    H237493   1.497   6.126  16.518  0.0604  1.1356  0.3450
 5360TIP3   OH237494   6.373   1.092   5.295 -0.7429 -0.6072 -0.0300
 5360TIP3    H137495   6.363   1.053   5.382 -1.7550 -0.1869  0.0534
 5360TIP3    H237496   6.341   1.025   5.235  0.0441 -0.9341 -0.0990
 5361TIP3   OH237497   4.620   1.012   4.159 -0.3163  0.0176  0.2297
 5361TIP3    H137498   4.603   0.947   4.228  0.9437  0.0643  0.6174
 5361TIP3    H237499   4.537   1.020   4.112 -0.4414 -2.0854  0.0002
 5362TIP3   OH237500   2.598   1.907   1.174 -0.0304 -0.3439 -0.1240
 5362TIP3    H137501   2.514   1.950   1.157  0.6052  0.4290 -1.4444
 5362TIP3    H237502   2.581   1.815   1.157 -0.7664 -0.2861  0.2405
 5363TIP3   OH237503   0.342   3.069  13.859  0.0710  0.0495  0.1678
 5363TIP3    H137504   0.383   3.053  13.774 -1.3419  3.8511 -1.4491
 5363TIP3    H237505   0.414   3.067  13.922  1.4168 -1.2304 -1.3259
 5364TIP3   OH237506   1.100   5.785   1.537 -0.5918  0.8952  0.0867
 5364TIP3    H137507   1.069   5.795   1.447  1.4129  1.1501 -0.6245
 5364TIP3    H237508   1.092   5.692   1.556 -1.0983  0.8549 -0.3163
 5365TIP3   OH237509   1.424   2.446   0.769  0.0936  0.6146 -0.0013
 5365TIP3    H137510   1.438   2.354   0.789 -0.4795  0.3759 -0.6418
 5365TIP3    H237511   1.450   2.455   0.677 -2.3683  0.4663 -0.7935
 5366TIP3   OH237512   0.027   2.799  16.014 -0.2806 -0.0944 -0.2937
 5366TIP3    H137513   0.021   2.711  15.979 -0.4539  0.0453 -0.6174
 5366TIP3    H237514  -0.046   2.805  16.077 -0.6267  0.0097 -0.6991
 5367TIP3   OH237515   6.160   5.892   2.680 -0.2527 -0.5411 -1.0725
 5367TIP3    H137516   6.200   5.808   2.704 -0.7116 -0.2076  1.1493
 5367TIP3    H237517   6.066   5.878   2.692 -0.2224  1.1407  3.0576
 5368TIP3   OH237518   5.421   2.296   1.784 -0.3493  0.1907  0.6309
 5368TIP3    H137519   5.451   2.383   1.759  1.1605 -0.1040  1.3389
 5368TIP3    H237520   5.500   2.243   1.788 -1.2403 -1.2343  0.2067
 5369TIP3   OH237521   3.770   4.195  12.209  0.0407 -0.4046  0.2791
 5369TIP3    H137522   3.779   4.208  12.303 -1.0761  0.6975  0.2537
 5369TIP3    H237523   3.819   4.268  12.170 -0.4685 -0.2016  0.0212
 5370TIP3   OH237524   3.209   2.488  13.449  0.1327  0.0457 -0.1165
 5370TIP3    H137525   3.222   2.395  13.467  1.0797  0.5191  1.9459
 5370TIP3    H237526   3.114   2.497  13.439  0.0337 -1.1492 -0.4143
 5371TIP3   OH237527   0.914   0.447  16.050  0.0410  0.0102 -0.1397
 5371TIP3    H137528   0.952   0.419  16.133 -0.3644 -1.0584 -0.3032
 5371TIP3    H237529   0.878   0.534  16.068  1.3794  0.4893  0.3620
 5372TIP3   OH237530   4.224   0.477   3.850 -0.1238 -0.1242 -0.4109
 5372TIP3    H137531   4.195   0.552   3.901 -1.5988 -0.9716  0.0607
 5372TIP3    H237532   4.290   0.513   3.790 -0.2188  1.3733  0.3256
 5373TIP3   OH237533   1.269   1.556  15.950  0.1408  0.1208  0.8469
 5373TIP3    H137534   1.224   1.587  15.872  0.7788  0.9726  0.7955
 5373TIP3    H237535   1.361   1.549  15.923  0.1115 -1.2514  1.0388
 5374TIP3   OH237536   2.742   2.146  11.353  0.2483 -0.1077  0.0423
 5374TIP3    H137537   2.687   2.181  11.283  1.3004  1.6294  0.0288
 5374TIP3    H237538   2.699   2.175  11.434  1.2177  1.5252  0.0312
 5375TIP3   OH237539   5.869   3.757  10.570  0.7510  0.4911  0.2167
 5375TIP3    H137540   5.789   3.804  10.550 -0.2270 -0.9820  0.5179
 5375TIP3    H237541   5.939   3.818  10.547 -0.4401  2.2270  1.0092
 5376TIP3   OH237542   6.760   5.599  14.813 -0.2610  0.1590  0.3985
 5376TIP3    H137543   6.809   5.631  14.737 -0.4859  2.9445  1.3379
 5376TIP3    H237544   6.821   5.539  14.857  0.0668 -1.0942 -1.6224
 5377TIP3   OH237545   3.566   6.589   0.931 -0.2914  0.1521  0.4376
 5377TIP3    H137546   3.578   6.683   0.922 -0.4969  0.3077  1.6611
 5377TIP3    H237547   3.471   6.577   0.930 -0.2607 -0.1180 -0.2732
 5378TIP3   OH237548   6.607   0.307   2.189 -0.2893  0.0046 -0.1152
 5378TIP3    H137549   6.594   0.371   2.119 -0.9876 -1.9645 -1.8846
 5378TIP3    H237550   6.518   0.285   2.218 -0.0115  0.8158  1.4772
 5379TIP3   OH237551   2.504   0.974   5.364 -0.2127  0.0701 -0.2597
 5379TIP3    H137552   2.473   0.919   5.292 -0.4479  0.8762 -0.7830
 5379TIP3    H237553   2.505   1.062   5.328  0.6029  0.3579  0.4299
 5380TIP3   OH237554   5.876   5.033   1.621 -0.1332 -0.2729  0.1313
 5380TIP3    H137555   5.820   5.091   1.673  2.1687  2.9088 -0.6731
 5380TIP3    H237556   5.815   4.981   1.570 -2.4715  2.8015 -0.5075
 5381TIP3   OH237557   5.661   5.259  10.939 -0.8082  0.1810 -0.0805
 5381TIP3    H137558   5.727   5.328  10.948  0.0788 -0.5973 -0.5008
 5381TIP3    H237559   5.593   5.298  10.884 -0.2038  0.6388 -0.5174
 5382TIP3   OH237560   2.308   6.644   3.745 -0.4855  0.2633 -0.6911
 5382TIP3    H137561   2.374   6.693   3.695 -1.7520  0.9775 -1.7173
 5382TIP3    H237562   2.225   6.688   3.726 -1.2739 -0.5672  0.6302
 5383TIP3   OH237563   4.820   4.224   0.268 -0.0293  0.4127  0.5023
 5383TIP3    H137564   4.796   4.149   0.213 -3.0253  0.5179  1.4796
 5383TIP3    H237565   4.910   4.207   0.293  0.9630 -0.4522 -3.0555
 5384TIP3   OH237566   1.337   3.144  17.114  0.4087 -0.2788  0.4607
 5384TIP3    H137567   1.379   3.058  17.125  1.9164  0.2567 -0.7521
 5384TIP3    H237568   1.324   3.152  17.020 -0.5630  0.4600  0.6448
 5385TIP3   OH237569   4.096   2.426   1.502  0.1128 -0.7758 -0.1735
 5385TIP3    H137570   4.101   2.355   1.566 -2.4453 -1.7598 -0.9282
 5385TIP3    H237571   4.091   2.506   1.555  1.0907 -1.2914  0.7330
 5386TIP3   OH237572   1.043   4.824   6.653  0.2629 -0.2196  0.3209
 5386TIP3    H137573   1.130   4.847   6.687  0.9422 -1.0875 -0.7672
 5386TIP3    H237574   1.023   4.894   6.590  0.4373 -0.3176  0.1533
 5387TIP3   OH237575   0.902   4.437  14.856 -0.4186  0.8392  0.0751
 5387TIP3    H137576   0.820   4.402  14.821 -0.1742  1.0139 -0.7110
 5387TIP3    H237577   0.876   4.495  14.927 -0.9876  1.0132 -0.2738
 5388TIP3   OH237578   4.309   5.380  16.744  0.2477  0.3936  0.1947
 5388TIP3    H137579   4.226   5.338  16.720  0.0848 -0.2392  1.7511
 5388TIP3    H237580   4.345   5.412  16.661 -0.5781 -1.0983 -0.7749
 5389TIP3   OH237581   1.009   3.391  14.815  0.0440 -0.2284  0.0785
 5389TIP3    H137582   1.090   3.430  14.780  0.1946  0.2281  0.8890
 5389TIP3    H237583   1.037   3.309  14.854 -0.2779 -1.2071 -1.6546
 5390TIP3   OH237584   0.591   3.818  13.129 -0.5004 -0.3537 -0.0683
 5390TIP3    H137585   0.589   3.890  13.191 -1.3066 -0.0088 -0.4730
 5390TIP3    H237586   0.534   3.847  13.057 -0.2639 -1.0942 -0.5672
 5391TIP3   OH237587   5.548   6.565  12.863 -0.6009  0.3833 -0.4399
 5391TIP3    H137588   5.539   6.526  12.950  0.6911  0.7450 -0.1241
 5391TIP3    H237589   5.547   6.490  12.803  0.4710 -0.0479  0.0571
 5392TIP3   OH237590   3.822   6.499  12.278 -0.0270  0.2268  0.2735
 5392TIP3    H137591   3.823   6.464  12.188  1.3563  0.4597  0.1735
 5392TIP3    H237592   3.870   6.582  12.271  0.4511  0.0418  1.3018
 5393TIP3   OH237593   1.670   1.499  13.921 -0.4829 -0.4450  0.2732
 5393TIP3    H137594   1.658   1.437  13.849 -0.0456  0.3570 -0.4991
 5393TIP3    H237595   1.612   1.572  13.900 -0.0333 -0.0147  0.5288
 5394TIP3   OH237596   5.062   1.892   4.794 -0.2440 -0.5026  0.0072
 5394TIP3    H137597   4.987   1.891   4.853 -1.2883 -2.2602 -1.2484
 5394TIP3    H237598   5.137   1.903   4.851 -1.3674  0.0876  1.4239
 5395TIP3   OH237599   2.392   3.475   3.844 -0.0263 -0.0773 -0.3287
 5395TIP3    H137600   2.473   3.524   3.856 -0.2098  0.9716 -2.7167
 5395TIP3    H237601   2.406   3.426   3.764 -0.9429 -1.7095  0.4713
 5396TIP3   OH237602   0.658   2.867   3.914 -0.2500  0.5189 -0.4569
 5396TIP3    H137603   0.635   2.960   3.915  0.8498  0.8352 -1.6389
 5396TIP3    H237604   0.623   2.833   3.996  0.6230  2.3085  0.7416
 5397TIP3   OH237605   2.541   2.851  10.589  0.0230 -0.2548 -0.1491
 5397TIP3    H137606   2.600   2.782  10.619  0.0522  0.3961  1.3546
 5397TIP3    H237607   2.453   2.818  10.609  0.0418  0.1814  0.6691
 5398TIP3   OH237608   6.323   5.718   2.240  0.5171 -0.4811 -0.7677
 5398TIP3    H137609   6.272   5.741   2.162  1.0228  0.5581 -0.8144
 5398TIP3    H237610   6.395   5.781   2.241  0.0815  0.0461  0.9625
 5399TIP3   OH237611   5.536   1.076   1.587 -0.3923 -0.2805 -0.4736
 5399TIP3    H137612   5.445   1.098   1.608 -0.1981  0.8276 -0.7584
 5399TIP3    H237613   5.567   1.027   1.663 -1.2979 -0.8857 -0.4799
 5400TIP3   OH237614   4.525   1.929  12.999  0.3315 -0.3781 -0.0739
 5400TIP3    H137615   4.493   1.838  12.997 -1.5771  0.1825  1.2301
 5400TIP3    H237616   4.481   1.971  12.925 -1.6371  0.2591  1.3831
 5401TIP3   OH237617   4.149   6.370   0.378 -0.1964  0.0007  0.3642
 5401TIP3    H137618   4.179   6.431   0.312  0.2533 -1.3089 -0.6919
 5401TIP3    H237619   4.228   6.338   0.421 -0.5251  1.8032  2.5294
 5402TIP3   OH237620   0.597   4.600   1.216 -0.2265 -0.7904  0.1409
 5402TIP3    H137621   0.600   4.695   1.226 -0.2046 -0.8967  1.2584
 5402TIP3    H237622   0.689   4.574   1.210 -0.0305 -0.9949  2.8001
 5403TIP3   OH237623   5.062   4.650  14.045  0.0358  0.4657  0.3766
 5403TIP3    H137624   5.046   4.728  14.097  0.8550  0.1006  1.2059
 5403TIP3    H237625   5.112   4.592  14.103 -1.4489 -1.1160  0.1465
 5404TIP3   OH237626   0.424   3.169   2.348 -0.3657 -0.6780 -0.0772
 5404TIP3    H137627   0.367   3.110   2.300 -1.3752 -0.4584  0.8325
 5404TIP3    H237628   0.471   3.217   2.280 -0.2440 -1.8191 -0.8265
 5405TIP3   OH237629   5.270   6.043  12.624  0.4501 -0.4775  0.0340
 5405TIP3    H137630   5.265   5.949  12.642 -1.8173 -0.1110  1.7220
 5405TIP3    H237631   5.250   6.085  12.707 -1.5432  1.4532 -1.3017
 5406TIP3   OH237632   0.232   3.396  10.803  0.2836  0.4162 -0.2419
 5406TIP3    H137633   0.226   3.481  10.759 -1.6999  2.2182  3.0915
 5406TIP3    H237634   0.142   3.367  10.814  0.6644 -0.1967  1.9349
 5407TIP3   OH237635   2.233   1.922   5.732 -0.4388  0.3395  0.1417
 5407TIP3    H137636   2.243   2.009   5.773 -0.0280  0.9284 -1.1528
 5407TIP3    H237637   2.170   1.936   5.662  2.3360  0.5439 -2.5156
 5408TIP3   OH237638   6.506   3.918   4.433 -0.2623  0.1690  0.1065
 5408TIP3    H137639   6.533   3.996   4.385  1.9283 -0.3013  0.4575
 5408TIP3    H237640   6.506   3.848   4.367 -1.5692  0.3148 -0.0711
 5409TIP3   OH237641   4.833   6.083  11.299  0.5061  0.2556 -0.7755
 5409TIP3    H137642   4.765   6.017  11.315  0.2150  0.3566 -1.5653
 5409TIP3    H237643   4.916   6.035  11.309  0.3555  0.2912  0.9094
 5410TIP3   OH237644   2.467   2.413  13.130  0.5429  0.3471 -0.0672
 5410TIP3    H137645   2.522   2.471  13.078  1.4194  0.5367  1.0322
 5410TIP3    H237646   2.423   2.471  13.192 -0.1177  0.0687 -0.2641
 5411TIP3   OH237647   4.554   1.517   2.843 -0.1276 -0.3301  0.1165
 5411TIP3    H137648   4.575   1.610   2.839 -3.4408  0.4966 -1.9299
 5411TIP3    H237649   4.572   1.484   2.756  0.4799 -1.4965  0.6667
 5412TIP3   OH237650   4.937   6.346  16.600 -0.0407 -0.0452  0.1813
 5412TIP3    H137651   5.023   6.337  16.642 -0.4873  1.0076  1.4163
 5412TIP3    H237652   4.940   6.432  16.558 -0.6335  0.1911  0.6114
 5413TIP3   OH237653   6.202   3.225   3.920 -0.1578  0.4914 -0.3792
 5413TIP3    H137654   6.247   3.162   3.977  0.0448  0.0083 -1.0583
 5413TIP3    H237655   6.147   3.276   3.980 -0.6266 -0.5824  0.1414
 5414TIP3   OH237656   5.308   0.018   6.365 -0.0830 -0.4150  0.4234
 5414TIP3    H137657   5.259   0.073   6.304 -0.4227 -0.8182  0.3259
 5414TIP3    H237658   5.341  -0.054   6.310  1.8303  0.5743  0.1904
 5415TIP3   OH237659   4.564   6.694   3.985  0.3243 -0.7557  0.7102
 5415TIP3    H137660   4.506   6.720   4.057 -1.2741 -2.9486  0.3137
 5415TIP3    H237661   4.631   6.640   4.026 -1.8254 -3.8760  0.4486
 5416TIP3   OH237662   4.428   1.223  14.995  0.0911 -0.0473 -0.1166
 5416TIP3    H137663   4.378   1.247  14.917  1.6001  0.3986 -1.0084
 5416TIP3    H237664   4.453   1.132  14.981 -0.4763 -0.2704  0.3251
 5417TIP3   OH237665   1.342   0.875   2.058  0.2843 -0.1684  0.0897
 5417TIP3    H137666   1.350   0.783   2.081 -1.4483 -0.3136  0.2483
 5417TIP3    H237667   1.281   0.876   1.984  0.5789  0.8340 -0.1608
 5418TIP3   OH237668   5.048   3.752   5.641 -0.2877 -0.4667 -0.0069
 5418TIP3    H137669   5.064   3.815   5.711 -1.4168  0.9121 -0.9419
 5418TIP3    H237670   5.065   3.667   5.682 -0.5801  0.3149  1.8488
 5419TIP3   OH237671   1.818   3.435   4.128  0.2780 -0.1002  0.3647
 5419TIP3    H137672   1.744   3.376   4.118  0.3948 -0.2794  0.5631
 5419TIP3    H237673   1.829   3.445   4.222  1.3928 -1.1872  0.3632
 5420TIP3   OH237674   5.462   3.952  11.244  0.2172 -0.7077 -0.7005
 5420TIP3    H137675   5.451   3.860  11.222  1.5524 -0.9037 -0.5960
 5420TIP3    H237676   5.436   3.999  11.165  1.9859 -1.2846 -1.6752
 5421TIP3   OH237677   6.787   6.205   1.655  0.5596 -0.4951  0.8388
 5421TIP3    H137678   6.861   6.191   1.715  0.6912  1.1750  1.1056
 5421TIP3    H237679   6.719   6.244   1.710 -0.1246 -0.9891  0.3521
 5422TIP3   OH237680   3.486   2.972   2.255 -0.0794  0.1948  0.4195
 5422TIP3    H137681   3.534   3.012   2.182 -1.9665  0.8966 -0.4782
 5422TIP3    H237682   3.488   3.038   2.324 -1.8682  1.3089 -0.5216
 5423TIP3   OH237683   3.150   5.196   3.111 -0.3512 -0.3870 -0.1495
 5423TIP3    H137684   3.186   5.175   3.025 -0.3647  0.9622 -0.5125
 5423TIP3    H237685   3.197   5.140   3.172  0.5152 -0.5062 -0.9106
 5424TIP3   OH237686   3.674   2.112   2.577 -0.5788 -0.4659 -0.6231
 5424TIP3    H137687   3.678   2.031   2.527 -0.7137  1.1950 -3.5568
 5424TIP3    H237688   3.598   2.102   2.634 -0.7363 -2.2744 -1.0833
 5425TIP3   OH237689   5.333   1.472   0.976 -0.0294  0.2107  0.1681
 5425TIP3    H137690   5.254   1.512   0.940 -0.4122 -0.7419 -0.0638
 5425TIP3    H237691   5.301   1.415   1.047  0.4563 -0.0857  0.1518
 5426TIP3   OH237692   6.601   6.665  11.900 -0.0207  0.0068 -0.2890
 5426TIP3    H137693   6.590   6.738  11.961  0.6668 -0.3482  0.2822
 5426TIP3    H237694   6.540   6.684  11.829  0.5403  1.4259 -0.4343
 5427TIP3   OH237695   2.503   2.985   1.557  0.0024  0.7181  0.5264
 5427TIP3    H137696   2.487   3.078   1.571  1.3599  1.2414 -1.0804
 5427TIP3    H237697   2.597   2.979   1.541 -0.0450 -0.9559  0.6678
 5428TIP3   OH237698   5.729   3.534  14.586  0.4126  0.2549  0.0835
 5428TIP3    H137699   5.749   3.606  14.527 -1.4237  0.4496 -0.3751
 5428TIP3    H237700   5.773   3.557  14.668 -0.1314  1.9279 -0.0516
 5429TIP3   OH237701   2.995   4.712   5.073 -0.0814 -0.6857  0.3290
 5429TIP3    H137702   2.901   4.696   5.084 -0.4361  0.7465 -0.3252
 5429TIP3    H237703   3.024   4.744   5.159 -0.8354  1.5477 -0.1753
 5430TIP3   OH237704   0.829   4.900  11.865 -0.4547 -0.4045  0.6560
 5430TIP3    H137705   0.902   4.857  11.820  0.5772  0.7046  1.1893
 5430TIP3    H237706   0.759   4.835  11.866  0.7683 -1.7752  0.7672
 5431TIP3   OH237707   0.545   2.004   1.268  0.1536 -0.0625 -0.0548
 5431TIP3    H137708   0.560   1.988   1.174 -0.7123 -0.8252 -0.0865
 5431TIP3    H237709   0.581   2.091   1.284 -0.2650  0.3520 -1.2447
 5432TIP3   OH237710   4.573   2.165  13.633  0.2430  0.3947  0.0294
 5432TIP3    H137711   4.480   2.147  13.644  0.5194 -0.3117  1.6198
 5432TIP3    H237712   4.616   2.098  13.687  1.6745  0.5737 -0.8555
 5433TIP3   OH237713   3.471   0.507   1.208 -0.1093  0.5245  0.3394
 5433TIP3    H137714   3.407   0.577   1.220 -0.7732  0.0753 -0.5253
 5433TIP3    H237715   3.423   0.427   1.226 -0.2024  0.0733 -1.6750
 5434TIP3   OH237716   5.423   1.509  16.603  0.8434 -0.0987 -0.4446
 5434TIP3    H137717   5.367   1.586  16.598 -0.1902 -0.7893  0.0974
 5434TIP3    H237718   5.482   1.517  16.528  0.6778  1.1488 -0.4593
 5435TIP3   OH237719   5.996   0.938   1.684  0.1197 -0.3164 -0.2487
 5435TIP3    H137720   6.020   0.967   1.772  1.0305 -0.6787 -0.3675
 5435TIP3    H237721   5.992   1.019   1.633 -0.7885 -0.0640  0.1956
 5436TIP3   OH237722   3.560   3.015  11.276 -0.5324  0.5813  1.0220
 5436TIP3    H137723   3.575   3.054  11.190 -3.8466 -0.7779 -0.3647
 5436TIP3    H237724   3.537   3.089  11.333 -0.6291  1.2730  0.1032
 5437TIP3   OH237725   5.963   1.366  11.110 -0.5481  0.1389 -0.2120
 5437TIP3    H137726   5.933   1.369  11.019 -0.4448 -3.1363 -0.4832
 5437TIP3    H237727   5.900   1.309  11.154  2.0538 -2.4248  0.5004
 5438TIP3   OH237728   4.957   1.529  17.081  0.8504 -0.3399 -0.6233
 5438TIP3    H137729   5.002   1.480  17.012  0.4819 -0.2602 -0.9193
 5438TIP3    H237730   4.872   1.551  17.044  2.4569  4.3138 -2.2362
 5439TIP3   OH237731   2.055   1.428   1.171  0.3278  1.0681 -0.1604
 5439TIP3    H137732   1.995   1.437   1.097  1.3170 -0.6428 -1.2251
 5439TIP3    H237733   2.043   1.337   1.200  0.0747  1.6600  1.7114
 5440TIP3   OH237734   2.918   5.501  16.748 -0.1228  0.0600 -0.3873
 5440TIP3    H137735   3.000   5.503  16.698 -0.5942 -2.4584 -1.4480
 5440TIP3    H237736   2.916   5.413  16.786 -2.3002  0.0886 -0.3408
 5441TIP3   OH237737   3.849   1.903   0.273  0.2038 -0.2585  0.2568
 5441TIP3    H137738   3.839   1.995   0.246  2.3166 -0.1733 -0.4176
 5441TIP3    H237739   3.775   1.858   0.232 -1.1696  1.1967  1.0134
 5442TIP3   OH237740   6.362   1.048  12.456  0.4278  0.4223  0.1677
 5442TIP3    H137741   6.419   0.991  12.405 -2.2702 -0.1406 -2.5225
 5442TIP3    H237742   6.369   1.134  12.414 -0.3953  0.4181 -0.0114
 5443TIP3   OH237743   4.621   5.517   4.782  0.8295  0.0541  0.2100
 5443TIP3    H137744   4.584   5.440   4.827  1.2836  0.4149  1.2304
 5443TIP3    H237745   4.703   5.485   4.745  1.1870  0.1124  0.9235
 5444TIP3   OH237746   2.300   2.102   2.798 -0.0010  0.0808 -0.2783
 5444TIP3    H137747   2.311   2.194   2.777  0.7518  0.3115  1.0518
 5444TIP3    H237748   2.361   2.085   2.870  0.6314 -1.7072 -1.1518
 5445TIP3   OH237749   2.781   3.803  14.239 -0.6204  0.0595 -0.0661
 5445TIP3    H137750   2.846   3.859  14.196 -1.4764 -0.0196 -1.5273
 5445TIP3    H237751   2.699   3.852  14.232 -0.9474 -0.3514  0.7277
 5446TIP3   OH237752   6.410   6.135  15.980  0.4076 -0.2761  0.1392
 5446TIP3    H137753   6.430   6.042  15.986 -0.0663 -0.2716  2.7752
 5446TIP3    H237754   6.323   6.144  16.018 -0.3806  1.0503 -1.7782
 5447TIP3   OH237755   5.956   5.458  12.011 -0.1095 -0.3419 -0.3132
 5447TIP3    H137756   5.927   5.373  12.045  1.2138 -0.6505  0.1210
 5447TIP3    H237757   5.883   5.517  12.028 -1.9614 -1.8259 -2.6457
 5448TIP3   OH237758   2.566   6.748  13.159 -0.5124 -0.3984  0.1003
 5448TIP3    H137759   2.548   6.801  13.237  0.2281 -0.5679  0.3928
 5448TIP3    H237760   2.638   6.792  13.116 -1.5057  0.2039 -1.0000
 5449TIP3   OH237761   3.006   5.332   1.988 -0.0378  0.3951 -0.3725
 5449TIP3    H137762   3.065   5.399   1.953  2.1751 -0.4753  1.4102
 5449TIP3    H237763   3.003   5.350   2.082 -2.9458  0.5580 -0.4104
 5450TIP3   OH237764   5.317   0.123  13.952 -0.0780  0.3765  0.1680
 5450TIP3    H137765   5.273   0.045  13.985  0.1909 -0.1884 -0.7592
 5450TIP3    H237766   5.338   0.174  14.030 -0.0821 -0.5753  0.8049
 5451TIP3   OH237767   4.266   3.466  14.993  0.6903  0.5522  0.2877
 5451TIP3    H137768   4.304   3.434  15.075  1.0252  0.5980  0.1488
 5451TIP3    H237769   4.307   3.551  14.978 -1.4998  1.9458  1.5925
 5452TIP3   OH237770   3.082   6.418  17.056 -0.8482 -0.2578  0.1509
 5452TIP3    H137771   3.030   6.340  17.077 -0.0174 -1.0579 -0.6652
 5452TIP3    H237772   3.160   6.410  17.111 -0.5435 -0.2515 -0.2769
 5453TIP3   OH237773   6.121   5.962  10.362  0.4616 -0.5055 -0.2281
 5453TIP3    H137774   6.095   5.890  10.420 -1.2057 -0.6724 -1.1255
 5453TIP3    H237775   6.091   6.040  10.407  2.1953 -0.3180  0.7043
 5454TIP3   OH237776   1.580   4.611  15.701  0.3710  0.1840  0.2196
 5454TIP3    H137777   1.510   4.547  15.691  0.3838  0.1804  0.1503
 5454TIP3    H237778   1.570   4.670  15.627 -0.3009  0.8973  0.8567
 5455TIP3   OH237779   5.807   3.346   3.758  0.8413 -0.0016 -0.3639
 5455TIP3    H137780   5.776   3.308   3.840  1.6890 -0.4192 -0.2342
 5455TIP3    H237781   5.727   3.359   3.707  0.1533  1.3262  0.9532
 5456TIP3   OH237782   5.691   0.487  15.760 -0.2280  0.0398  0.1867
 5456TIP3    H137783   5.663   0.452  15.675 -0.2758  0.6340 -0.0455
 5456TIP3    H237784   5.670   0.580  15.756 -0.0603  0.1077  0.7836
 5457TIP3   OH237785   2.411   6.663  11.905 -0.5797  0.2518  0.0246
 5457TIP3    H137786   2.327   6.643  11.945 -0.2681  0.5701  0.8463
 5457TIP3    H237787   2.401   6.751  11.869 -0.8625 -0.0388 -0.6299
 5458TIP3   OH237788   3.886   2.242  14.544 -0.8630  0.0144  0.7422
 5458TIP3    H137789   3.963   2.186  14.541 -2.3373 -2.1007 -1.0887
 5458TIP3    H237790   3.840   2.216  14.623 -0.7481 -0.2485  0.7230
 5459TIP3   OH237791   3.113   3.537   2.084 -0.2789 -0.6814 -0.2333
 5459TIP3    H137792   3.149   3.546   1.996  0.0157  1.2068  0.0283
 5459TIP3    H237793   3.018   3.536   2.072 -0.2430 -2.4593 -0.6831
 5460TIP3   OH237794   4.730   0.398   4.706 -0.3339  0.0292  0.2658
 5460TIP3    H137795   4.757   0.446   4.628  1.0328 -2.7575 -1.1154
 5460TIP3    H237796   4.638   0.375   4.689 -0.3269  0.2384 -0.0616
 5461TIP3   OH237797   2.139   5.227  15.732  0.4048  0.1026  0.5982
 5461TIP3    H137798   2.172   5.173  15.661  1.3526 -1.6076  2.2486
 5461TIP3    H237799   2.049   5.196  15.747  0.2608  0.3555  0.2736
 5462TIP3   OH237800   3.667   2.542  17.027  0.1952  0.2298 -0.3390
 5462TIP3    H137801   3.750   2.580  17.000  0.1974 -1.0004 -2.2451
 5462TIP3    H237802   3.676   2.448  17.010 -1.9615  0.2039 -1.8256
 5463TIP3   OH237803   3.068   0.580  12.414  0.1457  0.5196  0.4100
 5463TIP3    H137804   3.162   0.584  12.393  0.0044 -1.5725 -0.9177
 5463TIP3    H237805   3.064   0.596  12.508  2.0447 -0.8783  0.7972
 5464TIP3   OH237806   1.213   4.967   3.880 -0.5363 -0.1071  0.1176
 5464TIP3    H137807   1.303   4.996   3.864  0.0863 -2.3819 -0.8149
 5464TIP3    H237808   1.218   4.872   3.885 -2.6413 -0.2034  1.9174
 5465TIP3   OH237809   0.986   4.004   0.558 -0.3350  0.2121 -0.0263
 5465TIP3    H137810   1.065   3.999   0.611 -0.9120 -1.1257  0.7569
 5465TIP3    H237811   0.924   4.056   0.610 -0.6845 -0.5491  0.3196
 5466TIP3   OH237812   5.001   0.800   0.946 -0.0073 -0.3298  0.0898
 5466TIP3    H137813   4.984   0.779   1.038  0.0594 -0.0047  0.1777
 5466TIP3    H237814   4.985   0.718   0.899  0.0386 -0.5173  0.4009
 5467TIP3   OH237815   4.257   3.899   0.029 -0.4540 -0.3366 -0.5766
 5467TIP3    H137816   4.304   3.853   0.098 -1.1154  0.1715  0.2209
 5467TIP3    H237817   4.208   3.832  -0.017  0.4673 -0.7687 -0.9650
 5468TIP3   OH237818   6.484   2.805  16.792 -0.1246  0.2148  0.1204
 5468TIP3    H137819   6.534   2.880  16.761 -0.9493  0.5392 -0.4672
 5468TIP3    H237820   6.545   2.732  16.789  0.1055  0.4330 -1.3436
 5469TIP3   OH237821   2.166   4.598  13.703  0.0319 -0.0474 -0.8528
 5469TIP3    H137822   2.137   4.596  13.794 -0.7537  0.6425 -1.0754
 5469TIP3    H237823   2.213   4.515  13.691  0.2410 -0.0962  0.2032
 5470TIP3   OH237824   0.507   2.362  12.838  0.0735  0.3161 -0.0492
 5470TIP3    H137825   0.518   2.453  12.866  0.7242  0.5995 -1.1364
 5470TIP3    H237826   0.593   2.323  12.853  0.5855  0.5964 -1.9494
 5471TIP3   OH237827   1.360   2.162  12.407  0.1915  0.0991  0.1535
 5471TIP3    H137828   1.352   2.193  12.497  1.8130 -1.4903  0.9051
 5471TIP3    H237829   1.269   2.153  12.376 -0.3739  0.9597  1.4968
 5472TIP3   OH237830   4.535   2.146   4.000 -0.1139  0.4918 -0.0964
 5472TIP3    H137831   4.535   2.122   3.908 -1.5238  0.9279 -0.2220
 5472TIP3    H237832   4.596   2.219   4.006  0.2809  0.2116 -0.6059
 5473TIP3   OH237833   2.589   4.085  13.928  0.0093  0.1287 -0.4061
 5473TIP3    H137834   2.550   4.119  14.009  3.8130 -3.8668  3.7105
 5473TIP3    H237835   2.530   4.015  13.900 -0.8564  0.9216 -0.6255
 5474TIP3   OH237836   1.538   5.617   1.801  0.7188  0.4508  0.1073
 5474TIP3    H137837   1.480   5.678   1.754 -0.0562 -1.4665 -1.5923
 5474TIP3    H237838   1.533   5.646   1.892 -1.7636  1.3018 -0.1965
 5475TIP3   OH237839   0.469   2.442  11.101 -0.0094  0.0649  0.0777
 5475TIP3    H137840   0.380   2.477  11.095 -0.0172  0.0488  0.1009
 5475TIP3    H237841   0.517   2.508  11.152 -0.2564 -0.4144  0.9483
 5476TIP3   OH237842   3.824   3.249  13.908 -0.4213 -0.3332  0.1874
 5476TIP3    H137843   3.825   3.204  13.824 -0.0400 -0.0595  0.0419
 5476TIP3    H237844   3.756   3.316  13.900 -1.2565 -1.1158  0.5357
 5477TIP3   OH237845   1.545   2.395   3.099 -0.0388 -0.1908  1.1464
 5477TIP3    H137846   1.511   2.448   3.027  1.7495  1.6624  1.5448
 5477TIP3    H237847   1.470   2.348   3.133 -1.6125  1.5753  0.2803
 5478TIP3   OH237848   3.967   4.210  11.420 -0.0011 -0.2603 -0.4612
 5478TIP3    H137849   4.010   4.152  11.357  0.0397 -0.8618  0.1095
 5478TIP3    H237850   3.888   4.240  11.375 -0.1345 -0.9299 -0.6871
 5479TIP3   OH237851   3.736   4.042   5.769 -0.0115  0.7154 -0.1108
 5479TIP3    H137852   3.700   4.126   5.799 -0.0717 -0.1894  2.5981
 5479TIP3    H237853   3.831   4.051   5.779 -0.0122  0.4712  0.1036
 5480TIP3   OH237854   6.396   0.212  16.746  0.1075  0.5992 -0.0471
 5480TIP3    H137855   6.470   0.158  16.772  0.0929  0.9412  0.7069
 5480TIP3    H237856   6.391   0.201  16.651  0.3813 -0.3691  0.0394
 5481TIP3   OH237857   2.238   5.254   1.153 -0.3537  0.0228 -0.6986
 5481TIP3    H137858   2.226   5.291   1.065 -1.4657 -1.9488 -1.4469
 5481TIP3    H237859   2.161   5.198   1.166  0.7463 -1.2449  0.7351
 5482TIP3   OH237860   5.892   6.540   6.128  0.8519  0.1893  0.5520
 5482TIP3    H137861   5.826   6.597   6.167  1.3752  0.6868  0.7259
 5482TIP3    H237862   5.913   6.477   6.197 -1.6666 -1.9594 -0.4854
 5483TIP3   OH237863   6.234   0.043   2.536 -0.1524 -0.6415  0.1817
 5483TIP3    H137864   6.215  -0.045   2.505  0.5553 -0.9736  0.6535
 5483TIP3    H237865   6.324   0.060   2.506 -0.9960  0.7671 -1.7451
 5484TIP3   OH237866   2.309   3.110  16.596  0.6846  0.7654 -0.0647
 5484TIP3    H137867   2.293   3.044  16.528  1.8550 -0.2831  0.6346
 5484TIP3    H237868   2.248   3.181  16.575 -0.7132 -0.5780 -0.7670
 5485TIP3   OH237869   3.344   6.468   2.400  0.1627  0.2155 -0.1026
 5485TIP3    H137870   3.392   6.393   2.363 -0.6040 -1.3703  1.9142
 5485TIP3    H237871   3.395   6.493   2.477 -0.6598  0.4497  0.3765
 5486TIP3   OH237872   6.382   6.524   6.511  0.1243  0.3163  0.0711
 5486TIP3    H137873   6.360   6.437   6.478  0.7188  0.4992 -0.8367
 5486TIP3    H237874   6.466   6.545   6.471 -0.8087  2.0106 -1.1080
 5487TIP3   OH237875   0.501   4.771  11.037  0.1883  0.3157  0.4401
 5487TIP3    H137876   0.548   4.852  11.015 -0.0593  0.4600  0.4412
 5487TIP3    H237877   0.570   4.709  11.059  0.3270  1.2236  2.9020
 5488TIP3   OH237878   1.665   5.816  16.843  0.2235 -0.5915  0.2107
 5488TIP3    H137879   1.724   5.890  16.846 -0.8117  0.3257 -1.0188
 5488TIP3    H237880   1.642   5.799  16.935  0.8687  0.2701  0.5392
 5489TIP3   OH237881   2.359   0.742   1.256 -0.6799  0.1939  0.0272
 5489TIP3    H137882   2.452   0.753   1.277  0.1253 -1.2474 -2.3699
 5489TIP3    H237883   2.335   0.659   1.296 -0.3684 -0.3652 -0.9042
 5490TIP3   OH237884   0.530   4.990   0.270  0.2040  0.4605  0.1679
 5490TIP3    H137885   0.528   4.906   0.314  0.4375 -0.5060 -1.5618
 5490TIP3    H237886   0.441   5.003   0.238 -0.2790  1.7463  1.9019
 5491TIP3   OH237887   3.555   5.470   5.832  0.4912  0.0368 -0.2109
 5491TIP3    H137888   3.559   5.564   5.812  0.1816  0.0677 -0.1357
 5491TIP3    H237889   3.543   5.466   5.927 -1.1732 -0.0329 -0.3985
 5492TIP3   OH237890   6.596   5.203  11.306 -0.0783  0.0007  0.0300
 5492TIP3    H137891   6.665   5.256  11.266 -1.5044  1.7002 -0.3291
 5492TIP3    H237892   6.547   5.265  11.360 -1.4750 -1.0871  0.0742
 5493TIP3   OH237893   1.095   6.012  17.004  0.2383  0.3691  0.0067
 5493TIP3    H137894   1.114   5.920  17.023  0.9517  0.1446 -1.5708
 5493TIP3    H237895   1.133   6.060  17.078 -3.1530 -0.7029  2.6782
 5494TIP3   OH237896   0.952   0.004  12.358  0.3034 -0.4879 -0.1478
 5494TIP3    H137897   1.018   0.018  12.426 -0.2292 -0.5176  0.3832
 5494TIP3    H237898   0.936   0.091  12.321 -0.3392 -0.2499  0.6538
 5495TIP3   OH237899   3.667   5.104  12.188 -0.1494  0.3186  0.1585
 5495TIP3    H137900   3.685   5.011  12.179  0.5562  0.5255 -0.7985
 5495TIP3    H237901   3.732   5.136  12.250 -1.6467 -0.1519  2.0716
 5496TIP3   OH237902   3.046   1.695   5.279  0.1555 -0.2417  0.0613
 5496TIP3    H137903   3.097   1.751   5.220 -0.5811  0.0055 -0.3521
 5496TIP3    H237904   3.034   1.613   5.230 -0.0836 -0.1979  0.0475
 5497TIP3   OH237905   2.006   1.781   3.979 -0.2102 -0.1316  0.2570
 5497TIP3    H137906   2.079   1.723   3.999 -1.3485 -1.3210  1.1704
 5497TIP3    H237907   2.001   1.841   4.054 -0.5085 -0.4066  0.4574
 5498TIP3   OH237908   1.899   2.837  10.931  0.0388 -0.1085 -0.1346
 5498TIP3    H137909   1.827   2.792  10.887  0.5042  0.3410 -1.3908
 5498TIP3    H237910   1.973   2.776  10.925 -0.4434 -1.0112  2.0439
 5499TIP3   OH237911   4.843   1.534   0.445  0.4910  0.4349  0.1737
 5499TIP3    H137912   4.908   1.465   0.434  1.4223  1.1990  0.7289
 5499TIP3    H237913   4.783   1.523   0.371  0.3528 -1.2270  0.4872
 5500TIP3   OH237914   5.833   4.625  15.877 -0.2990  0.0001 -0.2278
 5500TIP3    H137915   5.795   4.551  15.926  0.7217  1.1996  2.5968
 5500TIP3    H237916   5.927   4.608  15.879 -0.1746  0.5879 -0.9684
 5501TIP3   OH237917   3.126   3.824  13.014 -0.7244  0.3540 -0.3480
 5501TIP3    H137918   3.192   3.806  12.948 -0.7270 -0.1835 -0.2071
 5501TIP3    H237919   3.119   3.920  13.016  1.9116  0.6002  1.4328
 5502TIP3   OH237920   5.899   2.147   5.963 -0.5804  0.0114  0.2466
 5502TIP3    H137921   5.818   2.104   5.933 -1.2753  1.9188 -0.8374
 5502TIP3    H237922   5.868   2.225   6.010  0.6332  0.6787 -0.0309
 5503TIP3   OH237923   0.804   1.966   4.107 -0.0964  0.0688  0.0742
 5503TIP3    H137924   0.802   1.966   4.012 -2.4661  2.4942  0.0059
 5503TIP3    H237925   0.715   1.940   4.133  0.5259 -0.6159  1.6400
 5504TIP3   OH237926   5.424   5.581  13.418  0.1398  0.2560  0.0832
 5504TIP3    H137927   5.504   5.629  13.396 -0.4376  2.4786  2.3896
 5504TIP3    H237928   5.354   5.644  13.404 -1.0960 -1.1830 -0.4496
 5505TIP3   OH237929   0.492   0.448  15.485  0.3570 -0.4955 -0.6818
 5505TIP3    H137930   0.513   0.474  15.396 -0.6304 -3.5050 -1.8922
 5505TIP3    H237931   0.399   0.470  15.495  0.6657  0.6356 -0.0109
 5506TIP3   OH237932   1.204   2.077  14.933  0.1245 -0.9143 -0.5633
 5506TIP3    H137933   1.298   2.074  14.919  0.2856 -0.0928  0.2505
 5506TIP3    H237934   1.188   2.013  15.003  0.2637 -0.1771  0.1604
 5507TIP3   OH237935   0.373   0.047   5.730  0.1097 -0.3068 -0.0801
 5507TIP3    H137936   0.290   0.011   5.763  0.7494 -0.5533  1.3347
 5507TIP3    H237937   0.388   0.125   5.783  1.3958 -0.9482  0.5417
 5508TIP3   OH237938   3.779   6.292   3.037 -0.3109 -0.2372 -0.3096
 5508TIP3    H137939   3.783   6.381   3.071 -1.0432 -0.4801  0.4200
 5508TIP3    H237940   3.783   6.303   2.942 -1.3577  0.6340 -0.2638
 5509TIP3   OH237941   4.921   6.509  15.018  0.5158 -0.1594 -0.5517
 5509TIP3    H137942   4.923   6.505  15.114  1.8703 -0.8967 -0.5805
 5509TIP3    H237943   4.831   6.533  14.997  0.3177  0.5000  0.9158
 5510TIP3   OH237944   5.649   1.571   4.192 -0.1072 -0.2343  0.1988
 5510TIP3    H137945   5.594   1.600   4.264  1.4563 -1.3641  1.9594
 5510TIP3    H237946   5.607   1.491   4.160 -0.4535 -0.1117  0.3472
 5511TIP3   OH237947   5.946   3.531   2.655  0.3576 -0.4651 -0.4567
 5511TIP3    H137948   5.874   3.485   2.698  0.7075 -0.8435 -0.2807
 5511TIP3    H237949   5.956   3.612   2.706  0.8164 -0.9412  0.2131
 5512TIP3   OH237950   6.616   0.563   3.935  0.0998 -0.0939  0.2463
 5512TIP3    H137951   6.554   0.500   3.972  0.7210 -0.2721  1.0101
 5512TIP3    H237952   6.621   0.539   3.842  0.6823 -1.5012  0.6137
 5513TIP3   OH237953   2.389   5.364  12.875  0.3315 -0.2571  0.0393
 5513TIP3    H137954   2.338   5.436  12.913 -0.6988 -0.5735 -0.6992
 5513TIP3    H237955   2.475   5.402  12.859 -0.4907  1.1541 -1.3170
 5514TIP3   OH237956   1.616   3.345   2.584  0.2653 -0.2543 -0.0146
 5514TIP3    H137957   1.582   3.278   2.524 -3.0742 -0.6583  2.0607
 5514TIP3    H237958   1.599   3.309   2.671  2.9339  1.2567  1.2546
 5515TIP3   OH237959   6.035   5.077   0.100  0.6768 -0.1406 -0.0342
 5515TIP3    H137960   6.113   5.027   0.123  0.5611 -0.0514  0.5633
 5515TIP3    H237961   5.963   5.029   0.140  0.4584 -0.0441 -0.3082
 5516TIP3   OH237962   4.548   2.540  11.631 -0.4494 -0.0091  0.7212
 5516TIP3    H137963   4.460   2.573  11.618  0.2514  1.6518 -0.1243
 5516TIP3    H237964   4.586   2.538  11.543  0.7647  0.5771  1.2092
 5517TIP3   OH237965   1.342   0.862  11.523  0.3938  0.1227 -0.5135
 5517TIP3    H137966   1.345   0.771  11.495  2.1134  0.0223 -0.1146
 5517TIP3    H237967   1.395   0.864  11.602 -3.7144  0.5090  2.5778
 5518TIP3   OH237968   4.891   4.700   2.583  0.3767  0.4220  0.2152
 5518TIP3    H137969   4.828   4.692   2.512 -2.4618  1.6793  2.3878
 5518TIP3    H237970   4.919   4.792   2.580 -0.7702  0.8346  1.4461
 5519TIP3   OH237971   5.630   5.675   5.244 -0.7769 -0.4342  0.1670
 5519TIP3    H137972   5.700   5.626   5.202  0.1058  1.0839 -0.2110
 5519TIP3    H237973   5.572   5.700   5.172 -0.2508  0.5742  0.0599
 5520TIP3   OH237974   1.117   2.923  15.428 -0.4530 -0.3623 -0.1287
 5520TIP3    H137975   1.206   2.925  15.394 -0.5544 -0.3746 -0.3979
 5520TIP3    H237976   1.127   2.916  15.523 -0.1669  0.4093 -0.0996
 5521TIP3   OH237977   1.913   0.898   2.887 -0.1610 -0.4011 -0.3286
 5521TIP3    H137978   1.965   0.819   2.870  0.9804 -0.0695  1.3007
 5521TIP3    H237979   1.867   0.878   2.969 -2.1268 -0.4131 -1.3718
 5522TIP3   OH237980   2.610   3.465   0.215  0.6653  0.6839 -0.0749
 5522TIP3    H137981   2.559   3.546   0.203 -1.0833 -0.2115  0.8861
 5522TIP3    H237982   2.549   3.405   0.257  1.9033 -1.1902 -0.8374
 5523TIP3   OH237983   0.540   1.893   5.782 -0.2020  0.5715 -0.1021
 5523TIP3    H137984   0.561   1.858   5.869 -1.0495  1.1644  0.3603
 5523TIP3    H237985   0.619   1.941   5.757  0.1145  0.2532  0.2732
 5524TIP3   OH237986   2.438   3.106  12.095  0.2341 -0.1435  0.1018
 5524TIP3    H137987   2.493   3.033  12.124  0.5428  0.4584  1.1201
 5524TIP3    H237988   2.377   3.068  12.032 -1.3156 -1.8611  2.4789
 5525TIP3   OH237989   1.654   3.925  15.059  0.3322  0.0966 -0.4628
 5525TIP3    H137990   1.745   3.905  15.036  0.2969 -0.2579 -0.2946
 5525TIP3    H237991   1.655   3.935  15.154  0.3444  0.8751 -0.5332
 5526TIP3   OH237992   3.848   1.859   4.130  0.2404  0.0189  0.0266
 5526TIP3    H137993   3.822   1.767   4.130  1.3301 -0.3084 -0.4048
 5526TIP3    H237994   3.942   1.857   4.113  0.6297  1.1169  1.7321
 5527TIP3   OH237995   5.396   1.997  12.407 -0.1166  0.2669  0.7724
 5527TIP3    H137996   5.465   1.981  12.471  1.0441  0.9421 -0.2755
 5527TIP3    H237997   5.350   2.075  12.440  0.2766  0.4261  0.9426
 5528TIP3   OH237998   3.001   2.195  12.786 -0.0417  0.1388 -0.2666
 5528TIP3    H137999   2.941   2.244  12.730  0.0611 -0.4323 -0.8926
 5528TIP3    H238000   2.961   2.196  12.873  0.2947  1.9201 -0.1052
 5529TIP3   OH238001   2.764   0.448   4.783 -0.1970 -0.8491  0.5788
 5529TIP3    H138002   2.814   0.370   4.808  0.0210 -1.0495 -0.4701
 5529TIP3    H238003   2.824   0.521   4.797 -0.7953 -0.7027  2.7569
 5530TIP3   OH238004   0.847   4.583   5.841 -0.2978  0.6637 -0.2460
 5530TIP3    H138005   0.759   4.556   5.867  0.2786 -0.3351  0.7980
 5530TIP3    H238006   0.900   4.568   5.920  0.7667  1.4450 -0.7937
 5531TIP3   OH238007   5.783   1.773   0.031  0.1729  0.0768  0.1384
 5531TIP3    H138008   5.805   1.863   0.006  0.5347 -1.1877 -5.2798
 5531TIP3    H238009   5.857   1.744   0.084  1.5953  2.0449 -0.6665
 5532TIP3   OH238010   2.186   3.040  13.342 -0.2665 -0.3098 -0.1534
 5532TIP3    H138011   2.140   3.123  13.358  1.7667  0.7271  0.8157
 5532TIP3    H238012   2.240   3.028  13.420 -0.2008 -2.3679 -0.4624
 5533TIP3   OH238013   1.934   0.933   3.620 -0.3717  0.5963  0.2804
 5533TIP3    H138014   1.868   0.975   3.564 -1.3901  0.7896  1.5568
 5533TIP3    H238015   1.894   0.935   3.707  0.5779 -0.9261  0.7721
 5534TIP3   OH238016   5.209   5.354  11.542 -0.3396  0.0172 -0.0889
 5534TIP3    H138017   5.185   5.351  11.450 -0.3411 -0.5310 -0.0729
 5534TIP3    H238018   5.125   5.359  11.588 -0.3058  2.1066 -0.1644
 5535TIP3   OH238019   2.893   5.486  12.598 -0.5666 -0.4630  0.6122
 5535TIP3    H138020   2.855   5.403  12.567  1.3724 -1.5242  0.9239
 5535TIP3    H238021   2.910   5.536  12.518 -1.7344 -0.3518  0.4199
 5536TIP3   OH238022   6.577   1.841   4.673  0.0920  0.5618  0.2899
 5536TIP3    H138023   6.611   1.802   4.754 -0.7849  1.4257  1.0888
 5536TIP3    H238024   6.544   1.767   4.623  2.1057 -0.1926 -0.0411
 5537TIP3   OH238025   6.028   4.795  14.936 -0.0778  0.4591 -0.1190
 5537TIP3    H138026   6.041   4.714  14.986 -2.3417 -0.1389 -0.3689
 5537TIP3    H238027   6.012   4.861  15.003 -2.6504 -0.2509  0.0803
 5538TIP3   OH238028   5.405   4.827  10.793 -0.6413  0.1203 -0.7170
 5538TIP3    H138029   5.487   4.874  10.787 -0.9112  0.4434 -2.5932
 5538TIP3    H238030   5.338   4.891  10.768 -1.6957  0.3042  2.2183
 5539TIP3   OH238031   0.514   2.221  13.289 -0.2017 -0.2432 -0.1065
 5539TIP3    H138032   0.434   2.235  13.238  0.6374 -0.0869 -1.4455
 5539TIP3    H238033   0.579   2.279  13.249  0.5693 -0.3038  0.9997
 5540TIP3   OH238034   3.181   5.661   4.005 -0.8156 -0.0318  0.6341
 5540TIP3    H138035   3.098   5.648   4.052 -0.5602  1.3069  1.4776
 5540TIP3    H238036   3.242   5.692   4.072 -0.0442  0.4633 -0.2856
 5541TIP3   OH238037   5.961   5.031   1.006 -0.3233  0.8741  0.1292
 5541TIP3    H138038   5.880   5.049   1.054 -0.9122 -0.7549 -0.1644
 5541TIP3    H238039   5.939   5.049   0.915 -2.0098 -3.8072 -0.7090
 5542TIP3   OH238040   1.128   4.579  14.189 -0.0149 -0.0605  0.5510
 5542TIP3    H138041   1.138   4.608  14.280 -2.6983 -0.2493  0.9859
 5542TIP3    H238042   1.086   4.652  14.145  2.1652  0.4248 -0.8650
 5543TIP3   OH238043   2.302   3.827  14.261  0.1674  0.3291 -0.4946
 5543TIP3    H138044   2.233   3.770  14.294 -0.7118  1.2809 -0.6760
 5543TIP3    H238045   2.263   3.914  14.257  2.4882  1.7192  3.0562
 5544TIP3   OH238046   5.852   4.771   1.298 -0.0069  0.6399  0.0914
 5544TIP3    H138047   5.857   4.710   1.224  1.2250  1.4170 -0.4868
 5544TIP3    H238048   5.884   4.721   1.373  0.4883  0.4170 -0.2698
 5545TIP3   OH238049   2.547   0.016   2.251 -0.4669  0.0506  0.6108
 5545TIP3    H138050   2.622  -0.040   2.231  1.4445  1.5826  2.8272
 5545TIP3    H238051   2.536   0.008   2.346 -2.4870  0.6774  0.4763
 5546TIP3   OH238052   2.376   2.418   0.695 -0.4203 -0.2346 -0.4819
 5546TIP3    H138053   2.412   2.377   0.774  0.3998  1.2444 -0.0697
 5546TIP3    H238054   2.285   2.439   0.719 -0.3655 -0.3608 -0.1553
 5547TIP3   OH238055   5.528   3.159   5.050 -0.1678 -0.3519 -0.2165
 5547TIP3    H138056   5.603   3.215   5.028 -1.0260  0.6651 -0.6674
 5547TIP3    H238057   5.483   3.207   5.120 -1.6853  0.2425 -1.5503
 5548TIP3   OH238058   4.844   0.137   4.706 -0.4601 -0.2522 -0.0431
 5548TIP3    H138059   4.784   0.093   4.646  1.6971  0.0285 -2.5981
 5548TIP3    H238060   4.830   0.230   4.691  0.7883 -0.1807 -0.9478
 5549TIP3   OH238061   4.012   1.661   2.222 -0.3027  0.5885 -1.0690
 5549TIP3    H138062   4.007   1.753   2.250  1.8599  0.4750 -0.1200
 5549TIP3    H238063   3.936   1.650   2.165 -1.2487  2.6516 -0.3308
 5550TIP3   OH238064   3.192   2.466  15.968  0.2931  0.5684  0.3203
 5550TIP3    H138065   3.280   2.473  15.932  0.6956 -1.0885  0.8589
 5550TIP3    H238066   3.151   2.395  15.918 -1.0191  1.8078 -0.4184
 5551TIP3   OH238067   6.563   1.322   1.991 -0.6055  0.1680  0.3637
 5551TIP3    H138068   6.543   1.229   2.004 -3.1109  0.6093  0.0780
 5551TIP3    H238069   6.493   1.354   1.935  1.7684  1.6341 -2.0579
 5552TIP3   OH238070   1.293   5.238  12.724  0.4481 -0.4565 -0.1860
 5552TIP3    H138071   1.344   5.184  12.784  1.5095  0.3114 -0.3599
 5552TIP3    H238072   1.359   5.283  12.670 -0.4187  0.4365 -0.5432
 5553TIP3   OH238073   2.755   6.023   4.254  0.3949 -0.2912 -0.3905
 5553TIP3    H138074   2.847   6.035   4.274  0.4833  0.1254 -1.0348
 5553TIP3    H238075   2.723   6.111   4.231 -0.1769 -0.4172 -0.1191
 5554TIP3   OH238076   2.013   6.331   0.306 -0.5371  0.2009  0.2891
 5554TIP3    H138077   2.036   6.406   0.252  2.9006 -0.7610  0.1821
 5554TIP3    H238078   1.919   6.320   0.293 -0.5441  2.3514 -2.3855
 5555TIP3   OH238079   4.561   2.555  16.629  0.0093  0.1450  0.5955
 5555TIP3    H138080   4.588   2.527  16.717 -0.7935  2.5479  1.6922
 5555TIP3    H238081   4.637   2.539  16.574  1.2266  0.3488  2.1552
 5556TIP3   OH238082   6.419   0.898  16.375  0.4464 -0.1558  0.3450
 5556TIP3    H138083   6.386   0.922  16.462  1.0324 -1.0730  0.8412
 5556TIP3    H238084   6.347   0.848  16.336  0.6820 -0.9282  0.8635
 5557TIP3   OH238085   5.479   5.810  11.617  0.3641  0.1202  0.1157
 5557TIP3    H138086   5.535   5.828  11.542 -0.8448  1.0840 -0.5951
 5557TIP3    H238087   5.401   5.769  11.580  1.2474 -2.8614  1.2685
 5558TIP3   OH238088   3.216   0.792   6.003 -0.4693  0.8033  0.0554
 5558TIP3    H138089   3.219   0.864   6.066 -1.1754  0.0549  0.9931
 5558TIP3    H238090   3.307   0.782   5.974 -0.4818  2.5409 -0.6871
 5559TIP3   OH238091   3.302   0.170  13.163  0.3491  0.0827  0.1087
 5559TIP3    H138092   3.215   0.203  13.184  0.5122 -0.0913  1.1278
 5559TIP3    H238093   3.358   0.207  13.231  1.5037  2.0081 -1.7742
 5560TIP3   OH238094   6.556   5.274   0.518 -0.4120 -0.1487 -0.3400
 5560TIP3    H138095   6.466   5.254   0.542 -0.7272  1.0803 -0.4069
 5560TIP3    H238096   6.609   5.242   0.591 -1.0106  0.1574  0.2378
 5561TIP3   OH238097   2.133   5.347  15.990  0.0005 -0.1694 -0.4524
 5561TIP3    H138098   2.147   5.270  16.046  2.5419 -0.9044 -1.9231
 5561TIP3    H238099   2.127   5.311  15.902 -0.8566  1.2051 -0.9690
 5562TIP3   OH238100   3.615   4.105  11.382  0.1458 -1.2556 -0.3205
 5562TIP3    H138101   3.660   4.027  11.350 -1.4951 -2.0495 -0.8289
 5562TIP3    H238102   3.558   4.072  11.452  1.1288 -0.1057  1.0791
 5563TIP3   OH238103   4.705   1.327   1.994  0.6990 -0.2437  0.3086
 5563TIP3    H138104   4.623   1.297   1.957  1.5023 -2.4126  0.1563
 5563TIP3    H238105   4.745   1.379   1.925 -0.5936  1.0327  0.4678
 5564TIP3   OH238106   0.070   0.198  15.558 -0.0529 -0.2999  0.4049
 5564TIP3    H138107   0.008   0.131  15.589  0.1574  0.1822  1.9535
 5564TIP3    H238108   0.150   0.181  15.609  0.8534 -0.4330 -1.0134
 5565TIP3   OH238109   3.850   0.223   4.351  0.0248 -0.2405 -0.3008
 5565TIP3    H138110   3.939   0.255   4.336  1.2992 -2.5278  1.6657
 5565TIP3    H238111   3.812   0.286   4.413  0.7650  0.0640 -0.1443
 5566TIP3   OH238112   1.466   3.890   1.233 -0.3479 -0.6571 -0.1069
 5566TIP3    H138113   1.514   3.859   1.156 -0.0744  0.0945 -0.2530
 5566TIP3    H238114   1.531   3.937   1.284 -0.9139  0.3501 -0.2886
 5567TIP3   OH238115   1.528   0.846   3.577 -0.3405  0.3133 -0.0880
 5567TIP3    H138116   1.583   0.921   3.552  1.0544 -0.5782  0.2086
 5567TIP3    H238117   1.440   0.870   3.547  0.2957  1.5481 -1.0755
 5568TIP3   OH238118   2.900   5.047   5.904  0.1067  0.3440  0.1570
 5568TIP3    H138119   2.878   5.002   5.823 -0.8844  0.8549  0.1223
 5568TIP3    H238120   2.975   4.999   5.939 -0.8576 -1.2939  0.0881
 5569TIP3   OH238121   1.708   5.099  13.397  0.2296  0.6097 -0.1291
 5569TIP3    H138122   1.725   5.017  13.444  1.2309  0.0846 -1.3351
 5569TIP3    H238123   1.631   5.135  13.439 -0.1967 -0.9257  0.4829
 5570TIP3   OH238124   5.293   6.101  14.306 -0.4124 -0.3717 -0.3176
 5570TIP3    H138125   5.342   6.049  14.242 -0.0455  1.9931 -2.1257
 5570TIP3    H238126   5.360   6.130  14.369  0.1782  0.9819 -1.4995
 5571TIP3   OH238127   5.150   0.560   0.932  0.0639 -0.3522  0.4508
 5571TIP3    H138128   5.192   0.611   0.862 -0.1933 -0.3405  0.3066
 5571TIP3    H238129   5.215   0.559   1.002 -0.1558  0.6620  0.6794
 5572TIP3   OH238130   3.989   3.676   0.108 -0.0299 -0.1722 -0.4426
 5572TIP3    H138131   4.041   3.596   0.106  2.0206  1.0875 -0.3461
 5572TIP3    H238132   4.019   3.726   0.032 -2.3201 -0.0655 -1.3593
 5573TIP3   OH238133   3.527   5.628  16.717 -0.3825  0.1473  0.4985
 5573TIP3    H138134   3.463   5.601  16.783 -0.6952 -0.2608  0.0308
 5573TIP3    H238135   3.482   5.617  16.634  1.2205 -2.9667 -0.0854
 5574TIP3   OH238136   2.724   6.337  12.912  0.5191 -0.0341 -0.2201
 5574TIP3    H138137   2.804   6.350  12.862  0.8423 -1.5408 -0.1262
 5574TIP3    H238138   2.719   6.243  12.927 -2.9968 -0.5455 -3.1461
 5575TIP3   OH238139   1.703   3.669  13.271  0.5354 -1.0788  0.0061
 5575TIP3    H138140   1.797   3.649  13.264  1.0605  1.3147 -1.0982
 5575TIP3    H238141   1.665   3.592  13.312  2.5930 -3.1649 -1.6898
 5576TIP3   OH238142   1.113   4.807  15.057  0.3556  0.3042  0.9692
 5576TIP3    H138143   1.051   4.879  15.052 -1.3962 -1.1745  0.0607
 5576TIP3    H238144   1.188   4.836  15.005 -1.5744  0.3769 -2.0415
 5577TIP3   OH238145   2.138   3.506   5.568  0.2772  0.1577 -0.1516
 5577TIP3    H138146   2.134   3.440   5.637  1.6022  1.0986  0.8791
 5577TIP3    H238147   2.059   3.560   5.581 -2.0076 -2.3429 -2.3246
 5578TIP3   OH238148   3.940   3.716  14.848  0.3321 -0.3603  0.3709
 5578TIP3    H138149   3.909   3.806  14.834  0.3125 -0.2101  1.3228
 5578TIP3    H238150   3.917   3.670  14.767  0.7974  0.6085 -0.3380
 5579TIP3   OH238151   3.235   1.490   1.616 -0.2201  0.2220  0.3377
 5579TIP3    H138152   3.143   1.495   1.639 -0.1891 -1.0816  0.7979
 5579TIP3    H238153   3.280   1.539   1.685 -0.6451  2.1486 -0.6797
 5580TIP3   OH238154   5.529   1.128   2.834 -0.4112 -0.7010  0.0121
 5580TIP3    H138155   5.508   1.054   2.891  1.8847 -1.7051 -0.3164
 5580TIP3    H238156   5.478   1.112   2.755  0.0594 -2.0077 -0.0673
 5581TIP3   OH238157   2.767   6.719  12.811  0.0226 -0.3694 -0.4576
 5581TIP3    H138158   2.825   6.685  12.743  0.7615  0.4098 -0.2329
 5581TIP3    H238159   2.679   6.709  12.775  0.3711 -0.4482 -1.3038
 5582TIP3   OH238160   0.585   1.943  13.261  0.0014  0.2609  0.6670
 5582TIP3    H138161   0.492   1.922  13.264 -0.2230  1.0393 -0.2467
 5582TIP3    H238162   0.590   2.034  13.291  0.5808 -0.0357  1.5254
 5583TIP3   OH238163   4.629   0.216   2.558 -0.2250 -0.1501  0.1877
 5583TIP3    H138164   4.547   0.251   2.594 -0.8167  0.0447 -1.2721
 5583TIP3    H238165   4.690   0.290   2.564 -0.9858  0.6570 -1.2976
 5584TIP3   OH238166   2.337   0.379  13.222 -0.5104  0.0364  0.6290
 5584TIP3    H138167   2.323   0.329  13.301 -0.3435  3.2543  2.8974
 5584TIP3    H238168   2.421   0.424  13.236  0.1730 -0.2006 -1.9747
 5585TIP3   OH238169   4.198   5.758  13.354 -0.0113 -0.0409 -0.0296
 5585TIP3    H138170   4.169   5.728  13.268  0.9347 -0.5217 -0.1943
 5585TIP3    H238171   4.150   5.704  13.417 -1.6711  1.1757 -0.1954
 5586TIP3   OH238172   6.459   5.372   1.204  0.4334  0.4908  0.1995
 5586TIP3    H138173   6.458   5.382   1.299 -0.6849 -0.1355  0.2692
 5586TIP3    H238174   6.454   5.277   1.190 -3.3659  0.6687 -0.4717
 5587TIP3   OH238175   2.102   6.543   4.180  0.2133  0.3536 -0.0223
 5587TIP3    H138176   2.059   6.579   4.103 -1.0597  0.7422  0.8470
 5587TIP3    H238177   2.099   6.448   4.166  1.9963  0.4456 -1.4719
 5588TIP3   OH238178   0.326   0.578  16.915  0.7035  0.4597  0.2974
 5588TIP3    H138179   0.342   0.609  16.826  0.2869  0.9950  0.4090
 5588TIP3    H238180   0.255   0.514  16.906  2.7440 -1.8768 -0.1898
 5589TIP3   OH238181   1.868   6.517   1.758 -0.0813 -0.2414  0.1208
 5589TIP3    H138182   1.913   6.560   1.686 -1.6971  0.8669 -0.2884
 5589TIP3    H238183   1.818   6.587   1.801 -0.8854 -1.2752  0.9461
 5590TIP3   OH238184   5.415   4.561  14.013  0.2731 -0.0502  0.3168
 5590TIP3    H138185   5.374   4.504  14.078  2.0521 -0.3096  1.2870
 5590TIP3    H238186   5.508   4.539  14.018  0.7704  1.7031 -0.5425
 5591TIP3   OH238187   3.212   2.686  11.624 -0.1497 -0.2867  0.4162
 5591TIP3    H138188   3.215   2.621  11.694  0.4596 -1.5645 -0.7517
 5591TIP3    H238189   3.126   2.728  11.634  0.2577  0.1822  2.4297
 5592TIP3   OH238190   5.612   1.979   4.672 -0.3109 -0.4119  0.2702
 5592TIP3    H138191   5.659   1.996   4.590  0.1222 -0.0534  0.5878
 5592TIP3    H238192   5.593   1.885   4.670 -1.9233 -0.0840 -1.0828
 5593TIP3   OH238193   6.782   4.074  16.161 -0.1762 -0.1020  1.0881
 5593TIP3    H138194   6.704   4.021  16.146  0.0998 -0.6131  1.4438
 5593TIP3    H238195   6.849   4.012  16.190  1.0172 -0.0255 -1.2671
 5594TIP3   OH238196   2.247   3.064   0.828  0.0144  0.1634 -0.0819
 5594TIP3    H138197   2.313   3.128   0.855  1.9598 -1.9836  0.6018
 5594TIP3    H238198   2.290   3.015   0.757 -1.6431 -0.0222 -0.9958
 5595TIP3   OH238199   2.319   3.100   5.712  0.2004  0.3213  0.2245
 5595TIP3    H138200   2.378   3.167   5.745 -0.4159  1.6403 -1.2137
 5595TIP3    H238201   2.343   3.020   5.760  2.3274  1.0803  0.5073
 5596TIP3   OH238202   4.008   4.921  11.020 -0.0493 -0.4185  0.3921
 5596TIP3    H138203   4.022   4.837  10.977  1.4888  0.0268 -0.0327
 5596TIP3    H238204   3.940   4.964  10.967  1.5774 -0.0150 -1.4858
 5597TIP3   OH238205   0.704   5.803  12.226  0.5209  0.5115 -0.3969
 5597TIP3    H138206   0.724   5.715  12.257 -1.0516 -0.7203 -2.5805
 5597TIP3    H238207   0.789   5.840  12.201  1.0024 -1.7095 -2.5141
 5598TIP3   OH238208   6.010   3.037  11.406  0.0044 -0.3663 -0.4604
 5598TIP3    H138209   5.928   3.025  11.454 -1.4103 -2.6109 -3.1336
 5598TIP3    H238210   6.069   2.973  11.446 -0.6101 -1.0189 -0.5595
 5599TIP3   OH238211   3.413   0.434   0.052 -0.3012  0.4531  0.1091
 5599TIP3    H138212   3.431   0.378  -0.024 -1.3152 -0.4262  0.4919
 5599TIP3    H238213   3.465   0.513   0.036  1.6023 -0.7931 -0.1756
 5600TIP3   OH238214   4.859   1.594   2.554 -0.0340 -0.1338  0.6254
 5600TIP3    H138215   4.867   1.518   2.496  0.5198  0.5255 -0.1793
 5600TIP3    H238216   4.765   1.600   2.572 -0.4412  0.5433 -1.4635
 5601TIP3   OH238217   0.126   5.516  12.420 -0.2671 -0.0724  0.1848
 5601TIP3    H138218   0.085   5.603  12.414  0.0181 -0.0568 -2.9177
 5601TIP3    H238219   0.216   5.534  12.447 -0.1111  0.6660 -0.7797
 5602TIP3   OH238220   0.572   4.788  16.425  0.0547 -0.0815  0.3774
 5602TIP3    H138221   0.536   4.815  16.341 -1.5463  1.0810  1.3833
 5602TIP3    H238222   0.666   4.803  16.416 -0.1245  0.3382 -1.0807
 5603TIP3   OH238223   5.662   5.957   5.175  0.2386 -0.6017  0.2875
 5603TIP3    H138224   5.671   5.882   5.233  0.2446 -0.5145  0.4010
 5603TIP3    H238225   5.734   5.948   5.112  0.5003 -0.4603  0.5630
 5604TIP3   OH238226   6.304   3.547  11.890  0.6087  0.2403 -0.0419
 5604TIP3    H138227   6.310   3.577  11.981 -0.5037 -1.1300  0.5173
 5604TIP3    H238228   6.249   3.469  11.894  0.2171  0.3657 -1.9514
 5605TIP3   OH238229   4.190   3.070   2.968 -0.2559 -0.1337 -0.2918
 5605TIP3    H138230   4.279   3.056   2.935  0.1978 -0.8005  1.1446
 5605TIP3    H238231   4.190   3.161   2.998  0.5698 -0.6495  1.4193
 5606TIP3   OH238232   3.094   4.350  11.026 -0.2007  0.7128  0.2567
 5606TIP3    H138233   3.190   4.355  11.024 -0.1598  0.1764  0.6766
 5606TIP3    H238234   3.075   4.294  11.102 -0.6798 -2.8834 -2.2523
 5607TIP3   OH238235   2.929   0.253   4.454  0.1806 -0.0865 -0.2972
 5607TIP3    H138236   2.977   0.292   4.382 -0.5949  1.5031  0.0035
 5607TIP3    H238237   2.858   0.314   4.472  1.1809  0.3441  2.7812
 5608TIP3   OH238238   1.291   1.236  14.268 -0.1713 -0.1891  0.0961
 5608TIP3    H138239   1.305   1.144  14.288 -1.1257 -0.2846  0.3615
 5608TIP3    H238240   1.323   1.283  14.345  0.0552 -0.3088  0.0763
 5609TIP3   OH238241   1.000   1.770   5.010  0.1554  0.1022 -0.8701
 5609TIP3    H138242   0.905   1.777   4.998 -0.3062  2.3608  2.5629
 5609TIP3    H238243   1.010   1.726   5.094  2.1142  0.7917 -0.7040
 5610TIP3   OH238244   2.749   5.648   2.153 -0.3756 -0.1808  0.0083
 5610TIP3    H138245   2.713   5.560   2.141  0.4286 -0.5180 -0.0277
 5610TIP3    H238246   2.789   5.646   2.240 -3.6612  1.3623  1.7236
 5611TIP3   OH238247   0.487   3.814  10.995 -0.5710  0.1004  0.0948
 5611TIP3    H138248   0.559   3.816  11.058 -1.1570  0.5366  0.7702
 5611TIP3    H238249   0.408   3.830  11.048 -1.2981 -1.4584 -0.4345
 5612TIP3   OH238250   1.764   4.629   6.121 -0.0821  0.8489 -0.1774
 5612TIP3    H138251   1.844   4.636   6.173  0.6573  1.7058 -1.3663
 5612TIP3    H238252   1.763   4.538   6.091  1.5161  1.2829 -1.7173
 5613TIP3   OH238253   1.767   5.293   2.235 -0.2848 -0.2076  0.6412
 5613TIP3    H138254   1.744   5.295   2.328  0.7661  0.0828  0.9154
 5613TIP3    H238255   1.798   5.382   2.216 -2.0848  0.2527 -0.4425
 5614TIP3   OH238256   1.653   0.554  15.127 -0.2529 -0.0822 -0.1004
 5614TIP3    H138257   1.669   0.529  15.036  0.3278 -1.2533  0.2981
 5614TIP3    H238258   1.559   0.571  15.132 -0.5719 -1.5638 -0.5806
 5615TIP3   OH238259   3.666   3.137  11.879 -0.4210 -0.1029 -0.1592
 5615TIP3    H138260   3.626   3.224  11.879 -2.5994 -1.0390  0.8547
 5615TIP3    H238261   3.638   3.098  11.796  0.0111 -0.0816 -0.3169
 5616TIP3   OH238262   0.968   5.740   4.419 -0.2467  0.0401 -0.5770
 5616TIP3    H138263   0.916   5.746   4.499 -2.1758  1.0270 -1.8257
 5616TIP3    H238264   1.031   5.812   4.426 -0.8039  0.5016 -0.2302
 5617TIP3   OH238265   6.358   5.977   0.662  0.0379 -0.0145 -0.0431
 5617TIP3    H138266   6.282   5.941   0.709 -1.0564  2.0238 -0.1403
 5617TIP3    H238267   6.319   6.033   0.595  1.6451  0.3131 -0.7340
 5618TIP3   OH238268   0.848   1.490   5.443 -0.1486  0.3508 -0.4366
 5618TIP3    H138269   0.929   1.456   5.483 -1.3230 -0.1009  1.6792
 5618TIP3    H238270   0.879   1.544   5.370  2.0738  0.4385  0.4848
 5619TIP3   OH238271   3.520   4.880  14.417  0.1111 -0.0373  0.1065
 5619TIP3    H138272   3.435   4.921  14.432 -0.1981 -0.8842  0.8058
 5619TIP3    H238273   3.578   4.952  14.394 -0.4273  0.7781  1.2038
 5620TIP3   OH238274   4.460   1.284   0.254 -0.4190 -0.6369 -0.3438
 5620TIP3    H138275   4.438   1.298   0.162  1.1355 -1.5805 -0.8956
 5620TIP3    H238276   4.488   1.192   0.258 -2.0694 -1.1198  1.4165
 5621TIP3   OH238277   0.606   3.717   3.817  0.2440 -0.8619  0.3709
 5621TIP3    H138278   0.598   3.726   3.722  0.2902  0.2116  0.4591
 5621TIP3    H238279   0.685   3.766   3.839 -0.4077 -0.1234  1.0947
 5622TIP3   OH238280   2.454   0.910   2.327  0.2848  0.0390 -0.0340
 5622TIP3    H138281   2.383   0.896   2.389  1.4091  1.2464  1.5976
 5622TIP3    H238282   2.420   0.978   2.268 -0.0848  0.3027  0.4679
 5623TIP3   OH238283   1.664   5.202   1.985  0.1100  0.6148  0.2562
 5623TIP3    H138284   1.686   5.210   2.078 -1.2309  0.4992  0.6143
 5623TIP3    H238285   1.583   5.251   1.976  0.4015  0.8965 -0.9367
 5624TIP3   OH238286   5.675   3.706   4.566  0.6997 -0.2361  0.9240
 5624TIP3    H138287   5.707   3.662   4.487 -1.6322  1.6711 -1.2312
 5624TIP3    H238288   5.587   3.672   4.578  1.0099 -0.4844  2.7821
 5625TIP3   OH238289   6.169   3.849  15.841  0.2453 -0.2988 -0.1056
 5625TIP3    H138290   6.253   3.880  15.809  0.2984  0.4124  0.6943
 5625TIP3    H238291   6.146   3.909  15.912 -0.3212 -1.2417  0.5446
 5626TIP3   OH238292   0.227   5.620   0.684  0.2666  0.3777  0.1557
 5626TIP3    H138293   0.227   5.556   0.613 -1.6017  0.4206  0.0808
 5626TIP3    H238294   0.232   5.567   0.763  2.5582  0.3361  0.0453
 5627TIP3   OH238295   1.662   3.416  13.023 -0.3886  0.4941  0.1935
 5627TIP3    H138296   1.703   3.384  13.102 -1.5172 -0.4687  0.4282
 5627TIP3    H238297   1.579   3.455  13.052 -1.3064 -0.7941 -0.5794
 5628TIP3   OH238298   4.718   6.496  12.292 -0.0504 -0.1591  0.3843
 5628TIP3    H138299   4.623   6.489  12.295 -0.0203 -0.6185  0.3195
 5628TIP3    H238300   4.747   6.415  12.251  0.3930 -0.2110  0.7944
 5629TIP3   OH238301   1.711   0.077  15.618  0.0510  0.3208 -0.1818
 5629TIP3    H138302   1.633   0.037  15.579 -0.0644 -0.9510  1.2131
 5629TIP3    H238303   1.785   0.040  15.569 -0.1328 -0.4295  0.0941
 5630TIP3   OH238304   2.242   2.738  14.834 -0.2145 -0.1477  0.3123
 5630TIP3    H138305   2.324   2.690  14.825 -0.4593 -0.7350  1.1444
 5630TIP3    H238306   2.176   2.680  14.796 -0.4332 -0.2377  0.8303
 5631TIP3   OH238307   1.938   6.692  12.912  0.0805  0.1526  0.1995
 5631TIP3    H138308   1.871   6.753  12.881 -0.9604 -0.3454  1.3891
 5631TIP3    H238309   1.890   6.622  12.955  1.3887  0.5194  2.4268
 5632TIP3   OH238310   6.232   3.665  16.031 -0.2759  0.2804  0.7244
 5632TIP3    H138311   6.139   3.657  16.051 -0.2751  1.2198  1.1279
 5632TIP3    H238312   6.236   3.728  15.959  0.1168  0.9567  1.3363
 5633TIP3   OH238313   5.795   2.110   3.056  0.5513 -0.6471 -0.3876
 5633TIP3    H138314   5.746   2.122   3.138 -0.3577  0.0537 -1.0180
 5633TIP3    H238315   5.779   2.019   3.032 -2.3824  0.1265 -1.7606
 5634TIP3   OH238316   1.746   0.833  14.198 -0.3229 -0.0365  0.4224
 5634TIP3    H138317   1.692   0.761  14.230 -0.2481 -1.0836 -1.6366
 5634TIP3    H238318   1.834   0.814  14.232 -0.6785  0.1678  1.4897
 5635TIP3   OH238319   6.131   2.656   0.716 -0.1069  0.3375 -0.2456
 5635TIP3    H138320   6.066   2.710   0.670  0.2779  0.4067 -0.7229
 5635TIP3    H238321   6.201   2.717   0.740 -0.4304  0.3505  0.6871
 5636TIP3   OH238322   3.228   4.204  13.522 -0.0268  0.6667  0.7592
 5636TIP3    H138323   3.315   4.243  13.517  1.0487 -1.4388  2.0483
 5636TIP3    H238324   3.216   4.181  13.614 -1.9423  0.8218  0.6064
 5637TIP3   OH238325   3.434   1.903   1.659  0.2640 -0.7132  0.1635
 5637TIP3    H138326   3.473   1.821   1.692  0.2911 -0.2614  1.3159
 5637TIP3    H238327   3.468   1.970   1.718  3.1915  0.7623 -2.8948
 5638TIP3   OH238328   4.105   2.418   1.952 -0.4301  0.5677  0.4046
 5638TIP3    H138329   4.049   2.482   1.908  0.3836  1.5650  0.7932
 5638TIP3    H238330   4.080   2.423   2.044 -0.5653  0.1109  0.3956
 5639TIP3   OH238331   6.516   5.105   4.138  0.0465 -0.6510 -0.4414
 5639TIP3    H138332   6.515   5.009   4.132 -1.3294 -0.6539 -0.5944
 5639TIP3    H238333   6.563   5.123   4.219  2.1561 -1.3500 -1.4399
 5640TIP3   OH238334   2.778   3.959  13.471 -0.6430  0.3567 -0.3850
 5640TIP3    H138335   2.712   3.934  13.406 -0.9991 -0.3788  0.2415
 5640TIP3    H238336   2.800   3.877  13.515  0.2252  0.7085 -0.1545
 5641TIP3   OH238337   0.035   6.074  15.658 -0.3197 -0.2810 -0.1272
 5641TIP3    H138338   0.027   6.115  15.571  3.0327 -0.1360 -0.4735
 5641TIP3    H238339   0.035   6.148  15.719 -2.0109 -0.3495  0.0207
 5642TIP3   OH238340   4.793   0.651   6.054  0.2005  0.2826  0.3094
 5642TIP3    H138341   4.815   0.740   6.081 -0.0484 -0.1629  2.1346
 5642TIP3    H238342   4.854   0.595   6.103  0.9174 -0.5486 -1.4333
 5643TIP3   OH238343   0.163   0.156  14.212  0.8003 -0.0402  0.3464
 5643TIP3    H138344   0.224   0.128  14.280  0.4019  0.1314  0.7798
 5643TIP3    H238345   0.082   0.108  14.229 -0.2585  2.0662  1.7589
 5644TIP3   OH238346   4.750   3.331  11.117  0.5237  0.0157 -0.5762
 5644TIP3    H138347   4.743   3.321  11.022  0.8584  2.4164 -0.9262
 5644TIP3    H238348   4.683   3.396  11.139  0.9173  0.0070  0.7310
 5645TIP3   OH238349   4.779   0.926  11.563 -0.2624  0.1824 -0.0303
 5645TIP3    H138350   4.770   0.833  11.584 -1.2332  0.3604  0.3908
 5645TIP3    H238351   4.825   0.963  11.639 -0.1622  0.1068 -0.0533
 5646TIP3   OH238352   0.197   2.022  17.183 -0.3735  0.5219 -0.1347
 5646TIP3    H138353   0.238   2.058  17.105  0.0063  0.6121  0.1006
 5646TIP3    H238354   0.109   1.999  17.156 -0.4892  1.2484 -0.3983
 5647TIP3   OH238355   5.079   5.496   3.327 -0.3360  0.1300  0.2947
 5647TIP3    H138356   5.025   5.428   3.286  0.1787 -0.4848  0.6226
 5647TIP3    H238357   5.091   5.467   3.417  1.2547 -0.1993  0.0119
 5648TIP3   OH238358   5.003   1.290  15.168 -0.3170 -0.1960  0.3817
 5648TIP3    H138359   4.945   1.332  15.105 -1.8780 -0.8447  1.3251
 5648TIP3    H238360   4.958   1.209  15.192  1.8718 -1.6829 -0.2198
 5649TIP3   OH238361   4.384   0.837  11.364 -0.7401 -0.5822  0.1912
 5649TIP3    H138362   4.352   0.783  11.292  2.5695 -1.1320 -1.0372
 5649TIP3    H238363   4.367   0.927  11.336  0.6396 -0.7898 -1.3936
 5650TIP3   OH238364   2.394   1.669  11.674  0.7099  0.3972 -0.3238
 5650TIP3    H138365   2.319   1.636  11.723  1.2529 -1.1757 -0.4931
 5650TIP3    H238366   2.362   1.680  11.585  1.2247 -2.7046 -1.0071
 5651TIP3   OH238367   5.764   3.733   1.796 -0.1250 -0.1519 -0.0879
 5651TIP3    H138368   5.753   3.828   1.795  0.9576 -0.0019 -1.1661
 5651TIP3    H238369   5.843   3.719   1.849  1.8337 -0.0869 -2.7426
 5652TIP3   OH238370   5.060   5.816  16.473  0.0999  0.1445  0.0400
 5652TIP3    H138371   5.066   5.879  16.402 -1.4888  0.1811 -0.1068
 5652TIP3    H238372   5.085   5.732  16.434 -0.3365  0.2414 -0.4628
 5653TIP3   OH238373   0.976   5.885   5.278 -0.5254  0.4023  0.2862
 5653TIP3    H138374   1.025   5.848   5.205 -0.6091 -0.9656  0.9005
 5653TIP3    H238375   0.898   5.923   5.237  1.2095  3.1889 -0.7886
 5654TIP3   OH238376   5.014   5.103  13.945 -0.1903  0.5242 -0.5128
 5654TIP3    H138377   5.073   5.172  13.977 -0.2749  0.4547 -0.1977
 5654TIP3    H238378   5.055   5.071  13.865  1.4296 -1.1263  0.8984
 5655TIP3   OH238379   1.010   5.015   6.452  0.1202 -0.3540 -0.0775
 5655TIP3    H138380   1.089   5.062   6.479 -0.5898 -0.4826  2.5303
 5655TIP3    H238381   0.953   5.083   6.417 -0.3226  0.6039  2.2875
 5656TIP3   OH238382   2.929   3.687   1.706  0.2074 -0.0339 -0.0481
 5656TIP3    H138383   2.866   3.623   1.673 -0.0797 -0.0964  0.5992
 5656TIP3    H238384   3.014   3.652   1.681 -0.0253  1.1363 -2.9015
 5657TIP3   OH238385   5.420   6.691   1.069  0.1173 -0.4973 -0.0993
 5657TIP3    H138386   5.335   6.706   1.027 -0.1000  0.1145  0.5440
 5657TIP3    H238387   5.480   6.748   1.020 -0.0381 -0.1668  0.0905
 5658TIP3   OH238388   1.088   5.274   2.244 -0.9515 -0.3951 -0.0087
 5658TIP3    H138389   1.177   5.302   2.262 -1.2694  0.1864  0.7402
 5658TIP3    H238390   1.092   5.231   2.158  0.1083 -0.7255  0.2021
 5659TIP3   OH238391   0.779   3.448  15.640 -0.0993  0.2176 -0.3774
 5659TIP3    H138392   0.760   3.394  15.717  0.8353  0.7142  0.2271
 5659TIP3    H238393   0.773   3.387  15.566 -0.1978 -0.4552  0.1706
 5660TIP3   OH238394   4.896   2.893   1.756 -0.3192  0.0504 -0.1120
 5660TIP3    H138395   4.831   2.824   1.742  0.1397 -0.3523 -0.2617
 5660TIP3    H238396   4.954   2.888   1.681 -0.9845  1.4056 -0.7582
 5661TIP3   OH238397   4.444   0.071   2.380  0.4046 -0.3201  0.0003
 5661TIP3    H138398   4.391   0.049   2.456  1.5543  0.0650  0.9451
 5661TIP3    H238399   4.438   0.166   2.373  0.8346 -0.2898  0.0151
 5662TIP3   OH238400   3.957   1.249  15.401  0.0774  0.1687  0.0646
 5662TIP3    H138401   3.879   1.199  15.378 -0.2265  1.3223 -1.6187
 5662TIP3    H238402   3.966   1.313  15.330  2.2112  0.4539  0.5182
 5663TIP3   OH238403   5.413   6.216  16.574 -0.4120  0.4661 -0.3069
 5663TIP3    H138404   5.496   6.169  16.580 -0.5175  0.2715 -0.3799
 5663TIP3    H238405   5.386   6.206  16.483  0.3958  2.0780 -0.7495
 5664TIP3   OH238406   1.284   2.203  11.266 -0.0305  0.1788  0.0320
 5664TIP3    H138407   1.279   2.241  11.354 -0.1732 -0.7135  0.4214
 5664TIP3    H238408   1.368   2.157  11.264  1.2192  2.3631 -1.2228
 5665TIP3   OH238409   1.616   3.723  11.147  0.6115 -0.1942 -0.0586
 5665TIP3    H138410   1.635   3.721  11.241  0.0122 -1.0440  0.0620
 5665TIP3    H238411   1.692   3.681  11.106  1.4129  1.2111 -0.0775
 5666TIP3   OH238412   0.442   5.811  14.928 -0.2230  0.3539 -0.1656
 5666TIP3    H138413   0.349   5.786  14.934 -0.1903  0.1887 -0.3426
 5666TIP3    H238414   0.471   5.816  15.019  0.1183 -1.5675 -0.1315
 5667TIP3   OH238415   4.017   5.864   1.669 -0.5350 -0.5376 -0.3738
 5667TIP3    H138416   4.108   5.833   1.665 -0.2164 -0.2541  2.4817
 5667TIP3    H238417   3.969   5.792   1.710 -0.6119  0.9353  2.3780
 5668TIP3   OH238418   0.091   5.800  17.146  0.1870  0.0201  0.0639
 5668TIP3    H138419   0.009   5.831  17.184  1.0055  1.0719  1.0434
 5668TIP3    H238420   0.109   5.859  17.073 -1.0107 -1.5604 -1.6235
 5669TIP3   OH238421   3.518   5.727   1.902 -0.2708  0.0721  0.1579
 5669TIP3    H138422   3.567   5.651   1.872 -0.6269  0.5341 -1.7144
 5669TIP3    H238423   3.430   5.694   1.919 -0.1119 -0.1595  0.5429
 5670TIP3   OH238424   4.808   5.823   1.995 -0.1702  0.2511 -0.3959
 5670TIP3    H138425   4.748   5.896   1.981  1.3666  1.3573 -1.5935
 5670TIP3    H238426   4.862   5.850   2.070  0.6115  0.5219 -1.0420
 5671TIP3   OH238427   0.472   1.085   4.017  0.1005  0.4475  0.6668
 5671TIP3    H138428   0.378   1.089   4.034  0.1885 -0.4370  1.4888
 5671TIP3    H238429   0.513   1.091   4.104  0.9453  3.3346  0.1539
 5672TIP3   OH238430   4.163   3.431   0.077  0.5196  0.7711 -0.1686
 5672TIP3    H138431   4.222   3.452   0.005 -0.2614  0.0551 -1.0244
 5672TIP3    H238432   4.214   3.451   0.156  1.7666  0.5183 -0.8919
 5673TIP3   OH238433   3.179   4.963  14.778 -0.9151 -0.1373 -0.2064
 5673TIP3    H138434   3.267   4.988  14.807 -0.5568  0.4202 -1.7008
 5673TIP3    H238435   3.138   4.927  14.857  1.3777 -2.4495  0.1061
 5674TIP3   OH238436   4.931   2.285   2.408  0.5522 -0.2909  0.0810
 5674TIP3    H138437   4.868   2.236   2.355 -1.1858  0.0309  1.7481
 5674TIP3    H238438   4.989   2.218   2.445 -1.0991 -1.0330  1.4299
 5675TIP3   OH238439   3.518   0.700   6.147  0.3227 -0.0527 -0.3112
 5675TIP3    H138440   3.451   0.710   6.215 -0.7549 -0.6430 -1.2539
 5675TIP3    H238441   3.590   0.756   6.176 -1.0717  1.6366  0.1131
 5676TIP3   OH238442   3.429   6.305   5.383 -0.6040  0.6513  0.3206
 5676TIP3    H138443   3.514   6.325   5.422 -0.9683  0.0439  1.4675
 5676TIP3    H238444   3.437   6.215   5.353  0.1374  1.5262 -2.3756
 5677TIP3   OH238445   3.486   1.220   2.185 -0.1262  0.8218 -0.8132
 5677TIP3    H138446   3.434   1.180   2.254 -2.7417  3.8621 -0.7675
 5677TIP3    H238447   3.558   1.263   2.230  1.1925 -1.4903 -0.6136
 5678TIP3   OH238448   4.125   1.045   5.753  0.1736 -0.5918 -0.1385
 5678TIP3    H138449   4.049   1.042   5.811 -1.3048 -1.2651 -1.9948
 5678TIP3    H238450   4.136   1.138   5.734  0.0708 -0.4511  0.4552
 5679TIP3   OH238451   2.307   4.122   2.111 -0.2892 -0.2835 -0.2900
 5679TIP3    H138452   2.381   4.064   2.126  0.1135 -0.0834 -1.4108
 5679TIP3    H238453   2.318   4.152   2.021 -1.9030 -0.4943 -0.5805
 5680TIP3   OH238454   2.359   3.973  11.190 -0.1983 -0.1495 -0.6834
 5680TIP3    H138455   2.375   4.024  11.269 -1.9337  0.6408 -0.7767
 5680TIP3    H238456   2.361   3.882  11.218  0.4560  0.0658 -0.0014
 5681TIP3   OH238457   6.619   4.785   3.860 -0.6618 -0.1867 -0.1043
 5681TIP3    H138458   6.574   4.704   3.882  0.0667 -0.4776  0.3396
 5681TIP3    H238459   6.552   4.838   3.816 -1.5070 -0.5162  0.7312
 5682TIP3   OH238460   3.346   4.725   3.029 -0.4284 -0.2864 -0.3348
 5682TIP3    H138461   3.266   4.776   3.027 -0.1074  0.3907  1.5888
 5682TIP3    H238462   3.416   4.789   3.013 -0.1648 -0.5748 -0.3598
 5683TIP3   OH238463   0.549   5.352   1.569 -0.8178  0.9410 -0.0567
 5683TIP3    H138464   0.487   5.286   1.541 -0.0613  0.1300  0.1280
 5683TIP3    H238465   0.501   5.435   1.563 -1.4297  0.5164 -1.3494
 5684TIP3   OH238466   0.774   0.300  14.804  0.1349 -0.1433 -0.3869
 5684TIP3    H138467   0.775   0.387  14.843  0.2916  1.3846 -3.5019
 5684TIP3    H238468   0.681   0.279  14.795  0.0927 -0.1793  0.1243
 5685TIP3   OH238469   0.443   2.689  12.040 -0.0817 -0.5553 -0.4074
 5685TIP3    H138470   0.349   2.706  12.034 -0.1619 -1.5383 -4.0993
 5685TIP3    H238471   0.450   2.614  12.100 -1.7325 -0.8968 -0.5925
 5686TIP3   OH238472   4.228   1.062   3.354  0.0170  0.0123  0.5673
 5686TIP3    H138473   4.194   1.055   3.443  2.5861 -0.1327  1.6141
 5686TIP3    H238474   4.271   1.147   3.351  0.9550 -0.4660 -0.1346
 5687TIP3   OH238475   0.672   0.657   4.299  0.4304  0.4455 -0.4444
 5687TIP3    H138476   0.637   0.618   4.218  0.6946  0.8503 -0.7574
 5687TIP3    H238477   0.659   0.589   4.365  1.9321 -0.6576 -1.2105
 5688TIP3   OH238478   1.705   2.716   5.651  0.2509  0.1330  0.6572
 5688TIP3    H138479   1.666   2.704   5.565  0.6098 -0.2005  0.5353
 5688TIP3    H238480   1.758   2.637   5.664 -0.1440 -0.0211  1.3673
 5689TIP3   OH238481   1.611   2.872  13.876 -0.9831  0.0860  0.2044
 5689TIP3    H138482   1.698   2.913  13.875  0.1265 -2.1113  0.2651
 5689TIP3    H238483   1.555   2.936  13.921  0.8709  1.0541  1.2805
 5690TIP3   OH238484   3.036   3.220  10.454 -0.1720 -0.0001  0.5194
 5690TIP3    H138485   3.012   3.179  10.537 -1.5255 -1.1271 -0.3810
 5690TIP3    H238486   3.090   3.156  10.409  2.2982  1.3947  1.2998
 5691TIP3   OH238487   6.328   4.728  14.185 -0.5922 -0.6278  0.0242
 5691TIP3    H138488   6.233   4.726  14.169 -0.9573 -1.0082  1.9181
 5691TIP3    H238489   6.356   4.637  14.173 -0.1632 -0.2864 -1.8901
 5692TIP3   OH238490   4.025   6.663  12.801 -0.0593 -0.2336 -0.1526
 5692TIP3    H138491   4.117   6.673  12.775 -0.3792  1.0028 -0.9111
 5692TIP3    H238492   3.985   6.748  12.781 -1.3122 -0.6587  0.4204
 5693TIP3   OH238493   2.687   2.028   4.811  0.1345  0.2202 -0.5308
 5693TIP3    H138494   2.690   2.088   4.886  1.1533 -1.1486  0.5602
 5693TIP3    H238495   2.777   1.999   4.800 -0.4474 -1.7497 -0.4789
 5694TIP3   OH238496   1.856   1.220   3.847  0.0693  0.2787 -0.1491
 5694TIP3    H138497   1.765   1.233   3.821 -0.0852  0.2008  0.3622
 5694TIP3    H238498   1.906   1.252   3.771 -0.3875 -1.3906 -1.2150
 5695TIP3   OH238499   1.226   3.916   0.375  1.0596 -0.1432  0.2173
 5695TIP3    H138500   1.272   3.887   0.454  0.6997  2.2190  1.3808
 5695TIP3    H238501   1.134   3.922   0.401  0.5821 -1.4617 -1.0659
 5696TIP3   OH238502   3.455   4.996   0.004 -0.4609 -0.4966 -0.1502
 5696TIP3    H138503   3.512   5.045  -0.055 -0.6488 -0.7865 -0.5737
 5696TIP3    H238504   3.367   5.027  -0.016 -0.4880 -0.2948  0.2697
 5697TIP3   OH238505   0.147   5.386  13.898 -0.0044  0.2232  0.0474
 5697TIP3    H138506   0.106   5.470  13.918  0.6984  0.4821  0.4286
 5697TIP3    H238507   0.215   5.376  13.965  1.4033  0.3995 -1.2946
 5698TIP3   OH238508   4.921   4.176   4.462  0.2511  0.1225 -0.5479
 5698TIP3    H138509   4.920   4.222   4.546 -1.1935 -2.2653  0.8312
 5698TIP3    H238510   5.012   4.150   4.450  0.2150 -0.9732  1.1921
 5699TIP3   OH238511   3.711   3.133   1.559 -0.2694  0.4181  0.0661
 5699TIP3    H138512   3.696   3.041   1.582 -0.6847  0.8416  1.6299
 5699TIP3    H238513   3.776   3.163   1.622  0.2589  1.0694 -0.7712
 5700TIP3   OH238514   6.221   2.083   5.613  0.1612  0.7184  0.3498
 5700TIP3    H138515   6.221   2.023   5.538 -3.1788 -0.1164  0.8793
 5700TIP3    H238516   6.195   2.167   5.576  3.1260  1.5593 -0.0903
 5701TIP3   OH238517   3.260   1.587   5.046  0.1317  0.6850  0.0721
 5701TIP3    H138518   3.216   1.563   4.965  1.3972 -0.6501 -0.2526
 5701TIP3    H238519   3.319   1.514   5.064 -0.3785  0.7640  2.4020
 5702TIP3   OH238520   3.998   1.646  15.066  0.2493 -0.3829 -0.2897
 5702TIP3    H138521   4.047   1.655  14.985  1.9262  0.0894  0.7203
 5702TIP3    H238522   4.052   1.689  15.132 -0.2604 -2.1268  1.3809
 5703TIP3   OH238523   5.297   0.997   3.610  0.1079 -0.4951  0.4515
 5703TIP3    H138524   5.363   1.026   3.547 -0.9231  2.1459  0.4925
 5703TIP3    H238525   5.342   1.002   3.695  0.0574  0.7453  0.4196
 5704TIP3   OH238526   0.751   2.243  15.777 -0.4123  0.9079  0.2587
 5704TIP3    H138527   0.719   2.224  15.865  0.8243  0.3007  0.5957
 5704TIP3    H238528   0.842   2.270  15.790  0.0654 -0.0521 -0.8990
 5705TIP3   OH238529   2.034   6.227  17.039 -0.1124  0.3307  0.7327
 5705TIP3    H138530   2.065   6.317  17.034 -0.1748  0.3288  0.2760
 5705TIP3    H238531   2.111   6.173  17.018 -0.7556  0.3680 -2.0194
 5706TIP3   OH238532   4.930   5.360  11.471 -0.1982  0.3045  0.1897
 5706TIP3    H138533   4.990   5.399  11.407 -0.9558  0.4908 -0.4084
 5706TIP3    H238534   4.845   5.399  11.452 -0.6481 -0.4512  0.6129
 5707TIP3   OH238535   2.024   6.428   0.656 -0.1016 -0.9067 -0.1869
 5707TIP3    H138536   2.046   6.340   0.626 -0.4179 -1.5122  1.2604
 5707TIP3    H238537   2.076   6.441   0.735 -0.0064  0.2422 -0.4124
 5708TIP3   OH238538   0.322   6.554  14.886  0.1654 -0.3571 -0.9637
 5708TIP3    H138539   0.255   6.623  14.885 -2.5322 -2.7190  0.8224
 5708TIP3    H238540   0.352   6.552  14.976  1.4969 -0.4172 -1.3935
 5709TIP3   OH238541   3.182   4.898   1.714  0.0775 -0.1679  0.2476
 5709TIP3    H138542   3.260   4.953   1.721 -0.0175  0.1481 -0.9372
 5709TIP3    H238543   3.215   4.809   1.714  0.2637 -0.1229  1.8310
 5710TIP3   OH238544   2.694   0.102   5.053  0.5788 -0.4922  0.0853
 5710TIP3    H138545   2.662   0.067   5.136 -0.7297  2.3831  0.8962
 5710TIP3    H238546   2.636   0.063   4.987 -0.4890 -0.3181  0.8884
 5711TIP3   OH238547   2.156   4.306   1.829 -0.3540 -0.2244 -0.3780
 5711TIP3    H138548   2.161   4.366   1.903  0.1081 -1.3173  0.5010
 5711TIP3    H238549   2.203   4.351   1.759 -1.6049  1.2495 -0.3384
 5712TIP3   OH238550   3.536   5.641   3.459  0.1651 -0.0226 -0.0517
 5712TIP3    H138551   3.452   5.669   3.496 -0.0286 -0.7389  0.0504
 5712TIP3    H238552   3.596   5.638   3.534  0.4187  0.9471 -0.1942
 5713TIP3   OH238553   5.822   6.136   1.193  0.5865  0.1463 -0.5057
 5713TIP3    H138554   5.865   6.220   1.206 -1.5472  1.4472 -1.3317
 5713TIP3    H238555   5.731   6.152   1.215  0.0550 -1.8773 -1.0056
 5714TIP3   OH238556   4.374   0.124  11.310  0.5143  0.1607 -0.3587
 5714TIP3    H138557   4.331   0.143  11.227  1.7731 -0.9693 -1.3111
 5714TIP3    H238558   4.329   0.179  11.374  1.3163  3.2197 -2.2258
 5715TIP3   OH238559   3.760   2.230  13.583 -0.3799 -0.4934 -0.3538
 5715TIP3    H138560   3.755   2.148  13.632 -0.3781  0.2593  0.9771
 5715TIP3    H238561   3.779   2.296  13.650 -2.5380  0.9198 -1.0500
 5716TIP3   OH238562   1.700   3.302   5.497  0.1095 -0.0989  0.3579
 5716TIP3    H138563   1.749   3.372   5.456  1.5675 -0.7378  0.9258
 5716TIP3    H238564   1.674   3.337   5.582 -0.1825  0.1546  0.1627
 5717TIP3   OH238565   2.451   6.414   4.195 -0.0524 -0.4605  0.5803
 5717TIP3    H138566   2.383   6.403   4.129  1.6638 -5.3361 -0.8204
 5717TIP3    H238567   2.482   6.504   4.183 -2.0208 -0.0605 -2.9691
 5718TIP3   OH238568   0.475   6.721   3.294 -0.3309 -0.1942  0.0563
 5718TIP3    H138569   0.505   6.810   3.314 -0.4705  0.3784 -2.1032
 5718TIP3    H238570   0.380   6.727   3.296 -0.3439 -0.5174  0.7363
 5719TIP3   OH238571   4.525   0.365   5.853 -0.3394 -0.1869 -0.4604
 5719TIP3    H138572   4.541   0.358   5.759 -0.5266 -0.0987 -0.4987
 5719TIP3    H238573   4.435   0.334   5.865 -0.5592  0.4508 -0.4015
 5720TIP3   OH238574   6.331   3.356  15.878  0.1606  0.1337 -0.2757
 5720TIP3    H138575   6.336   3.324  15.788 -1.4815 -0.8078 -0.0640
 5720TIP3    H238576   6.254   3.413  15.879 -0.0602 -0.1677  0.6214
 5721TIP3   OH238577   1.271   5.825  13.596  0.1246 -0.1687  0.3605
 5721TIP3    H138578   1.196   5.780  13.555  0.3068 -0.4268  0.3062
 5721TIP3    H238579   1.324   5.754  13.633  0.0794  0.0501  0.8460
 5722TIP3   OH238580   1.623   2.057   1.542  0.4349  0.2029 -0.2137
 5722TIP3    H138581   1.700   2.062   1.599  0.5533  0.0404 -0.3556
 5722TIP3    H238582   1.577   2.139   1.556  0.9821  0.5819 -0.6170
 5723TIP3   OH238583   6.490   3.292  15.210  0.0780  0.4366  0.1565
 5723TIP3    H138584   6.542   3.283  15.131  1.5951  1.0943  1.0300
 5723TIP3    H238585   6.399   3.294  15.179  0.6479  1.2563 -1.6125
 5724TIP3   OH238586   1.889   3.224   3.771 -0.2870  0.0150  0.9656
 5724TIP3    H138587   1.863   3.133   3.790 -0.0278 -0.2901 -0.0922
 5724TIP3    H238588   1.966   3.238   3.825 -0.3713 -0.3691  1.1927
 5725TIP3   OH238589   5.057   0.360  13.773  0.1294  0.0599  0.2149
 5725TIP3    H138590   5.111   0.433  13.801  1.4684 -0.4359 -0.9292
 5725TIP3    H238591   5.053   0.369  13.678 -1.8209  0.0599  0.2561
 5726TIP3   OH238592   5.603   0.774  13.037  0.5749  0.0758  0.7033
 5726TIP3    H138593   5.697   0.762  13.022  0.7397  0.6903  1.2280
 5726TIP3    H238594   5.587   0.732  13.121  0.0091 -1.6761 -0.2182
 5727TIP3   OH238595   2.510   2.141  12.243  0.4710  0.4183  0.3317
 5727TIP3    H138596   2.556   2.115  12.323 -0.6087  2.1478  1.5794
 5727TIP3    H238597   2.418   2.149  12.270 -0.3406 -1.2697 -1.6860
 5728TIP3   OH238598   3.784   3.037  14.820 -0.3000  0.3356  0.2871
 5728TIP3    H138599   3.746   3.053  14.907  1.6427  0.2537  1.2040
 5728TIP3    H238600   3.780   2.941  14.810 -0.7643  0.3659  0.1614
 5729TIP3   OH238601   6.696   1.893   4.173 -0.3054  0.2402  0.0027
 5729TIP3    H138602   6.644   1.914   4.095 -0.5306 -1.0787 -0.2330
 5729TIP3    H238603   6.702   1.975   4.221 -0.7548  0.9163 -1.0634
 5730TIP3   OH238604   6.623   6.244  15.810 -0.5185 -0.0493 -0.2149
 5730TIP3    H138605   6.676   6.320  15.831 -1.6953  1.0425 -1.0392
 5730TIP3    H238606   6.564   6.234  15.885 -0.5006 -0.0245 -0.1978
 5731TIP3   OH238607   6.428   2.864   4.204  0.2249  0.2587 -0.2384
 5731TIP3    H138608   6.464   2.810   4.134 -1.5886 -0.1521 -0.9137
 5731TIP3    H238609   6.420   2.804   4.279  1.1050  0.4131 -0.0060
 5732TIP3   OH238610   5.277   0.530   0.548  0.1423  0.4620  0.3188
 5732TIP3    H138611   5.336   0.489   0.484  0.1279  0.5351  0.2579
 5732TIP3    H238612   5.200   0.473   0.549  0.8482 -0.5290  1.5770
 5733TIP3   OH238613   5.718   1.318  12.779 -0.1985 -0.0771 -0.3336
 5733TIP3    H138614   5.809   1.298  12.805 -0.2037  0.8358  0.4134
 5733TIP3    H238615   5.714   1.413  12.775 -1.1671 -0.1059 -0.2482
 5734TIP3   OH238616   4.659   5.844  15.953  0.1997 -0.2365 -0.2184
 5734TIP3    H138617   4.615   5.809  15.876 -0.7388 -0.3145  0.3308
 5734TIP3    H238618   4.588   5.859  16.016  1.0452 -1.1612  1.0043
 5735TIP3   OH238619   3.593   2.041  11.348  0.6568  0.1579 -0.0800
 5735TIP3    H138620   3.593   2.013  11.257 -0.7136 -0.1230 -0.0152
 5735TIP3    H238621   3.650   2.118  11.349  0.4218  0.3650 -1.2412
 5736TIP3   OH238622   2.200   1.020  16.661  0.0836 -0.1665 -0.2072
 5736TIP3    H138623   2.117   1.051  16.624  0.5143  1.3200  0.0490
 5736TIP3    H238624   2.241   1.098  16.698 -0.1425 -1.4377  3.1186
 5737TIP3   OH238625   2.050   2.097   1.883 -0.0599 -0.8657 -0.3575
 5737TIP3    H138626   2.132   2.126   1.843  0.5172 -0.4845  1.0206
 5737TIP3    H238627   2.077   2.057   1.966 -1.4234  2.8932  2.2045
 5738TIP3   OH238628   6.264   4.912   2.353 -0.4205  0.1918  0.3192
 5738TIP3    H138629   6.280   4.843   2.289 -1.4874 -0.1776  0.4317
 5738TIP3    H238630   6.306   4.989   2.317 -2.0313  0.3063 -1.4349
 5739TIP3   OH238631   6.603   2.208  13.725  0.1141  0.2844 -0.1347
 5739TIP3    H138632   6.596   2.197  13.630 -0.6271  0.0277 -0.0539
 5739TIP3    H238633   6.692   2.178  13.746 -0.2226 -1.0711 -0.5470
 5740TIP3   OH238634   0.597   1.266  16.180  0.1831 -0.3740 -1.1880
 5740TIP3    H138635   0.531   1.301  16.120  1.7435  0.9952 -2.1885
 5740TIP3    H238636   0.677   1.312  16.156  1.1780 -0.8430  1.0197
 5741TIP3   OH238637   0.895   4.385  15.657 -0.3498  0.0731  0.2384
 5741TIP3    H138638   0.934   4.358  15.574 -0.0077 -0.1125  0.4559
 5741TIP3    H238639   0.801   4.368  15.647 -0.2521 -0.3594  0.0467
 5742TIP3   OH238640   0.622   2.669  12.323  0.1002  0.0909 -0.4588
 5742TIP3    H138641   0.626   2.598  12.259 -0.6451 -0.0120 -0.4002
 5742TIP3    H238642   0.707   2.711  12.317  1.2522 -1.8854  0.7341
 5743TIP3   OH238643   5.060   2.027   1.506  0.4817  0.2187 -0.9067
 5743TIP3    H138644   5.105   2.075   1.576  1.7396 -0.2959 -1.3396
 5743TIP3    H238645   4.985   1.987   1.550  0.3030  1.2740 -0.2116
 5744TIP3   OH238646   1.470   2.846   1.611  0.0620  0.0465 -0.4679
 5744TIP3    H138647   1.387   2.883   1.579 -1.2966 -1.1949  1.4203
 5744TIP3    H238648   1.519   2.826   1.532 -1.6899  0.2791 -1.6793
 5745TIP3   OH238649   3.260   6.137   3.092  0.5962 -0.8077  0.4165
 5745TIP3    H138650   3.199   6.204   3.061  0.2128 -0.5152  1.7355
 5745TIP3    H238651   3.343   6.159   3.050 -0.0688 -0.9124 -1.0113
 5746TIP3   OH238652   1.685   6.183  16.769 -0.0641  0.7887 -0.3371
 5746TIP3    H138653   1.773   6.220  16.763 -0.0047  1.0166  1.2974
 5746TIP3    H238654   1.660   6.163  16.679  1.2119  1.7600 -0.9323
 5747TIP3   OH238655   1.135   2.176   5.264 -0.1047  0.4158 -0.0722
 5747TIP3    H138656   1.200   2.204   5.200  0.9082 -0.1000  0.7019
 5747TIP3    H238657   1.132   2.246   5.328  0.1879  0.1351  0.2504
 5748TIP3   OH238658   3.657   0.909  13.375 -0.6643 -0.3478 -1.0676
 5748TIP3    H138659   3.730   0.922  13.436 -1.5220  0.5314 -0.1791
 5748TIP3    H238660   3.579   0.931  13.427 -1.6630 -2.2654 -1.6746
 5749TIP3   OH238661   6.246   1.383   1.339  0.2669 -0.2962 -0.8825
 5749TIP3    H138662   6.152   1.391   1.357  0.7891 -0.9436  3.0589
 5749TIP3    H238663   6.251   1.361   1.246 -3.5853 -2.0737 -0.8676
 5750TIP3   OH238664   3.926   3.746  14.058 -0.5146  0.2271  0.8096
 5750TIP3    H138665   3.918   3.757  14.153  2.1272  0.0075  1.1256
 5750TIP3    H238666   3.920   3.651  14.045  3.4441 -0.2919  1.4193
 5751TIP3   OH238667   0.365   1.772  16.113 -0.5391 -0.1568 -0.0140
 5751TIP3    H138668   0.433   1.707  16.130  0.4052  0.5772 -0.8360
 5751TIP3    H238669   0.411   1.845  16.070 -2.0203 -0.1151 -1.6553
 5752TIP3   OH238670   4.992   6.252  14.973  0.0850  0.0765 -0.2877
 5752TIP3    H138671   4.922   6.222  14.915 -0.7480  1.0441  0.1851
 5752TIP3    H238672   4.976   6.346  14.984 -0.3435 -0.2053  2.2191
 5753TIP3   OH238673   4.209   4.970   1.542 -0.5055 -0.1221  0.9229
 5753TIP3    H138674   4.184   5.054   1.503  1.3003  1.2182  2.4578
 5753TIP3    H238675   4.259   4.994   1.620  0.7149 -2.6323  1.0037
 5754TIP3   OH238676   0.273   6.573   0.595 -0.1774  0.2737 -0.1662
 5754TIP3    H138677   0.207   6.553   0.661 -1.0237  0.1067 -1.0401
 5754TIP3    H238678   0.237   6.539   0.513  0.8943  0.3843 -0.7064
 5755TIP3   OH238679   1.535   1.301  15.409  0.1428  0.2013 -0.2482
 5755TIP3    H138680   1.572   1.257  15.485 -0.1026  2.1032  1.0232
 5755TIP3    H238681   1.487   1.232  15.362  1.1738 -1.2244  0.7279
 5756TIP3   OH238682   2.679   2.519   2.041 -0.0073 -0.3230  0.5624
 5756TIP3    H138683   2.605   2.558   2.086  0.1828  1.2974 -0.4525
 5756TIP3    H238684   2.676   2.426   2.065  0.3447  0.4533  4.2204
 5757TIP3   OH238685   2.751   0.407  11.394 -0.1187  0.1338  0.1167
 5757TIP3    H138686   2.766   0.350  11.318  0.5293  1.2745 -0.6521
 5757TIP3    H238687   2.703   0.482  11.359 -1.4710 -0.1806  1.2231
 5758TIP3   OH238688   1.805   4.096  13.645 -0.1533  0.1349 -0.4379
 5758TIP3    H138689   1.874   4.129  13.703  1.2011  0.8931 -2.3869
 5758TIP3    H238690   1.734   4.072  13.704  0.6844  1.9807  1.4568
 5759TIP3   OH238691   6.340   2.353   3.205 -0.4875  0.4577 -0.2471
 5759TIP3    H138692   6.345   2.442   3.238 -0.4224 -0.3939  2.2981
 5759TIP3    H238693   6.419   2.310   3.240 -1.8882 -1.2588  0.9843
 5760TIP3   OH238694   1.418   3.811  13.324  0.0724 -0.4908  0.1137
 5760TIP3    H138695   1.477   3.798  13.399  0.5936  0.0158 -0.2028
 5760TIP3    H238696   1.416   3.906  13.312  0.9752 -0.6219 -1.2857
 5761TIP3   OH238697   2.611   2.741   6.008  0.4472  0.4998  0.0198
 5761TIP3    H138698   2.577   2.654   6.028  1.0516 -0.1791 -1.6733
 5761TIP3    H238699   2.665   2.764   6.084  1.3833 -1.2123 -0.0660
 5762TIP3   OH238700   1.172   0.481   4.272  0.0746  0.2546  0.3994
 5762TIP3    H138701   1.241   0.430   4.315 -1.5010 -2.1267  0.2980
 5762TIP3    H238702   1.210   0.510   4.190  1.3135 -0.0112  0.8673
 5763TIP3   OH238703   0.990   1.026   1.804  0.3158  0.1344 -0.4182
 5763TIP3    H138704   1.054   0.967   1.843 -0.5284 -0.1249  0.6156
 5763TIP3    H238705   1.014   1.030   1.712  1.3112 -0.6097 -0.2036
 5764TIP3   OH238706   0.262   5.112  12.259 -0.0281  0.0056 -0.2338
 5764TIP3    H138707   0.234   5.128  12.349  1.7094 -0.5046  0.4561
 5764TIP3    H238708   0.262   5.198  12.218  0.2005  0.4195  0.5957
 5765TIP3   OH238709   0.363   2.837  13.379 -0.0332 -0.1794 -0.2116
 5765TIP3    H138710   0.279   2.802  13.349 -0.7237 -0.3902  1.8104
 5765TIP3    H238711   0.344   2.874  13.465  2.3223 -2.0435  1.2352
 5766TIP3   OH238712   6.545   5.559   2.235  0.3351  0.9700 -0.3837
 5766TIP3    H138713   6.450   5.567   2.230  0.2254 -0.2164 -0.4276
 5766TIP3    H238714   6.576   5.581   2.148 -0.1230 -1.1721 -1.1511
 5767TIP3   OH238715   0.077   6.486  14.224 -0.2349  0.7527 -0.6183
 5767TIP3    H138716   0.032   6.561  14.261 -0.1941 -0.8372  3.1953
 5767TIP3    H238717   0.170   6.507  14.233 -0.2080  0.0662  1.1740
 5768TIP3   OH238718   4.096   1.952   3.985  0.3834  0.0182 -0.2820
 5768TIP3    H138719   4.152   2.021   3.950  0.3539  0.1401 -0.0937
 5768TIP3    H238720   4.157   1.892   4.029  0.3039  0.5366  0.5603
 5769TIP3   OH238721   6.027   3.551  12.142 -0.0651  0.1258 -0.0885
 5769TIP3    H138722   6.059   3.600  12.218  2.2608  2.0049 -2.1160
 5769TIP3    H238723   6.059   3.462  12.155  4.1852  1.3229 -0.7259
 5770TIP3   OH238724   0.582   4.872   1.183  0.1953  0.2455  0.5280
 5770TIP3    H138725   0.667   4.903   1.215  0.8060  0.2509 -0.9796
 5770TIP3    H238726   0.518   4.914   1.240  1.1238  1.9650  0.3845
 5771TIP3   OH238727   1.374   3.373  15.890  0.2821 -0.4552 -0.5079
 5771TIP3    H138728   1.341   3.454  15.851 -0.0830  1.7639  3.8324
 5771TIP3    H238729   1.458   3.397  15.929 -0.9344 -1.2521  3.0363
 5772TIP3   OH238730   5.831   3.883   2.388 -0.3334  0.1654  0.1766
 5772TIP3    H138731   5.807   3.975   2.398 -0.0241  0.4708 -1.5375
 5772TIP3    H238732   5.773   3.850   2.320  0.6429 -0.4590 -0.3760
 5773TIP3   OH238733   3.517   6.161   2.991 -0.0010  0.3276  0.1937
 5773TIP3    H138734   3.562   6.235   3.032 -0.2631  0.8121 -0.3784
 5773TIP3    H238735   3.587   6.098   2.975  0.0456 -0.0489  1.7353
 5774TIP3   OH238736   0.934   1.468  15.649  0.8864  0.2107  0.1466
 5774TIP3    H138737   1.005   1.451  15.588  0.1984  0.9168 -0.8695
 5774TIP3    H238738   0.891   1.547  15.616 -0.4334 -0.2457  0.6765
 5775TIP3   OH238739   0.234   5.670  13.258 -0.2833  0.2240  0.2973
 5775TIP3    H138740   0.243   5.703  13.169 -0.4344 -2.2389 -0.7002
 5775TIP3    H238741   0.324   5.657  13.288 -0.2312 -0.0772  0.0222
 5776TIP3   OH238742   4.841   5.753  12.977  0.0741 -0.0207  0.3636
 5776TIP3    H138743   4.886   5.705  13.047 -0.7251 -0.8446  0.3326
 5776TIP3    H238744   4.757   5.709  12.969 -0.1324  0.5385 -0.6209
 5777TIP3   OH238745   3.803   1.783   3.623  0.2219  0.7711 -0.4543
 5777TIP3    H138746   3.713   1.815   3.619 -0.1981 -0.0346  1.2982
 5777TIP3    H238747   3.801   1.701   3.573 -0.3856  0.0560  0.6943
 5778TIP3   OH238748   3.228   0.046   5.330  0.2759 -0.0873 -0.3975
 5778TIP3    H138749   3.232   0.112   5.260  0.6127 -2.1199 -2.4370
 5778TIP3    H238750   3.152  -0.007   5.308 -1.6126  1.0653  2.7152
 5779TIP3   OH238751   1.355   3.280   3.632  0.7074 -0.0055  0.0527
 5779TIP3    H138752   1.318   3.228   3.703  1.0258 -1.1387 -0.5870
 5779TIP3    H238753   1.450   3.271   3.643  0.7557 -0.9354 -1.0370
 5780TIP3   OH238754   4.916   0.793  11.946 -0.1080 -0.2415 -0.1681
 5780TIP3    H138755   4.834   0.806  11.899  0.1075  0.8876 -0.2623
 5780TIP3    H238756   4.979   0.767  11.879 -0.5616 -2.0341  0.0336
 5781TIP3   OH238757   2.544   3.269   5.562 -0.1082 -0.0815 -0.2270
 5781TIP3    H138758   2.550   3.259   5.657 -0.2754 -1.1125 -0.3128
 5781TIP3    H238759   2.500   3.353   5.550 -1.2706 -0.5269  0.6386
 5782TIP3   OH238760   4.012   1.914   2.321  0.1266 -0.1673 -0.6445
 5782TIP3    H138761   4.089   1.939   2.270 -0.7046 -2.1940 -3.1070
 5782TIP3    H238762   4.019   1.965   2.402  2.6037  1.7122 -1.9098
 5783TIP3   OH238763   0.184   3.460  12.462 -0.3526  0.0887  0.2951
 5783TIP3    H138764   0.210   3.546  12.429 -1.3973  0.0622 -0.6457
 5783TIP3    H238765   0.196   3.465  12.556  1.1317  0.7254  0.1006
 5784TIP3   OH238766   5.895   3.825  14.219 -0.5401  0.0478  0.0060
 5784TIP3    H138767   5.856   3.801  14.303 -1.2658 -0.3752 -0.4365
 5784TIP3    H238768   5.957   3.894  14.240 -1.1125  0.3313  0.8233
 5785TIP3   OH238769   2.572   2.943   3.967  0.0116 -0.2032  0.3180
 5785TIP3    H138770   2.622   2.915   3.889 -0.9179 -0.6958 -0.1136
 5785TIP3    H238771   2.554   2.861   4.014 -2.3015 -0.3458 -0.6972
 5786TIP3   OH238772   2.210   5.516   4.202 -0.3203 -0.8419  0.0201
 5786TIP3    H138773   2.282   5.455   4.185 -1.1216 -1.5594 -0.8846
 5786TIP3    H238774   2.185   5.549   4.115  0.6090  1.4156  0.5331
 5787TIP3   OH238775   4.149   3.129  16.702  0.0777 -0.1079  0.1344
 5787TIP3    H138776   4.242   3.131  16.722 -0.0421 -0.0415  0.7005
 5787TIP3    H238777   4.118   3.045  16.736 -0.7192  1.2397  3.0092
 5788TIP3   OH238778   4.617   4.665   1.717 -0.4352  0.9295  0.1135
 5788TIP3    H138779   4.526   4.692   1.709 -0.7655 -0.0612  0.3878
 5788TIP3    H238780   4.615   4.590   1.777  0.7523  1.8350  1.3295
 5789TIP3   OH238781   5.353   5.620  12.521 -0.0038  0.4569 -0.7714
 5789TIP3    H138782   5.438   5.652  12.490 -0.3462  0.8174 -1.3330
 5789TIP3    H238783   5.375   5.565  12.596  0.6182  1.9501  0.1996
 5790TIP3   OH238784   2.963   0.493  11.520  0.2584  0.1682  0.5339
 5790TIP3    H138785   2.976   0.457  11.607  2.0084  0.6933  0.5241
 5790TIP3    H238786   2.881   0.454  11.490  0.5931 -1.4755  1.6603
 5791TIP3   OH238787   3.612   6.136   4.853 -0.0729 -0.0014  0.4962
 5791TIP3    H138788   3.572   6.150   4.938  0.0769 -2.3266  1.0291
 5791TIP3    H238789   3.686   6.078   4.871  0.0169 -0.4665 -1.1981
 5792TIP3   OH238790   0.507   4.538   4.990 -0.2853  0.0016  0.3156
 5792TIP3    H138791   0.429   4.569   5.036 -0.6711 -0.1287 -0.2450
 5792TIP3    H238792   0.515   4.596   4.914  1.5890  1.6243  1.6450
 5793TIP3   OH238793   3.159   1.284  10.673  0.7263  0.2577  0.0085
 5793TIP3    H138794   3.112   1.201  10.657 -1.0114  1.0083  0.8833
 5793TIP3    H238795   3.203   1.270  10.757 -1.2026  0.8103  1.1968
 5794TIP3   OH238796   0.967   1.876  15.271  0.0832 -0.6240  0.4793
 5794TIP3    H138797   1.033   1.924  15.321 -0.6295 -0.8278  1.6414
 5794TIP3    H238798   0.998   1.881  15.181 -0.1009  2.3178  0.4590
 5795TIP3   OH238799   0.079   5.833   6.195  0.3675 -0.2711 -0.0071
 5795TIP3    H138800   0.106   5.904   6.136 -1.7903  1.3589  0.7889
 5795TIP3    H238801   0.155   5.817   6.251  1.4722  0.1826 -1.3272
 5796TIP3   OH238802   2.281   2.922  15.101  0.1148 -0.5799 -0.0744
 5796TIP3    H138803   2.305   3.004  15.057  1.4397 -0.4266  0.8607
 5796TIP3    H238804   2.283   2.856  15.032 -0.4921  0.0844 -0.7500
 5797TIP3   OH238805   2.055   4.368   5.142  0.2249 -0.3031 -0.0906
 5797TIP3    H138806   2.135   4.350   5.193  0.1931  1.1131  0.5092
 5797TIP3    H238807   2.076   4.448   5.093 -1.4963  1.3970  1.7411
 5798TIP3   OH238808   1.297   4.352   1.238  0.6529 -0.0030 -0.1078
 5798TIP3    H138809   1.304   4.257   1.247 -1.3577 -0.0950  0.9948
 5798TIP3    H238810   1.317   4.387   1.325 -1.4537  0.3379  0.2977
 5799TIP3   OH238811   2.139   4.348  11.089  0.0255 -0.6721 -0.2051
 5799TIP3    H138812   2.220   4.357  11.139  0.4977 -0.5686 -0.9920
 5799TIP3    H238813   2.126   4.254  11.081  0.0927 -0.6889 -0.1255
 5800TIP3   OH238814   6.129   1.145  14.191 -0.3235  0.3050 -0.3003
 5800TIP3    H138815   6.162   1.068  14.146  0.1973  0.6046 -0.4432
 5800TIP3    H238816   6.207   1.197  14.209 -0.5366  0.2843  0.7766
 5801TIP3   OH238817   3.451   5.034  12.545 -0.2364  0.3506  0.1872
 5801TIP3    H138818   3.541   5.025  12.514 -0.0198  1.2892  0.4968
 5801TIP3    H238819   3.397   4.995  12.476  0.4421 -0.9001  0.3437
 5802TIP3   OH238820   0.880   5.001   5.925 -0.0902  0.1701 -0.1405
 5802TIP3    H138821   0.945   5.070   5.912  0.8854 -0.7929 -0.5745
 5802TIP3    H238822   0.813   5.040   5.982 -0.4911  2.0336 -1.8025
 5803TIP3   OH238823   3.376   5.720  14.160 -0.2782  0.2679 -0.6753
 5803TIP3    H138824   3.297   5.703  14.210 -0.9120  0.5309 -1.5703
 5803TIP3    H238825   3.437   5.756  14.224 -1.0519  0.5472 -0.0807
 5804TIP3   OH238826   1.170   4.079   1.280 -0.0329  0.5194 -0.5310
 5804TIP3    H138827   1.111   4.007   1.302  2.1209 -1.3857 -0.6274
 5804TIP3    H238828   1.201   4.058   1.192  1.7830  0.7088  0.0221
 5805TIP3   OH238829   2.975   2.379  15.324  0.4356 -0.0655  0.1179
 5805TIP3    H138830   3.004   2.449  15.267  2.2962 -0.3298  0.6666
 5805TIP3    H238831   2.883   2.398  15.342  0.2594  0.8838 -1.6511
 5806TIP3   OH238832   6.230   5.570   5.914  0.3590  0.3396  0.5877
 5806TIP3    H138833   6.187   5.572   5.999  1.8791 -1.0555  1.4563
 5806TIP3    H238834   6.302   5.632   5.921 -0.0695  0.9213 -0.0284
 5807TIP3   OH238835   2.539   6.450   5.260 -0.1383 -0.4500  0.1697
 5807TIP3    H138836   2.605   6.445   5.191 -1.5668  1.0321 -1.3990
 5807TIP3    H238837   2.523   6.359   5.284  2.3926 -0.8698  0.5886
 5808TIP3   OH238838   1.655   1.142  16.751 -0.1272  0.6791 -0.4000
 5808TIP3    H138839   1.591   1.149  16.680  0.5493  0.9722 -0.9849
 5808TIP3    H238840   1.661   1.231  16.787 -0.1243  0.6287 -0.2745
 5809TIP3   OH238841   4.888   0.046   3.767  0.9443 -0.0861 -0.3292
 5809TIP3    H138842   4.815  -0.010   3.740  2.5679 -1.3633 -2.3450
 5809TIP3    H238843   4.887   0.041   3.863 -2.2568  0.8767 -0.2099
 5810TIP3   OH238844   1.318   6.179   0.311 -0.1088 -0.2957  0.3605
 5810TIP3    H138845   1.265   6.227   0.248 -0.0947  2.2267  2.1330
 5810TIP3    H238846   1.395   6.152   0.261  0.1980  2.1503 -0.6356
 5811TIP3   OH238847   6.535   1.252   4.775  0.1154  0.3639  0.1706
 5811TIP3    H138848   6.614   1.299   4.801 -1.5308  2.2758  2.1799
 5811TIP3    H238849   6.504   1.212   4.857 -0.5204 -1.1472 -0.7688
 5812TIP3   OH238850   5.324   3.466  11.664 -0.6939  0.1604 -0.0662
 5812TIP3    H138851   5.309   3.371  11.667 -0.0227 -0.0680 -2.3285
 5812TIP3    H238852   5.239   3.504  11.688 -0.8515 -0.9633  1.3266
 5813TIP3   OH238853   2.421   2.873  15.337 -0.0564  0.4743 -0.7661
 5813TIP3    H138854   2.364   2.825  15.277  0.8312 -0.2874 -1.0305
 5813TIP3    H238855   2.490   2.909  15.281  0.5288  0.1411 -0.2826
 5814TIP3   OH238856   6.038   3.184   5.402  0.3896  0.2714 -0.4768
 5814TIP3    H138857   5.949   3.208   5.428  0.6697  0.2447  0.5592
 5814TIP3    H238858   6.050   3.095   5.437 -0.1422 -0.9251 -3.0445
 5815TIP3   OH238859   2.240   3.892  12.944 -0.5905  0.2652  0.0088
 5815TIP3    H138860   2.285   3.935  12.872  0.4804 -0.9894 -0.0980
 5815TIP3    H238861   2.148   3.914  12.931 -0.1393  2.0847 -0.3123
 5816TIP3   OH238862   2.116   2.505  15.814 -0.5675 -0.0119 -0.5613
 5816TIP3    H138863   2.046   2.450  15.850 -2.6340  1.5445 -1.9496
 5816TIP3    H238864   2.164   2.447  15.756 -1.9695 -0.6858 -1.1029
 5817TIP3   OH238865   1.613   5.777   0.748 -0.0943  0.5400 -0.6610
 5817TIP3    H138866   1.578   5.867   0.753 -0.6704  0.2741  0.3870
 5817TIP3    H238867   1.583   5.745   0.663 -1.4633  0.7184 -0.2735
 5818TIP3   OH238868   6.471   4.979   6.015  0.2012  0.1271  0.0319
 5818TIP3    H138869   6.524   5.024   5.949 -0.2225 -0.0292 -0.4251
 5818TIP3    H238870   6.487   5.026   6.096  2.0639 -0.7026  0.1943
 5819TIP3   OH238871   4.932   2.907   0.640 -0.5800  0.3422  0.1476
 5819TIP3    H138872   4.858   2.847   0.638 -0.5636  0.3250 -0.0136
 5819TIP3    H238873   4.983   2.883   0.562  0.1408 -0.3467  0.8159
 5820TIP3   OH238874   1.517   5.989  10.889  0.0368  0.2023 -0.6981
 5820TIP3    H138875   1.602   6.032  10.895 -0.3724  0.8647  0.9835
 5820TIP3    H238876   1.454   6.061  10.882 -0.5484 -0.1522  0.6276
 5821TIP3   OH238877   2.465   3.080  16.071 -0.2438 -0.2591 -0.0004
 5821TIP3    H138878   2.497   3.006  16.121 -0.5152 -0.0316  0.5116
 5821TIP3    H238879   2.439   3.043  15.987 -0.9943 -0.8589  0.4867
 5822TIP3   OH238880   1.155   6.585   3.639 -0.2894 -0.4838  0.1575
 5822TIP3    H138881   1.106   6.657   3.679 -0.9313 -0.8582  0.0505
 5822TIP3    H238882   1.173   6.525   3.711 -0.5224 -0.6424  0.0847
 5823TIP3   OH238883   2.848   1.661   1.413 -0.4198 -0.4260  0.2509
 5823TIP3    H138884   2.916   1.630   1.353 -0.6570  0.1761 -0.3423
 5823TIP3    H238885   2.771   1.609   1.390 -0.0975 -1.2959  1.1038
 5824TIP3   OH238886   4.400   4.749   3.765 -0.0873 -0.5921 -0.3104
 5824TIP3    H138887   4.386   4.670   3.713 -1.1423 -0.6631  0.0684
 5824TIP3    H238888   4.327   4.807   3.742 -0.7121 -0.7178  1.2442
 5825TIP3   OH238889   3.980   5.808  11.360 -0.9232 -0.8715  0.0646
 5825TIP3    H138890   4.004   5.871  11.427 -1.2235 -1.4694  0.7470
 5825TIP3    H238891   3.955   5.862  11.285 -0.2681 -0.2011  0.3087
 5826TIP3   OH238892   2.447   1.185  16.694  0.1531 -0.6037  0.3694
 5826TIP3    H138893   2.514   1.120  16.672 -0.6661 -0.9636 -1.2085
 5826TIP3    H238894   2.441   1.182  16.790  1.5979 -1.3494  0.4590
 5827TIP3   OH238895   4.396   3.046  12.803  0.4183 -0.0102  0.3927
 5827TIP3    H138896   4.362   3.135  12.790 -0.0166 -0.3586 -0.9683
 5827TIP3    H238897   4.320   2.989  12.790  1.2403 -0.7293 -1.6023
 5828TIP3   OH238898   6.070   3.251  15.354  0.2613 -0.0752 -0.0044
 5828TIP3    H138899   6.107   3.285  15.436  0.2858 -1.6174  0.6467
 5828TIP3    H238900   6.062   3.329  15.298  0.0654  1.0375  1.5104
 5829TIP3   OH238901   1.179   4.756  10.629 -0.9259  0.2675  0.4514
 5829TIP3    H138902   1.202   4.703  10.705  1.6995  3.6470  2.2856
 5829TIP3    H238903   1.241   4.730  10.561  0.0425  0.6459  1.1789
 5830TIP3   OH238904   1.178   0.033   6.331 -0.0210  0.9384  0.5072
 5830TIP3    H138905   1.150   0.026   6.240  1.1024  1.7099  0.0958
 5830TIP3    H238906   1.216  -0.053   6.351 -1.2445  0.3869  0.6216
 5831TIP3   OH238907   5.825   1.584   0.987 -0.0270  0.5344  0.0416
 5831TIP3    H138908   5.917   1.560   0.979 -0.1648 -0.7856  1.8172
 5831TIP3    H238909   5.826   1.671   1.027  0.4313  0.2941  0.5499
 5832TIP3   OH238910   0.275   1.733  16.717 -0.1089  0.4273  0.2597
 5832TIP3    H138911   0.326   1.729  16.636 -2.6166 -0.8586 -1.4044
 5832TIP3    H238912   0.322   1.677  16.778  0.3690 -0.9354 -1.2776
 5833TIP3   OH238913   3.959   4.865   3.934  0.4259  0.0238 -0.5280
 5833TIP3    H138914   3.944   4.843   4.025 -0.0102 -1.3987 -0.9177
 5833TIP3    H238915   3.905   4.943   3.919  1.5456  1.0876  0.7396
 5834TIP3   OH238916   0.337   5.191   2.897  0.4438 -0.2223  0.0857
 5834TIP3    H138917   0.399   5.251   2.938 -0.9996  0.6002  1.1881
 5834TIP3    H238918   0.315   5.128   2.966 -0.4394 -0.0775 -0.0405
 5835TIP3   OH238919   2.804   3.628   2.302 -0.2317  0.5405 -0.8591
 5835TIP3    H138920   2.824   3.596   2.214 -0.9376 -0.0367 -0.8180
 5835TIP3    H238921   2.848   3.567   2.361  2.0933  2.1616 -0.7913
 5836TIP3   OH238922   0.117   6.556   4.375  0.0285 -0.2403  0.3865
 5836TIP3    H138923   0.137   6.644   4.407  2.5965 -1.0087  1.1148
 5836TIP3    H238924   0.053   6.570   4.305 -1.7698  1.9282  2.2983
 5837TIP3   OH238925   4.819   0.595   4.443 -0.0907  0.4535  0.2224
 5837TIP3    H138926   4.788   0.517   4.395  3.3624 -1.4331  0.7288
 5837TIP3    H238927   4.862   0.648   4.376  0.7163  0.0861  0.4352
 5838TIP3   OH238928   0.282   6.609   2.159 -0.0246 -0.2439  0.0271
 5838TIP3    H138929   0.311   6.602   2.250  0.2659  1.2411  0.0659
 5838TIP3    H238930   0.362   6.618   2.108 -0.1119 -2.1241 -0.5304
 5839TIP3   OH238931   6.656   1.279   5.510 -0.3277  0.6464  0.3862
 5839TIP3    H138932   6.651   1.220   5.585  1.5053 -1.2226 -0.8535
 5839TIP3    H238933   6.698   1.358   5.544  1.4704 -0.5868  1.1481
 5840TIP3   OH238934   4.596   4.330  15.231 -0.2775 -0.2942  0.7411
 5840TIP3    H138935   4.541   4.405  15.208  0.0523 -0.7181 -1.7001
 5840TIP3    H238936   4.661   4.367  15.292  0.5508  1.7515 -1.2186
 5841TIP3   OH238937   2.507   0.181   2.040  0.2406  0.0765 -0.0229
 5841TIP3    H138938   2.488   0.134   2.121 -2.4117  1.3337  0.2107
 5841TIP3    H238939   2.539   0.266   2.068 -0.5669  0.4718 -0.2665
 5842TIP3   OH238940   1.991   4.583  10.993 -0.6223 -0.1075 -0.3119
 5842TIP3    H138941   1.965   4.662  11.040  0.6069  0.2821 -0.2529
 5842TIP3    H238942   2.019   4.522  11.062  0.0927  0.0472 -0.4637
 5843TIP3   OH238943   5.950   5.322  11.370 -0.1319 -0.8754  0.2634
 5843TIP3    H138944   5.904   5.370  11.301  0.9777  0.1678  0.2035
 5843TIP3    H238945   5.900   5.340  11.449 -0.0251 -0.0187  0.1481
 5844TIP3   OH238946   2.465   4.083   3.765  0.6374  0.1486 -0.1246
 5844TIP3    H138947   2.515   4.117   3.690 -0.2531 -0.1565 -0.8671
 5844TIP3    H238948   2.532   4.052   3.826  1.4258  1.5873 -0.2120
 5845TIP3   OH238949   1.234   2.626   3.173  0.0631 -0.6129  0.5450
 5845TIP3    H138950   1.254   2.646   3.082  1.9026 -1.1131  0.7962
 5845TIP3    H238951   1.247   2.708   3.219 -0.0357 -0.5602  0.4798
 5846TIP3   OH238952   3.286   5.145  15.734 -0.0764 -0.0203 -0.5810
 5846TIP3    H138953   3.348   5.159  15.806  0.3245 -0.3528 -0.8595
 5846TIP3    H238954   3.239   5.065  15.758 -1.3634  0.9521  0.3001
 5847TIP3   OH238955   0.381   1.145  15.858  0.4429 -0.5177 -0.2780
 5847TIP3    H138956   0.426   1.084  15.916 -0.2148 -1.0049 -0.2742
 5847TIP3    H238957   0.444   1.163  15.788  2.6161  2.6423  2.1637
 5848TIP3   OH238958   3.046   4.268   3.056  0.0633  0.2729 -0.0437
 5848TIP3    H138959   3.132   4.280   3.097  1.4372 -2.4152 -1.8529
 5848TIP3    H238960   3.062   4.277   2.962 -1.6802 -0.0999 -0.4166
 5849TIP3   OH238961   5.584   2.939  10.405  0.3861 -0.0277  0.1096
 5849TIP3    H138962   5.505   2.892  10.378  1.3167 -1.1175 -0.8085
 5849TIP3    H238963   5.624   2.966  10.323  0.9870  0.5090  0.5725
 5850TIP3   OH238964   4.029   2.059   4.592 -0.2153  0.4846 -0.0433
 5850TIP3    H138965   4.070   2.027   4.672 -1.1691 -1.7523 -0.3683
 5850TIP3    H238966   3.951   2.106   4.622  1.0310  2.3564  0.4311
 5851TIP3   OH238967   4.851   3.076  11.183 -0.4104 -0.3722 -0.2969
 5851TIP3    H138968   4.908   3.092  11.108  0.6529  0.0998  0.5831
 5851TIP3    H238969   4.798   3.155  11.191  2.1058  1.2825  1.6697
 5852TIP3   OH238970   6.756   1.325   3.412 -0.0332  0.2474 -0.4084
 5852TIP3    H138971   6.667   1.355   3.431  0.4199  2.0777 -0.9184
 5852TIP3    H238972   6.809   1.361   3.483  0.4909  0.2897 -0.8186
 5853TIP3   OH238973   5.220   1.391   0.033 -0.4314 -0.0494 -0.2588
 5853TIP3    H138974   5.231   1.423   0.122  1.6292 -1.1486 -0.0610
 5853TIP3    H238975   5.133   1.349   0.032  0.0748 -1.2451  1.6396
 5854TIP3   OH238976   5.135   0.769  16.287  0.2132  0.1622 -0.5873
 5854TIP3    H138977   5.158   0.723  16.206  2.0816  3.3117 -2.0780
 5854TIP3    H238978   5.168   0.713  16.357  1.2311 -1.3324 -2.1835
 5855TIP3   OH238979   1.800   4.763  16.335  0.1459  0.2688 -0.8355
 5855TIP3    H138980   1.869   4.745  16.271  1.3897  0.3664  0.4245
 5855TIP3    H238981   1.789   4.858  16.332  0.9114  0.3926 -0.2449
 5856TIP3   OH238982   0.700   5.599   1.733  0.5940  0.0454  0.0937
 5856TIP3    H138983   0.614   5.606   1.692  0.8201  2.0021 -0.1215
 5856TIP3    H238984   0.724   5.507   1.722 -1.6026 -0.6370  0.4639
 5857TIP3   OH238985   2.529   0.507  16.519 -0.1495 -0.5906  0.2113
 5857TIP3    H138986   2.507   0.478  16.608 -0.5937 -1.3805 -0.1499
 5857TIP3    H238987   2.444   0.527  16.479  0.1684  3.1854  1.0629
 5858TIP3   OH238988   1.838   0.035  10.910  0.4524 -0.2474 -0.2552
 5858TIP3    H138989   1.808   0.126  10.909 -2.3363 -1.0501 -0.4982
 5858TIP3    H238990   1.845   0.011  10.817  1.1893 -0.2990 -0.1917
 5859TIP3   OH238991   3.680   3.143  11.051 -0.5202  0.3635  0.3821
 5859TIP3    H138992   3.676   3.146  10.955 -3.8225  1.2545  0.4300
 5859TIP3    H238993   3.773   3.128  11.070  0.2715  0.1585 -2.9207
 5860TIP3   OH238994   4.806   4.030   3.498 -0.0875  0.0134  0.1367
 5860TIP3    H138995   4.731   4.033   3.557  0.8626  2.0450  1.3189
 5860TIP3    H238996   4.774   4.070   3.417 -0.2126  1.2010  0.7533
 5861TIP3   OH238997   3.824   5.891  16.345 -0.1582 -0.3053  0.0275
 5861TIP3    H138998   3.759   5.874  16.413  1.4485  0.2262  1.7582
 5861TIP3    H238999   3.825   5.986  16.336  0.4231 -0.3066  0.0581
 5862TIP3   OH239000   4.109   6.044  13.977 -0.4147 -0.0611 -0.1098
 5862TIP3    H139001   4.041   6.016  14.039  0.2951 -0.0841  0.6753
 5862TIP3    H239002   4.187   6.057  14.031  0.7428 -1.8742 -1.2338
 5863TIP3   OH239003   6.620   5.971  13.439  0.1411 -0.8737  0.4102
 5863TIP3    H139004   6.547   6.015  13.397 -0.0237 -2.2130 -0.7970
 5863TIP3    H239005   6.690   6.035  13.440  0.5322 -1.0808 -3.0541
 5864TIP3   OH239006   2.055   2.475   1.646  0.3304 -0.2956  0.2119
 5864TIP3    H139007   1.972   2.496   1.689 -0.1406 -1.0728 -0.2789
 5864TIP3    H239008   2.033   2.403   1.586  1.2525 -0.1606 -0.3093
 5865TIP3   OH239009   0.469   5.208   6.076  0.3997 -0.0470  0.3490
 5865TIP3    H139010   0.506   5.295   6.059  2.1956 -0.9317 -0.6306
 5865TIP3    H239011   0.384   5.209   6.032  0.4806  1.1595  0.1890
 5866TIP3   OH239012   1.359   5.812  16.994 -0.0165 -0.2710  0.0231
 5866TIP3    H139013   1.337   5.751  16.924 -1.5194  1.0813 -0.7439
 5866TIP3    H239014   1.451   5.836  16.978 -0.1988 -0.3437 -1.2087
 5867TIP3   OH239015   0.900   4.632   1.722 -0.2545  0.1917 -0.2170
 5867TIP3    H139016   0.969   4.597   1.778 -1.0982 -0.9220  0.1619
 5867TIP3    H239017   0.923   4.601   1.634 -0.6647 -0.8182  0.0243
 5868TIP3   OH239018   6.408   3.073   0.015  0.2249  0.2289  0.1767
 5868TIP3    H139019   6.495   3.088  -0.021 -0.0717 -0.7564 -1.0439
 5868TIP3    H239020   6.419   2.999   0.075  0.9216  2.5113  3.1013
 5869TIP3   OH239021   2.754   0.558  16.086 -0.3817 -0.2602  0.1645
 5869TIP3    H139022   2.693   0.595  16.150 -0.3241  1.7294 -0.8449
 5869TIP3    H239023   2.702   0.553  16.005  0.6355  1.1817 -0.6323
 5870TIP3   OH239024   3.450   5.016  11.418  0.7513 -0.5742  0.6467
 5870TIP3    H139025   3.462   4.991  11.326  0.5096 -0.1932  0.5092
 5870TIP3    H239026   3.413   4.938  11.459  2.9244 -1.5362  0.9275
 5871TIP3   OH239027   2.674   4.476  14.632 -0.0872 -0.5782  0.4309
 5871TIP3    H139028   2.753   4.464  14.580 -0.8822 -0.3660 -0.8452
 5871TIP3    H239029   2.705   4.519  14.712  0.9231  0.5396 -0.5362
 5872TIP3   OH239030   0.743   2.728   4.653  0.5677  0.0888 -0.7155
 5872TIP3    H139031   0.698   2.644   4.650 -1.3751  1.0138  0.4930
 5872TIP3    H239032   0.717   2.772   4.571  0.4605  0.0431 -0.7067
 5873TIP3   OH239033   1.531   6.092  15.478 -0.2579  0.7146 -0.1658
 5873TIP3    H139034   1.590   6.147  15.426 -0.2776  0.4389 -0.4851
 5873TIP3    H239035   1.558   6.002  15.458  0.7694  0.6136  1.5103
 5874TIP3   OH239036   2.041   3.054  14.487  0.0785 -0.3814  0.8560
 5874TIP3    H139037   1.982   3.120  14.523  0.9552  0.3958  0.9105
 5874TIP3    H239038   1.983   2.991  14.443 -0.7509  0.6203  0.4776
 5875TIP3   OH239039   3.522   3.504  12.163  1.0402  0.5918  0.2020
 5875TIP3    H139040   3.471   3.553  12.098 -0.4578  0.6490  1.3641
 5875TIP3    H239041   3.467   3.429  12.186  3.2920 -1.7901 -1.5666
 5876TIP3   OH239042   0.929   4.227  15.194  0.3270  0.2879 -0.6116
 5876TIP3    H139043   0.866   4.291  15.161  1.4873  1.4740 -0.5764
 5876TIP3    H239044   0.994   4.279  15.241  1.4317 -0.9007 -0.7821
 5877TIP3   OH239045   3.475   4.337   6.268 -0.1201 -0.5717 -0.1396
 5877TIP3    H139046   3.559   4.297   6.249  1.4008  2.0620  0.5426
 5877TIP3    H239047   3.459   4.316   6.360  2.4025  2.9239  1.3203
 5878TIP3   OH239048   4.714   5.410   5.213 -0.4655  0.1478 -0.0291
 5878TIP3    H139049   4.732   5.504   5.218 -0.5700  0.1339  0.8115
 5878TIP3    H239050   4.630   5.404   5.168 -1.3002  0.5812  1.3783
 5879TIP3   OH239051   0.461   4.171  16.277 -0.1191  0.2183 -0.9465
 5879TIP3    H139052   0.478   4.210  16.191  0.0960 -0.4939 -1.2273
 5879TIP3    H239053   0.490   4.081  16.269 -1.5707 -0.3091 -0.6236
 5880TIP3   OH239054   6.721   6.008   3.506 -0.3440 -0.7348  0.7982
 5880TIP3    H139055   6.713   6.011   3.411  1.1777 -2.6528  0.5463
 5880TIP3    H239056   6.805   6.050   3.525 -0.5652 -0.5004  1.2797
 5881TIP3   OH239057   3.592   3.389  16.579 -0.0975  0.7456 -0.0004
 5881TIP3    H139058   3.527   3.350  16.521 -2.5376  0.5035  2.7032
 5881TIP3    H239059   3.582   3.484  16.565 -0.1300  0.6789 -0.4682
 5882TIP3   OH239060   1.834   0.431   0.779  0.1234  0.1248  0.2871
 5882TIP3    H139061   1.913   0.474   0.746 -0.3311 -0.5967 -1.8624
 5882TIP3    H239062   1.818   0.360   0.718 -1.0238 -1.0659  1.8966
 5883TIP3   OH239063   1.417   1.818  10.316 -0.0940 -0.2909 -0.3574
 5883TIP3    H139064   1.322   1.824  10.316 -0.1182  1.4160  2.3518
 5883TIP3    H239065   1.438   1.765  10.393  1.0783  2.1909  1.1922
 5884TIP3   OH239066   4.585   4.190   1.945 -0.3445 -0.2632 -0.0674
 5884TIP3    H139067   4.582   4.136   1.867 -0.7146 -1.7560  0.9469
 5884TIP3    H239068   4.650   4.149   2.001  1.1443  1.7265 -0.2087
 5885TIP3   OH239069   2.052   5.044   1.243 -0.2243 -0.1821 -0.2665
 5885TIP3    H139070   2.116   5.018   1.310 -0.2306  1.7185  0.5346
 5885TIP3    H239071   1.968   5.018   1.280 -0.1004 -0.5646 -0.2498
 5886TIP3   OH239072   3.359   5.647  16.512  0.6534 -0.5434 -0.4716
 5886TIP3    H139073   3.309   5.728  16.504  0.8578 -0.3721 -0.0638
 5886TIP3    H239074   3.295   5.578  16.494 -0.2240 -0.4217  1.8063
 5887TIP3   OH239075   5.071   4.459   5.613 -0.2213 -0.6874 -0.3944
 5887TIP3    H139076   5.145   4.515   5.638  0.4009 -0.8551 -1.7541
 5887TIP3    H239077   5.036   4.427   5.696  0.1374  0.7922  0.3503
 5888TIP3   OH239078   4.061   5.928  15.735  0.0662 -0.2516  0.1832
 5888TIP3    H139079   4.016   5.890  15.659  0.3579  1.1046 -0.6956
 5888TIP3    H239080   4.030   5.876  15.809 -0.8809 -1.0675 -0.7521
 5889TIP3   OH239081   4.211   3.073  14.682 -0.3745 -0.1576 -0.0435
 5889TIP3    H139082   4.190   3.140  14.748  0.3704  0.4338 -0.3968
 5889TIP3    H239083   4.232   3.123  14.603  2.5432 -0.6644  0.3210
 5890TIP3   OH239084   6.031   6.103   3.274  0.4039 -0.1524 -0.2366
 5890TIP3    H139085   6.118   6.068   3.254  1.5561  1.5860  1.3463
 5890TIP3    H239086   5.998   6.048   3.346  0.8678  0.0872  0.1668
 5891TIP3   OH239087   6.606   4.657   1.724 -0.3710 -0.3364  0.3655
 5891TIP3    H139088   6.550   4.716   1.774 -1.7937 -1.2327 -0.1422
 5891TIP3    H239089   6.580   4.670   1.633 -0.1966 -1.2380  0.1852
 5892TIP3   OH239090   4.571   3.904  16.512 -0.4228 -0.0432  0.4142
 5892TIP3    H139091   4.516   3.872  16.583  1.8346 -2.4731  1.2490
 5892TIP3    H239092   4.548   3.850  16.437  1.1380 -1.5876  0.9568
 5893TIP3   OH239093   6.130   0.124  16.937 -0.5733 -0.6156  0.0515
 5893TIP3    H139094   6.102   0.183  17.007  1.4720 -0.3721  0.7227
 5893TIP3    H239095   6.193   0.175  16.886  0.2520 -1.7890 -0.1376
 5894TIP3   OH239096   0.194   0.046   4.798 -0.4528 -0.5662 -0.2453
 5894TIP3    H139097   0.228   0.086   4.718 -3.7688 -0.0255 -1.5321
 5894TIP3    H239098   0.183  -0.047   4.776 -0.1840 -0.6626  0.0220
 5895TIP3   OH239099   6.049   4.103  14.759  0.2450 -0.5311  0.6263
 5895TIP3    H139100   6.134   4.130  14.794  0.0198 -2.1740  2.6490
 5895TIP3    H239101   6.068   4.023  14.709 -0.0004 -0.4197  0.3537
 5896TIP3   OH239102   4.033   1.407  12.043  0.1842  0.9308  0.4074
 5896TIP3    H139103   3.964   1.431  12.105 -0.8184  0.4267 -0.4773
 5896TIP3    H239104   4.096   1.479  12.048 -1.0865  2.1032  0.2490
 5897TIP3   OH239105   6.347   5.178  15.634  0.3736 -0.8508 -0.0715
 5897TIP3    H139106   6.436   5.142  15.646  0.4609 -0.1087  1.6726
 5897TIP3    H239107   6.361   5.269  15.610  0.1032 -0.4051  1.3651
 5898TIP3   OH239108   1.930   1.686   2.918 -0.0652  0.2678 -0.0535
 5898TIP3    H139109   1.903   1.602   2.956 -0.7337  1.4078  2.1451
 5898TIP3    H239110   1.858   1.712   2.861 -0.1962 -0.2886 -0.1445
 5899TIP3   OH239111   2.338   0.725  16.866 -0.3121  0.4114  0.0448
 5899TIP3    H139112   2.359   0.695  16.955  0.2087  0.6763  0.0194
 5899TIP3    H239113   2.254   0.770  16.875 -1.6260 -1.8850 -0.0966
 5900TIP3   OH239114   0.749   1.472   5.019  0.4028  0.2569  0.0998
 5900TIP3    H139115   0.793   1.441   5.098  0.2425 -0.0544  0.0697
 5900TIP3    H239116   0.710   1.556   5.044 -0.4000 -0.2590  0.6184
 5901TIP3   OH239117   1.571   5.606  14.561 -0.1474  0.3402 -0.1664
 5901TIP3    H139118   1.522   5.562  14.491  1.7654  1.4408 -2.3686
 5901TIP3    H239119   1.643   5.546  14.580  1.0771  1.3262 -1.4335
 5902TIP3   OH239120   5.515   6.031   0.553  0.0294 -0.6207  0.4411
 5902TIP3    H139121   5.561   5.947   0.543 -0.1287 -0.5299 -1.5192
 5902TIP3    H239122   5.478   6.028   0.641  0.8421 -2.1917  0.7681
 5903TIP3   OH239123   1.054   0.897   2.492  0.0842 -0.2932  0.0628
 5903TIP3    H139124   0.966   0.935   2.495  1.2171  2.5282  0.5518
 5903TIP3    H239125   1.069   0.877   2.400 -0.7251  0.0481 -0.1485
 5904TIP3   OH239126   2.607   4.628  13.737 -0.6084 -0.5631 -0.1097
 5904TIP3    H139127   2.586   4.547  13.690 -1.0650 -0.9937  0.8064
 5904TIP3    H239128   2.557   4.622  13.819 -0.7936  0.7356 -0.1119
 5905TIP3   OH239129   2.742   5.863  12.477 -0.4265 -0.0044  0.1968
 5905TIP3    H139130   2.684   5.822  12.413 -1.6266  0.6095  0.8756
 5905TIP3    H239131   2.694   5.860  12.559  0.1885  1.1652  0.6207
 5906TIP3   OH239132   4.427   0.087   6.251  0.6554 -0.3821 -0.0149
 5906TIP3    H139133   4.439   0.174   6.289  0.6680 -0.2662 -0.2770
 5906TIP3    H239134   4.334   0.083   6.228  0.6684 -0.4132 -0.0636
 5907TIP3   OH239135   3.939   3.965  12.269  0.2596  0.6136 -0.3127
 5907TIP3    H139136   3.946   3.917  12.351 -1.3996 -0.6640 -0.8611
 5907TIP3    H239137   3.858   4.015  12.277 -0.3369 -0.1271 -1.4344
 5908TIP3   OH239138   1.516   4.074   1.694  0.3295  0.2840  0.4337
 5908TIP3    H139139   1.522   4.152   1.750  0.2973 -0.0528  0.9157
 5908TIP3    H239140   1.582   4.014   1.729 -1.1142 -0.7766  1.4868
 5909TIP3   OH239141   4.432   3.730   5.125 -0.1659 -0.6417 -0.2411
 5909TIP3    H139142   4.353   3.773   5.091 -1.0484 -0.6517  1.7136
 5909TIP3    H239143   4.416   3.637   5.113  0.3614 -0.5998 -1.4879
 5910TIP3   OH239144   2.756   1.370   6.489  0.2226 -0.0774 -0.1779
 5910TIP3    H139145   2.710   1.305   6.437 -0.4321  0.0330  0.2471
 5910TIP3    H239146   2.740   1.344   6.580  2.3892 -0.9917  0.0016
 5911TIP3   OH239147   3.050   3.206  12.158  0.0910  0.1418  0.4192
 5911TIP3    H139148   3.031   3.205  12.064  0.4174  1.5161  0.3143
 5911TIP3    H239149   2.970   3.173  12.199 -0.9574  1.7326 -0.2395
 5912TIP3   OH239150   5.630   5.347  12.315  1.0094 -0.2882  0.0750
 5912TIP3    H139151   5.726   5.345  12.307  0.9547 -0.2216 -0.6453
 5912TIP3    H239152   5.599   5.361  12.226  0.3108 -0.7626  0.2398
 5913TIP3   OH239153   6.171   4.787   3.058  0.2727  0.4652 -0.2586
 5913TIP3    H139154   6.236   4.782   3.128  0.5744 -1.0186 -0.5991
 5913TIP3    H239155   6.202   4.857   3.001  1.1669  0.2839 -0.0088
 5914TIP3   OH239156   0.462   5.903   0.473 -0.5897  0.3090 -0.0469
 5914TIP3    H139157   0.536   5.856   0.512 -1.4541 -0.8206  0.2980
 5914TIP3    H239158   0.477   5.896   0.378 -0.6596 -0.6083  0.0017
 5915TIP3   OH239159   6.787   1.480  16.247  0.3341 -0.5108 -0.0840
 5915TIP3    H139160   6.828   1.519  16.170  0.9179 -0.2068  0.3801
 5915TIP3    H239161   6.759   1.555  16.300  0.8997 -0.7104  0.5098
 5916TIP3   OH239162   1.377   2.363   5.329  0.5522  0.1249  0.3378
 5916TIP3    H139163   1.291   2.392   5.359  0.9210  2.6362 -0.8014
 5916TIP3    H239164   1.367   2.350   5.235  1.6465  1.6593 -0.0373
 5917TIP3   OH239165   5.982   2.288   1.416  0.0895  0.2873 -0.4645
 5917TIP3    H139166   5.966   2.294   1.322 -1.2445 -0.3066 -0.2989
 5917TIP3    H239167   5.913   2.341   1.455  1.7303  2.0605  0.1418
 5918TIP3   OH239168   3.977   0.509  15.907  0.3549 -0.4324 -0.1659
 5918TIP3    H139169   3.964   0.526  15.814  0.2875 -0.9463 -0.2530
 5918TIP3    H239170   3.961   0.415  15.917 -0.1948 -0.2826  0.4602
 5919TIP3   OH239171   2.101   0.033   4.281  0.4575 -0.1958 -0.3163
 5919TIP3    H139172   2.196   0.020   4.287  0.3476 -1.7615 -1.3984
 5919TIP3    H239173   2.068  -0.050   4.247 -1.7383 -1.0908  3.4795
 5920TIP3   OH239174   5.252   0.493   6.235  0.0114 -0.0347 -0.2972
 5920TIP3    H139175   5.208   0.517   6.317 -1.0614  4.2305 -1.8410
 5920TIP3    H239176   5.317   0.561   6.222  0.3204 -0.7090 -2.8707
 5921TIP3   OH239177   1.449   4.188  14.489  0.3609 -0.0079 -0.3152
 5921TIP3    H139178   1.379   4.247  14.517 -0.4860 -0.0108 -2.2794
 5921TIP3    H239179   1.416   4.148  14.409  1.7858 -1.5894 -0.1542
 5922TIP3   OH239180   4.131   5.583  16.861  0.0774  0.1389 -0.5985
 5922TIP3    H139181   4.194   5.579  16.790  0.4371 -0.2092 -0.2648
 5922TIP3    H239182   4.052   5.543  16.825  0.4834 -0.7043 -0.5761
 5923TIP3   OH239183   1.035   3.090   2.693  0.4532 -0.4208  0.5608
 5923TIP3    H139184   1.130   3.083   2.691  0.4008 -1.1333  0.4965
 5923TIP3    H239185   1.016   3.136   2.775  0.8961  0.6260  0.0959
 5924TIP3   OH239186   5.729   3.023   0.177 -0.3836 -0.1800  0.0187
 5924TIP3    H139187   5.670   3.002   0.249 -1.7576 -1.4855 -1.4079
 5924TIP3    H239188   5.814   2.986   0.203 -1.2028 -1.8958  0.3725
 5925TIP3   OH239189   4.015   3.167  14.422  0.8647 -0.0852  0.1593
 5925TIP3    H139190   3.959   3.159  14.499  0.2490  0.6867 -0.1922
 5925TIP3    H239191   4.010   3.082  14.379  1.7187 -0.7290  1.2972
 5926TIP3   OH239192   2.808   1.523   3.760 -0.0463  0.6682  0.5000
 5926TIP3    H139193   2.833   1.613   3.738  0.2738  0.2716 -0.8165
 5926TIP3    H239194   2.883   1.469   3.734  0.3530  0.1316  2.5783
 5927TIP3   OH239195   6.561   0.719   6.810  0.4572  0.1473 -0.1447
 5927TIP3    H139196   6.536   0.773   6.884 -2.0574 -1.7070  0.4871
 5927TIP3    H239197   6.655   0.704   6.822  0.5764  1.7611  1.3503
 5928TIP3   OH239198   4.351   2.754  16.651 -0.3447  0.0468 -0.6477
 5928TIP3    H139199   4.372   2.797  16.734  0.4882 -0.9088 -0.3457
 5928TIP3    H239200   4.417   2.685  16.642 -0.2720  0.2860 -2.2205
 5929TIP3   OH239201   0.576   1.148   3.548 -0.5731 -0.2217 -1.0207
 5929TIP3    H139202   0.661   1.145   3.591 -0.7483  2.0862 -0.4037
 5929TIP3    H239203   0.597   1.155   3.454 -0.1436 -1.3180 -1.0240
 5930TIP3   OH239204   0.988   2.747   3.433 -0.1544 -0.2960 -0.7859
 5930TIP3    H139205   0.950   2.830   3.406 -0.2329 -0.3205 -0.7503
 5930TIP3    H239206   0.954   2.732   3.521 -1.3426 -1.0907 -1.3535
 5931TIP3   OH239207   5.654   1.451   1.607  0.5036  0.5235 -0.4729
 5931TIP3    H139208   5.732   1.399   1.625 -1.5097 -3.2234 -1.2955
 5931TIP3    H239209   5.596   1.434   1.682 -0.2431  1.6505 -0.7678
 5932TIP3   OH239210   2.110   2.965   4.841  0.1144  0.6179  0.4138
 5932TIP3    H139211   2.095   3.059   4.850  0.1587  0.5748  0.9647
 5932TIP3    H239212   2.043   2.936   4.778 -0.1563  0.9467  0.5452
 5933TIP3   OH239213   0.261   3.042   5.299  0.0923  0.2831 -0.0605
 5933TIP3    H139214   0.288   3.124   5.341  1.2001  0.0193 -0.2346
 5933TIP3    H239215   0.173   3.061   5.265  1.2142  2.2063 -2.1581
 5934TIP3   OH239216   5.681   3.258   3.315 -0.4108 -0.2234 -0.3814
 5934TIP3    H139217   5.633   3.317   3.257  0.6875 -0.3929 -1.5191
 5934TIP3    H239218   5.762   3.304   3.335 -1.2652  0.3825  2.1224
 5935TIP3   OH239219   3.683   2.719  15.430 -0.2986 -0.3793  0.1814
 5935TIP3    H139220   3.679   2.625  15.410 -0.1353 -0.5687  1.0161
 5935TIP3    H239221   3.609   2.734  15.488 -0.2083 -0.0282  0.2036
 5936TIP3   OH239222   0.245   3.092  12.247 -0.7550  0.0043 -0.0370
 5936TIP3    H139223   0.220   3.112  12.337 -2.3275 -2.6359  0.2112
 5936TIP3    H239224   0.315   3.028  12.255 -0.7723 -0.1048 -0.7019
 5937TIP3   OH239225   5.514   2.071   6.302  0.2809  0.4800 -0.3152
 5937TIP3    H139226   5.426   2.105   6.318 -0.1292  0.0280 -1.5219
 5937TIP3    H239227   5.503   1.976   6.298  1.1183  0.2736  1.1762
 5938TIP3   OH239228   0.113   1.845   6.675  0.2515  0.1615 -0.0176
 5938TIP3    H139229   0.048   1.782   6.707 -0.9024  0.2931 -1.9270
 5938TIP3    H239230   0.073   1.931   6.690  0.9619  0.3649  0.7862
 5939TIP3   OH239231   1.614   3.074  11.415 -0.4118 -0.2446 -0.5140
 5939TIP3    H139232   1.523   3.084  11.444 -0.4816  0.0422 -0.8146
 5939TIP3    H239233   1.645   3.164  11.405  0.1991 -0.3315  0.4616
 5940TIP3   OH239234   6.329   5.354   5.752 -0.5491 -0.3301  0.2033
 5940TIP3    H139235   6.311   5.421   5.818 -1.2540 -0.9939  0.6984
 5940TIP3    H239236   6.271   5.282   5.775 -1.2359 -0.3492 -1.4912
 5941TIP3   OH239237   2.039   4.452   3.662 -0.3234  0.4468 -0.5771
 5941TIP3    H139238   2.097   4.381   3.689  1.5152  1.7957 -0.7888
 5941TIP3    H239239   1.961   4.441   3.717  1.4580  0.4546  2.1748
 5942TIP3   OH239240   5.914   3.682  14.761 -0.3293  0.0996 -0.0656
 5942TIP3    H139241   5.942   3.721  14.843  2.5965 -1.6907 -0.0663
 5942TIP3    H239242   5.888   3.756  14.707 -4.2361  1.2243  2.9545
 5943TIP3   OH239243   4.372   5.896   2.373 -0.4369  0.4341  0.2278
 5943TIP3    H139244   4.333   5.815   2.340  0.0128  0.7456 -1.1016
 5943TIP3    H239245   4.407   5.940   2.296  2.2442  0.3661  1.3043
 5944TIP3   OH239246   0.158   5.442  12.966 -0.3477  0.3429  0.4060
 5944TIP3    H139247   0.150   5.370  13.029 -0.3446  0.2489  0.3000
 5944TIP3    H239248   0.249   5.469  12.972  0.2502 -1.1550 -1.1608
 5945TIP3   OH239249   0.808   3.259   2.053  0.0608  0.1254  0.3115
 5945TIP3    H139250   0.819   3.229   2.143 -0.7003  1.6326  0.9233
 5945TIP3    H239251   0.720   3.232   2.029  0.9141 -2.0106 -0.7144
 5946TIP3   OH239252   1.511   6.002   0.151 -0.0104  0.7277  0.0290
 5946TIP3    H139253   1.563   6.064   0.101 -0.6352 -0.5702 -2.3656
 5946TIP3    H239254   1.564   5.923   0.156 -0.2887  0.5727  0.7622
 5947TIP3   OH239255   1.045   5.363  11.399  0.2020  0.4118  0.0459
 5947TIP3    H139256   0.973   5.403  11.351  0.1041 -2.1218 -2.1220
 5947TIP3    H239257   1.111   5.432  11.406 -1.5371  2.1373  0.1714
 5948TIP3   OH239258   2.524   5.321   3.155 -0.2307 -0.2763 -0.4543
 5948TIP3    H139259   2.547   5.229   3.164 -0.2547 -0.1527  0.9776
 5948TIP3    H239260   2.474   5.325   3.073  0.5112 -1.3811 -0.9776
 5949TIP3   OH239261   5.271   0.379  15.491  0.0507  0.0291  0.2127
 5949TIP3    H139262   5.190   0.342  15.457  0.0179  1.0384 -0.8498
 5949TIP3    H239263   5.334   0.367  15.419  0.5070  0.4019  0.5477
 5950TIP3   OH239264   5.815   4.519  13.470  0.5470 -0.2329  0.6006
 5950TIP3    H139265   5.874   4.567  13.528  0.3568  0.2804  0.3829
 5950TIP3    H239266   5.859   4.520  13.385  0.1448  0.3214  0.3927
 5951TIP3   OH239267   2.191   1.618  13.425 -0.2770 -0.5792  0.1505
 5951TIP3    H139268   2.104   1.592  13.398 -1.1683  0.5306  1.7659
 5951TIP3    H239269   2.180   1.708  13.458  1.1845 -0.8992  1.6569
 5952TIP3   OH239270   2.758   6.301  11.218 -0.2169 -0.0099 -0.5765
 5952TIP3    H139271   2.769   6.206  11.225 -2.3636 -0.1823  2.5538
 5952TIP3    H239272   2.664   6.315  11.226  0.0061  2.3920 -1.3767
 5953TIP3   OH239273   6.387   2.221   6.467  0.3403  0.7165  0.0298
 5953TIP3    H139274   6.401   2.237   6.560  0.7229  2.6731 -0.3260
 5953TIP3    H239275   6.467   2.252   6.425 -0.0491  0.3619 -1.0028
 5954TIP3   OH239276   4.654   3.024  12.073  0.3918 -0.0617  0.3181
 5954TIP3    H139277   4.600   3.067  12.007  0.8336 -1.0344 -0.7070
 5954TIP3    H239278   4.737   3.072  12.071 -0.1344  0.9478  1.3560
 5955TIP3   OH239279   0.153   5.188  11.213 -0.4525 -0.2271  0.8347
 5955TIP3    H139280   0.189   5.119  11.158 -0.2705 -0.2692  1.0018
 5955TIP3    H239281   0.093   5.236  11.157 -0.2736 -0.2736  0.6028
 5956TIP3   OH239282   6.703   6.557   2.809  0.5826 -0.0756  0.1956
 5956TIP3    H139283   6.786   6.559   2.858  1.2780  0.4870 -0.9463
 5956TIP3    H239284   6.728   6.581   2.720 -0.7781 -0.2268 -0.2455
 5957TIP3   OH239285   6.620   6.049   1.495 -0.2868  0.0430  0.3365
 5957TIP3    H139286   6.676   6.107   1.546 -0.4726  1.0088 -0.5324
 5957TIP3    H239287   6.557   6.107   1.453  0.3032 -0.6143 -1.5616
 5958TIP3   OH239288   4.184   0.469  16.650 -0.1304  0.6893  0.4734
 5958TIP3    H139289   4.250   0.509  16.594  0.4926  0.3503  0.9534
 5958TIP3    H239290   4.101   0.487  16.606  0.3176  0.7054 -0.3874
 5959TIP3   OH239291   6.767   5.993  12.716 -0.0847 -0.2923 -0.1791
 5959TIP3    H139292   6.749   6.063  12.778 -0.7760  1.3714 -2.1215
 5959TIP3    H239293   6.861   5.981  12.719  0.0424  0.7123  0.2403
 5960TIP3   OH239294   1.241   0.834  16.823 -0.6465 -0.0537 -0.4030
 5960TIP3    H139295   1.198   0.780  16.889  2.9558 -1.1640  1.2751
 5960TIP3    H239296   1.219   0.924  16.847  0.0134 -0.4646  1.9380
 5961TIP3   OH239297   5.188   5.130   1.358  0.0038 -0.0900 -0.4050
 5961TIP3    H139298   5.202   5.042   1.322 -1.2240 -0.5401  0.1504
 5961TIP3    H239299   5.260   5.142   1.421  0.8300 -0.2211 -1.2976
 5962TIP3   OH239300   4.520   0.203  14.853 -0.2870  0.7916 -0.0412
 5962TIP3    H139301   4.468   0.144  14.798  1.0425 -1.3758  0.8737
 5962TIP3    H239302   4.611   0.182  14.832  0.2424  2.1836  0.7182
 5963TIP3   OH239303   5.537   3.459  11.914 -0.3667  0.6594  0.7415
 5963TIP3    H139304   5.490   3.517  11.975  0.9615  2.1488  0.4349
 5963TIP3    H239305   5.590   3.519  11.861  1.0680 -0.8540  0.3868
 5964TIP3   OH239306   5.263   5.561   4.255  0.0942  0.1383  0.5149
 5964TIP3    H139307   5.209   5.524   4.186  0.8160  0.3858 -0.1951
 5964TIP3    H239308   5.206   5.562   4.332 -1.2087  1.2373 -0.4228
 5965TIP3   OH239309   3.497   3.476  13.312 -0.1727 -0.3962  0.1988
 5965TIP3    H139310   3.403   3.470  13.293  0.0806 -0.0445 -1.3397
 5965TIP3    H239311   3.508   3.432  13.396 -1.8426  0.3807  0.8419
 5966TIP3   OH239312   2.539   2.306  16.526  0.2261  0.6509  0.6342
 5966TIP3    H139313   2.586   2.379  16.485  1.7997 -0.5507  0.2124
 5966TIP3    H239314   2.540   2.237  16.460 -1.2796  0.2349  1.0079
 5967TIP3   OH239315   6.059   5.809   4.524 -0.0799  0.1166 -0.2543
 5967TIP3    H139316   6.118   5.812   4.599 -0.7309 -0.8352  0.3109
 5967TIP3    H239317   6.105   5.758   4.458 -0.1420 -0.3467  0.0631
 5968TIP3   OH239318   5.280   0.590  16.473 -0.1346  0.1708 -0.0769
 5968TIP3    H139319   5.369   0.624  16.482 -0.0615 -0.1651  0.4900
 5968TIP3    H239320   5.283   0.503  16.512 -0.7543  0.2330  0.1208
 5969TIP3   OH239321   5.089   3.010  16.489  0.2246  0.4205  0.1633
 5969TIP3    H139322   5.003   3.052  16.490 -0.3317 -0.6439 -0.7301
 5969TIP3    H239323   5.104   2.990  16.396  1.5357  0.7621  0.2797
 5970TIP3   OH239324   0.892   6.167  11.499 -0.3815 -0.0063 -0.1849
 5970TIP3    H139325   0.809   6.198  11.464 -1.0652  1.8681  2.6624
 5970TIP3    H239326   0.878   6.164  11.594  2.8704  0.7212  0.4502
 5971TIP3   OH239327   3.790   3.239   1.300 -0.3985  0.1624 -0.1041
 5971TIP3    H139328   3.707   3.286   1.304 -0.9990 -0.9590  1.2075
 5971TIP3    H239329   3.788   3.178   1.374  0.4318 -1.7813 -1.5673
 5972TIP3   OH239330   3.943   4.033  14.060 -0.1057 -0.4707 -0.0313
 5972TIP3    H139331   3.952   4.040  14.155 -0.9355 -0.6707  0.0699
 5972TIP3    H239332   3.952   3.940  14.041 -0.8973 -0.5607 -0.0263
 5973TIP3   OH239333   5.053   5.340   3.943 -0.1318 -0.0235  0.1643
 5973TIP3    H139334   5.031   5.428   3.972 -0.4076 -0.3341  0.9086
 5973TIP3    H239335   5.148   5.337   3.943 -0.0975 -0.3632  2.1647
 5974TIP3   OH239336   3.416   6.546   4.638  0.0081  0.1566 -0.5117
 5974TIP3    H139337   3.434   6.620   4.697 -0.9310 -0.2379  0.2958
 5974TIP3    H239338   3.327   6.562   4.606  0.0177 -0.3198 -0.7799
 5975TIP3   OH239339   0.502   2.342  16.772 -0.2942  0.0439 -0.1846
 5975TIP3    H139340   0.487   2.356  16.678  0.6760 -0.2248 -0.3927
 5975TIP3    H239341   0.547   2.258  16.776 -0.5899 -0.0860  0.5548
 5976TIP3   OH239342   4.580   3.997   1.117 -0.2134  0.3501  0.3963
 5976TIP3    H139343   4.569   4.012   1.023 -0.0872  1.1346  0.4987
 5976TIP3    H239344   4.585   4.085   1.155 -0.9275  0.0488  1.2161
 5977TIP3   OH239345   3.151   5.795   6.163  0.2899  0.2028 -0.0641
 5977TIP3    H139346   3.065   5.801   6.205 -0.6523  0.0285 -1.8633
 5977TIP3    H239347   3.169   5.883   6.131 -0.2921 -0.1985 -1.6147
 5978TIP3   OH239348   5.215   2.756   4.831 -0.1916  0.1500 -0.0661
 5978TIP3    H139349   5.252   2.841   4.855  0.7270 -0.5872  1.2868
 5978TIP3    H239350   5.236   2.745   4.739 -0.0479  1.2520 -0.1742
 5979TIP3   OH239351   1.969   0.108  10.440  0.0934 -0.0856  0.2944
 5979TIP3    H139352   1.916   0.029  10.446 -0.5323  0.1361 -1.7032
 5979TIP3    H239353   1.912   0.177  10.476 -0.0709 -0.2315  0.3153
 5980TIP3   OH239354   3.920   6.014  12.272 -0.0482 -0.2757 -0.3894
 5980TIP3    H139355   3.914   6.090  12.330 -1.8436  0.8628 -1.9491
 5980TIP3    H239356   3.934   5.940  12.332 -1.5634  0.8517  1.4968
 5981TIP3   OH239357   2.259   4.524  14.521 -0.3931 -0.1494  0.0392
 5981TIP3    H139358   2.322   4.511  14.450  0.1683  2.5120 -0.0586
 5981TIP3    H239359   2.303   4.489  14.599  0.7329  0.5904 -0.2444
 5982TIP3   OH239360   1.301   3.966   3.790  0.0610  0.0768 -0.8226
 5982TIP3    H139361   1.380   3.945   3.741  0.1079  2.0481 -1.7107
 5982TIP3    H239362   1.231   3.967   3.724 -0.2618  0.7105 -0.4809
 5983TIP3   OH239363   2.615   3.113  14.333 -0.1016 -0.1652 -0.3857
 5983TIP3    H139364   2.683   3.176  14.357 -0.0775 -0.0637 -0.7093
 5983TIP3    H239365   2.658   3.054  14.271  0.0253 -0.8212  0.3099
 5984TIP3   OH239366   5.924   0.206   1.120  0.7348  0.1123 -0.0851
 5984TIP3    H139367   5.837   0.237   1.144  0.8403 -0.3272  0.8835
 5984TIP3    H239368   5.983   0.276   1.147  0.8094 -0.1828  0.5236
 5985TIP3   OH239369   4.145   2.977  11.786 -0.0793 -0.0642 -0.1818
 5985TIP3    H139370   4.093   3.051  11.818 -1.3504 -0.5007 -1.1593
 5985TIP3    H239371   4.157   2.995  11.693 -2.8098 -2.3580 -1.1329
 5986TIP3   OH239372   0.694   1.680   3.140 -0.0250  0.0936 -0.2391
 5986TIP3    H139373   0.677   1.729   3.221 -0.5596  0.4790 -0.5790
 5986TIP3    H239374   0.622   1.704   3.082 -0.1748 -0.9266 -0.4999
 5987TIP3   OH239375   6.666   2.374   2.798  0.0544  0.1714 -0.2446
 5987TIP3    H139376   6.632   2.351   2.712  0.1913  0.5573 -0.4048
 5987TIP3    H239377   6.756   2.402   2.782  0.3990 -0.6811  0.1558
 5988TIP3   OH239378   2.351   4.266  11.858 -0.2966 -0.3076 -0.2037
 5988TIP3    H139379   2.386   4.347  11.895 -0.2438  0.0408 -0.9965
 5988TIP3    H239380   2.271   4.293  11.812  0.1836 -0.5522 -1.2084
 5989TIP3   OH239381   2.714   5.531  16.942  0.4003 -0.5484 -0.3361
 5989TIP3    H139382   2.709   5.448  16.990  1.4809 -0.7158 -0.4810
 5989TIP3    H239383   2.802   5.532  16.905  0.0284  0.1711 -1.2538
 5990TIP3   OH239384   0.177   2.116   0.382 -0.4414  0.2172  0.7709
 5990TIP3    H139385   0.154   2.030   0.418 -0.4388  0.2356  0.8174
 5990TIP3    H239386   0.117   2.177   0.426  0.0971  0.3469  1.3526
 5991TIP3   OH239387   1.749   6.443   5.662 -0.3401  0.6437 -0.5658
 5991TIP3    H139388   1.800   6.450   5.581  1.0643  0.9361  0.3062
 5991TIP3    H239389   1.779   6.516   5.716 -1.6399  0.7671  0.0174
 5992TIP3   OH239390   3.324   5.142  16.011  0.1526  0.3164 -0.2593
 5992TIP3    H139391   3.238   5.155  16.051 -0.0149 -2.1375  0.3411
 5992TIP3    H239392   3.385   5.155  16.083  0.3783  2.5341 -0.7900
 5993TIP3   OH239393   4.610   1.654   4.042 -0.2875 -0.1417  0.2581
 5993TIP3    H139394   4.570   1.734   4.076 -0.7978 -0.3208  0.0871
 5993TIP3    H239395   4.659   1.683   3.965  1.7372  0.4410  1.6925
 5994TIP3   OH239396   1.066   4.826   5.833 -0.5646  0.1375 -0.0022
 5994TIP3    H139397   1.009   4.891   5.874 -0.1513  0.3277  0.2777
 5994TIP3    H239398   1.006   4.768   5.787 -0.8568  1.6842 -1.7012
 5995TIP3   OH239399   2.478   4.582   2.914  0.1947 -0.4884  0.2740
 5995TIP3    H139400   2.459   4.529   2.836 -0.5294 -0.8238  0.6713
 5995TIP3    H239401   2.566   4.617   2.898  0.7873 -1.9698  0.0920
 5996TIP3   OH239402   0.550   1.674   6.300 -0.1486  0.6745  0.1360
 5996TIP3    H139403   0.511   1.587   6.306 -0.8463  1.0100  0.6228
 5996TIP3    H239404   0.542   1.698   6.208 -1.2930  0.8169  0.2650
 5997TIP3   OH239405   0.153   1.819   0.428  0.1143 -0.5694 -0.2900
 5997TIP3    H139406   0.191   1.827   0.340  0.3461  1.6508 -0.0551
 5997TIP3    H239407   0.058   1.817   0.412  0.0618  1.7047 -0.5640
 5998TIP3   OH239408   6.024   2.501   3.394  0.3151  0.0095  0.1590
 5998TIP3    H139409   6.023   2.583   3.345  1.1806  0.1939  0.4328
 5998TIP3    H239410   6.114   2.494   3.427  0.1376 -0.8406  0.4858
 5999TIP3   OH239411   3.906   5.346   1.049  0.3371 -0.6881  0.2670
 5999TIP3    H139412   3.959   5.277   1.008 -0.4366 -0.5871 -0.9554
 5999TIP3    H239413   3.960   5.425   1.042  0.3660 -0.7499 -0.2288
 6000TIP3   OH239414   4.523   3.681  12.406  0.0299 -0.0984 -0.0347
 6000TIP3    H139415   4.583   3.606  12.413  3.1751  2.1748 -0.4561
 6000TIP3    H239416   4.514   3.713  12.496 -0.0358 -0.0572 -0.0558
 6001TIP3   OH239417   0.943   6.748  12.886  0.3389  0.6767 -0.1646
 6001TIP3    H139418   1.030   6.708  12.889  1.0846  2.0659 -1.6553
 6001TIP3    H239419   0.958   6.840  12.907 -1.0120  0.6419  1.0436
 6002TIP3   OH239420   5.466   6.350  16.833 -0.2839  0.5698  0.3971
 6002TIP3    H139421   5.502   6.438  16.821  0.6872  0.1896  0.4927
 6002TIP3    H239422   5.485   6.306  16.750 -0.5172  0.3521  0.4593
 6003TIP3   OH239423   5.241   5.983  13.109 -0.5384  0.3512 -0.2179
 6003TIP3    H139424   5.246   6.078  13.100 -0.8776  0.3489 -0.4791
 6003TIP3    H239425   5.147   5.964  13.111 -0.4775 -0.0271 -0.7576
 6004TIP3   OH239426   1.331   3.128  13.919 -0.0836 -0.2235 -0.4022
 6004TIP3    H139427   1.379   3.210  13.908  0.3808 -0.2787  1.0019
 6004TIP3    H239428   1.240   3.154  13.930  0.1962  0.1930  1.0309
 6005TIP3   OH239429   2.891   5.914   4.909 -0.8276  0.8700 -0.1141
 6005TIP3    H139430   2.901   5.872   4.823 -1.9080 -0.9924  0.6129
 6005TIP3    H239431   2.980   5.925   4.941 -0.4593  0.6212 -1.0286
 6006TIP3   OH239432   5.734   3.745   0.616  0.5253  0.3416 -0.5344
 6006TIP3    H139433   5.791   3.670   0.632 -0.1300 -0.4798 -1.8350
 6006TIP3    H239434   5.691   3.760   0.700  1.2105 -0.2618 -0.0521
 6007TIP3   OH239435   2.091   3.498   2.713 -0.6118 -0.2185  0.0219
 6007TIP3    H139436   2.007   3.508   2.668 -1.2568 -2.0631  0.6939
 6007TIP3    H239437   2.093   3.571   2.775 -0.7126  1.0731 -1.4439
 6008TIP3   OH239438   3.106   0.195   4.172  0.6437 -0.0935 -0.1591
 6008TIP3    H139439   3.068   0.216   4.087 -2.3602  4.0967  1.8999
 6008TIP3    H239440   3.167   0.267   4.190  0.5973 -0.4476  1.5713
 6009TIP3   OH239441   1.348   3.496  13.564  0.2122  0.3111  0.8234
 6009TIP3    H139442   1.255   3.479  13.580  0.2857 -2.6149 -1.0921
 6009TIP3    H239443   1.356   3.497  13.468  2.4232 -1.7526  0.9012
 6010TIP3   OH239444   5.413   3.723  11.794  0.4060  0.3340  0.8459
 6010TIP3    H139445   5.507   3.742  11.789  0.8059 -1.6750  0.0177
 6010TIP3    H239446   5.397   3.658  11.726 -1.4029 -0.1472  1.6548
 6011TIP3   OH239447   1.121   4.151   6.224 -0.2879  0.2872  0.1803
 6011TIP3    H139448   1.207   4.153   6.182 -0.0860  0.0314  0.5712
 6011TIP3    H239449   1.069   4.215   6.176 -0.6367 -1.3123 -1.6715
 6012TIP3   OH239450   2.080   4.150  16.795  0.7566  0.7141  0.1079
 6012TIP3    H139451   2.104   4.135  16.887  2.0993  0.5361 -0.2557
 6012TIP3    H239452   2.000   4.099  16.783  1.4387 -0.5523  0.7610
 6013TIP3   OH239453   0.085   5.235  13.131  0.0186  0.1408  0.2358
 6013TIP3    H139454   0.025   5.174  13.175 -0.2659  0.3037  0.0755
 6013TIP3    H239455   0.105   5.301  13.197 -0.4398  0.4069  0.1126
 6014TIP3   OH239456   4.532   6.276  12.466  0.4058  0.2506  0.0840
 6014TIP3    H139457   4.612   6.249  12.423  0.4836  2.2546 -1.1596
 6014TIP3    H239458   4.463   6.258  12.403 -0.1104 -1.0948  0.9910
 6015TIP3   OH239459   3.197   2.660   1.348 -0.1497  0.2839 -0.0535
 6015TIP3    H139460   3.185   2.582   1.294 -1.7158 -0.8764  1.8461
 6015TIP3    H239461   3.289   2.683   1.336 -0.2483 -0.3133 -2.5998
 6016TIP3   OH239462   2.011   0.284  11.392  0.6557  0.4276 -0.6296
 6016TIP3    H139463   1.946   0.350  11.415  0.7519  0.3819 -0.2062
 6016TIP3    H239464   2.056   0.320  11.316  0.2227  0.5157 -0.8467
 6017TIP3   OH239465   2.449   3.942  12.417  0.7578 -0.3958 -0.3139
 6017TIP3    H139466   2.462   3.848  12.431  0.1333 -0.3283  0.8486
 6017TIP3    H239467   2.466   3.955  12.324  1.9143 -1.4770 -0.2816
 6018TIP3   OH239468   1.400   1.368  14.986 -0.2637  0.1777  0.6236
 6018TIP3    H139469   1.422   1.452  14.946  1.3929 -0.6849 -0.4279
 6018TIP3    H239470   1.438   1.372  15.073  1.8125 -0.2356 -0.1937
 6019TIP3   OH239471   4.057   3.984  13.256  0.3379 -0.1583  0.0251
 6019TIP3    H139472   4.015   3.964  13.340  0.8605  2.4916  1.0170
 6019TIP3    H239473   3.985   4.010  13.199 -0.0925 -2.5256 -0.6331
 6020TIP3   OH239474   4.233   4.019   5.887  0.2614  0.6091 -0.1368
 6020TIP3    H139475   4.169   4.001   5.818 -0.1549  4.1956 -0.8490
 6020TIP3    H239476   4.307   4.058   5.841  1.3092  0.2150  1.1520
 6021TIP3   OH239477   0.674   5.005   0.585 -0.0225  0.3236 -0.0068
 6021TIP3    H139478   0.658   5.041   0.497  0.6883  1.8084  0.4400
 6021TIP3    H239479   0.746   5.058   0.620 -0.1491 -0.3858  1.4053
 6022TIP3   OH239480   2.672   6.511   6.133  0.1059  0.0181 -0.0370
 6022TIP3    H139481   2.668   6.503   6.228  0.6084  0.2531  0.0073
 6022TIP3    H239482   2.741   6.575   6.117  0.6405 -0.6783 -0.5868
 6023TIP3   OH239483   1.087   5.774   5.046  0.6442 -0.2049  0.0216
 6023TIP3    H139484   1.062   5.784   4.954  2.0151  0.7954 -0.2746
 6023TIP3    H239485   1.162   5.714   5.044  1.1006  0.3420  0.4009
 6024TIP3   OH239486   0.987   1.225   3.260 -0.1133  0.0307 -0.2448
 6024TIP3    H139487   0.957   1.155   3.318 -0.4492  0.1808 -0.2319
 6024TIP3    H239488   0.910   1.280   3.248  0.2579  0.6359  0.0884
 6025TIP3   OH239489   0.345   5.492  14.698 -0.5354 -0.3803 -0.5311
 6025TIP3    H139490   0.284   5.432  14.655  0.4680 -1.4276 -0.5436
 6025TIP3    H239491   0.320   5.490  14.790 -0.8135 -0.4445 -0.6075
 6026TIP3   OH239492   3.379   1.987   6.183 -0.1323  0.3272  0.0700
 6026TIP3    H139493   3.355   1.954   6.097  1.1300  1.4038 -0.7437
 6026TIP3    H239494   3.471   1.960   6.194  0.3404  1.8829  0.1884
 6027TIP3   OH239495   5.848   6.252  15.494 -0.0568  0.2002 -0.1052
 6027TIP3    H139496   5.790   6.176  15.492  0.9727 -0.6284  0.8471
 6027TIP3    H239497   5.821   6.304  15.418 -1.3145 -0.6958 -0.3003
 6028TIP3   OH239498   3.449   2.273  10.818  1.0036  0.4506  0.3523
 6028TIP3    H139499   3.428   2.325  10.895  0.8844  1.7298 -0.5199
 6028TIP3    H239500   3.364   2.246  10.784  1.0662 -0.3837  0.8265
 6029TIP3   OH239501   1.457   5.026   2.920  0.0072 -0.0325 -0.8147
 6029TIP3    H139502   1.492   5.056   3.004  2.8407 -1.3024 -1.3885
 6029TIP3    H239503   1.388   4.964   2.944 -1.0873  1.6024  0.4655
 6030TIP3   OH239504   5.079   4.043   5.716 -0.3185 -0.6592 -0.3169
 6030TIP3    H139505   5.144   4.037   5.786  0.4954  0.7023 -0.9110
 6030TIP3    H239506   5.027   4.120   5.738 -1.6681 -1.6458  0.0659
 6031TIP3   OH239507   6.523   4.677   0.703 -0.1721 -0.5626  0.3964
 6031TIP3    H139508   6.473   4.745   0.747  0.4738  0.4086 -0.3358
 6031TIP3    H239509   6.565   4.629   0.774  0.8438  0.9729  0.8861
 6032TIP3   OH239510   4.062   2.592   2.359 -0.5217 -0.8286 -0.6400
 6032TIP3    H139511   4.157   2.581   2.357 -0.3530 -0.3324  1.6018
 6032TIP3    H239512   4.035   2.552   2.442 -2.0253  0.4884 -0.4312
 6033TIP3   OH239513   4.407   6.316   2.623 -0.3846 -0.0770 -0.1614
 6033TIP3    H139514   4.426   6.350   2.535 -0.6116 -0.1683 -0.2470
 6033TIP3    H239515   4.474   6.355   2.679  0.2498 -0.6470 -0.5062
 6034TIP3   OH239516   3.982   4.834   2.514  0.4473  0.0235 -0.0427
 6034TIP3    H139517   4.068   4.851   2.552  0.4680 -0.8931  0.3582
 6034TIP3    H239518   3.939   4.777   2.578 -0.5759  0.7194 -0.1008
 6035TIP3   OH239519   2.879   0.759  11.097 -0.3365  0.1208 -0.1474
 6035TIP3    H139520   2.812   0.781  11.033 -1.6701 -0.1560  1.0996
 6035TIP3    H239521   2.896   0.665  11.082 -1.1091 -0.0958  0.3151
 6036TIP3   OH239522   4.893   0.573   2.730  0.1705  0.4663 -0.3327
 6036TIP3    H139523   4.852   0.651   2.768  0.6218  0.1844  0.7750
 6036TIP3    H239524   4.942   0.534   2.802  0.4725 -0.4983 -1.0345
 6037TIP3   OH239525   3.661   2.578   1.836 -0.2284 -0.4509  0.7615
 6037TIP3    H139526   3.603   2.597   1.762 -0.8115  0.9640  1.5306
 6037TIP3    H239527   3.603   2.540   1.902 -0.0599 -0.0543  1.1385
 6038TIP3   OH239528   5.681   1.645  14.393  0.0057 -0.2332 -0.7439
 6038TIP3    H139529   5.648   1.654  14.482 -1.0194 -2.8075 -0.7884
 6038TIP3    H239530   5.763   1.596  14.403 -0.0504 -0.4279 -1.2247
 6039TIP3   OH239531   6.258   4.213   2.019 -0.0363 -0.1092 -0.0151
 6039TIP3    H139532   6.275   4.157   2.095  0.8507  0.0913 -0.0587
 6039TIP3    H239533   6.314   4.178   1.950 -0.7899 -0.2546 -0.5804
 6040TIP3   OH239534   2.720   2.625  14.523  0.0661  0.3919 -0.0682
 6040TIP3    H139535   2.704   2.623  14.429  0.8204  2.7781 -0.3102
 6040TIP3    H239536   2.689   2.711  14.551 -1.0598 -0.6312  2.0824
 6041TIP3   OH239537   4.653   3.051   2.527 -0.7331  0.0595 -0.0614
 6041TIP3    H139538   4.624   3.001   2.603  1.0487 -0.8419  0.0891
 6041TIP3    H239539   4.616   3.138   2.540 -1.4305 -0.3954  1.2338
 6042TIP3   OH239540   3.764   2.341  16.728  0.3312 -0.3726  0.2715
 6042TIP3    H139541   3.820   2.297  16.664  2.7171 -2.2572  3.3614
 6042TIP3    H239542   3.824   2.399  16.776 -1.4098  1.1526  0.7203
 6043TIP3   OH239543   5.726   5.282  17.197  0.5531  0.4685  0.2388
 6043TIP3    H139544   5.746   5.328  17.115  0.2029  1.5812  0.7548
 6043TIP3    H239545   5.807   5.235  17.218  0.0541 -1.3583 -1.6895
 6044TIP3   OH239546   2.424   4.145   4.904 -0.4363 -0.2099  0.5219
 6044TIP3    H139547   2.359   4.166   4.837 -0.1239 -2.6109 -0.6491
 6044TIP3    H239548   2.462   4.229   4.929  0.2455  0.7461 -3.1927
 6045TIP3   OH239549   5.430   4.912   0.216  0.2246  0.0136 -0.5937
 6045TIP3    H139550   5.473   4.977   0.272 -0.8525  0.4894 -0.2717
 6045TIP3    H239551   5.438   4.946   0.128 -2.2091  1.8034 -0.2445
 6046TIP3   OH239552   6.194   4.924   5.145 -0.2186  0.3611 -0.3411
 6046TIP3    H139553   6.190   4.834   5.177 -2.1258  0.2028 -0.8961
 6046TIP3    H239554   6.160   4.977   5.217 -1.3683  0.3591 -0.8667
 6047TIP3   OH239555   1.281   4.312   2.259 -0.4117 -0.3468  0.6619
 6047TIP3    H139556   1.331   4.247   2.308  0.1041 -1.1937 -0.9148
 6047TIP3    H239557   1.322   4.396   2.280  1.4765 -0.9701 -0.2876
 6048TIP3   OH239558   0.013   6.028   0.768  0.1215  0.1004  0.0483
 6048TIP3    H139559   0.075   5.993   0.705  0.5697  2.7745 -1.0931
 6048TIP3    H239560  -0.070   5.985   0.746  1.0065 -1.7155  0.0652
 6049TIP3   OH239561   3.314   4.113  11.331 -0.5347  0.0506  0.1517
 6049TIP3    H139562   3.365   4.118  11.412  1.0324 -1.1583 -0.7220
 6049TIP3    H239563   3.347   4.036  11.286 -1.8764  0.2881 -1.3338
 6050TIP3   OH239564   1.134   3.998   0.124  0.1275 -0.2605  0.1186
 6050TIP3    H139565   1.100   4.078   0.165  0.1290  0.1549 -0.6687
 6050TIP3    H239566   1.184   3.955   0.193  0.9926  0.9468  0.2746
 6051TIP3   OH239567   6.264   3.136  10.593  0.4074 -0.2878  0.0458
 6051TIP3    H139568   6.337   3.115  10.535  1.6414  0.3892  1.3203
 6051TIP3    H239569   6.238   3.225  10.568  0.6429 -0.1672  0.2313
 6052TIP3   OH239570   0.414   0.082  12.027  0.1579  0.1259  0.3627
 6052TIP3    H139571   0.360   0.106  12.102 -0.0863  0.1852  0.1697
 6052TIP3    H239572   0.481   0.150  12.022  0.3947 -0.0786  0.7478
 6053TIP3   OH239573   3.752   0.326   5.530 -0.0067 -0.1800 -0.5529
 6053TIP3    H139574   3.840   0.287   5.532  1.3476  2.6244  0.7177
 6053TIP3    H239575   3.700   0.267   5.476  2.2872 -2.6976 -0.1903
 6054TIP3   OH239576   6.523   2.594   0.864  0.0798  0.0171  0.0614
 6054TIP3    H139577   6.437   2.577   0.903  0.2743 -0.1569  0.4164
 6054TIP3    H239578   6.514   2.563   0.774 -0.1884 -0.1364  0.1373
 6055TIP3   OH239579   4.184   0.285   5.073 -0.1759  0.4797  0.1005
 6055TIP3    H139580   4.093   0.312   5.088 -0.2731  1.0382 -1.3723
 6055TIP3    H239581   4.179   0.221   5.002  0.8429  2.9763 -2.3694
 6056TIP3   OH239582   2.732   1.182   2.180  0.2422  0.3906 -1.1221
 6056TIP3    H139583   2.808   1.187   2.238 -0.1057  0.0827 -0.6369
 6056TIP3    H239584   2.766   1.143   2.099  0.6328  0.4036 -0.9660
 6057TIP3   OH239585   1.304   5.545  13.391 -0.1632  0.0642 -0.4779
 6057TIP3    H139586   1.317   5.579  13.479 -0.2204  0.4381 -0.6128
 6057TIP3    H239587   1.391   5.538  13.354 -0.1728  0.3638 -0.5604
 6058TIP3   OH239588   1.049   4.787   2.177  0.2116 -0.4248  0.5409
 6058TIP3    H139589   1.101   4.738   2.240  0.1358 -2.2187 -0.7124
 6058TIP3    H239590   0.969   4.810   2.224  1.1951  0.4899  1.8262
 6059TIP3   OH239591   6.260   3.631   2.731 -0.2181 -0.4710  0.4778
 6059TIP3    H139592   6.311   3.552   2.748  0.0698 -0.6624 -1.1321
 6059TIP3    H239593   6.236   3.663   2.818  0.4587 -1.7976  1.1864
 6060TIP3   OH239594   1.174   1.996   4.991 -0.2640  0.4204 -0.1082
 6060TIP3    H139595   1.105   1.954   5.042 -0.2988  0.1303 -0.3919
 6060TIP3    H239596   1.254   1.951   5.016 -0.2361  0.4827 -0.0841
 6061TIP3   OH239597   2.861   4.953   0.416 -0.1359  0.2981 -0.0307
 6061TIP3    H139598   2.892   4.871   0.454 -0.0184  0.6469  0.6474
 6061TIP3    H239599   2.767   4.954   0.435  0.0773  0.8749  1.0273
 6062TIP3   OH239600   1.822   6.118  11.117 -0.4874 -0.2056  0.4497
 6062TIP3    H139601   1.747   6.172  11.144 -0.4324  1.5750 -2.5411
 6062TIP3    H239602   1.807   6.103  11.023  2.4705 -0.4765 -0.0520
 6063TIP3   OH239603   2.164   1.440  17.105 -0.1587 -0.1998 -0.6635
 6063TIP3    H139604   2.257   1.419  17.103  0.2961  0.9414  2.4256
 6063TIP3    H239605   2.131   1.395  17.184 -1.3949  2.1495  0.2539
 6064TIP3   OH239606   1.931   6.267   4.938  1.1437  0.3812 -0.8053
 6064TIP3    H139607   1.848   6.300   4.973  0.8976 -1.9243  1.0613
 6064TIP3    H239608   1.972   6.343   4.898 -1.5308  1.7562 -1.1502
 6065TIP3   OH239609   2.643   1.010   3.308  0.4478 -0.1764  0.4581
 6065TIP3    H139610   2.688   0.963   3.237  0.9710  1.0222 -0.0337
 6065TIP3    H239611   2.580   0.947   3.342 -1.9949  0.0992 -3.0856
 6066TIP3   OH239612   5.936   5.916  15.739 -0.2721 -0.4572 -0.3319
 6066TIP3    H139613   5.946   5.890  15.648 -3.1935 -2.1023 -0.3091
 6066TIP3    H239614   5.842   5.930  15.750  0.2788  2.5830  1.7479
 6067TIP3   OH239615   5.444   3.650  14.254  0.7425 -0.4198  0.3515
 6067TIP3    H139616   5.395   3.659  14.336  1.2479 -1.4077  0.7776
 6067TIP3    H239617   5.443   3.556  14.235 -0.2078 -0.1048 -1.3183
 6068TIP3   OH239618   1.156   0.180  15.574 -0.3474 -0.1673 -0.1544
 6068TIP3    H139619   1.156   0.090  15.540  0.2073 -0.9552  1.7645
 6068TIP3    H239620   1.063   0.201  15.586 -0.4524 -1.1296  0.8902
 6069TIP3   OH239621   2.976   2.533   2.648 -0.1867  0.4520  0.6065
 6069TIP3    H139622   2.919   2.607   2.631  1.1508  1.4165  0.1596
 6069TIP3    H239623   3.063   2.562   2.620  0.3318 -1.3713  0.1465
 6070TIP3   OH239624   5.115   2.769  11.033 -0.0692 -0.5755 -0.5492
 6070TIP3    H139625   5.211   2.771  11.028  0.0627 -2.3785  0.5044
 6070TIP3    H239626   5.087   2.746  10.944  0.4036  0.6035 -1.0296
 6071TIP3   OH239627   4.903   3.179   0.218  0.2091 -0.1237  0.6889
 6071TIP3    H139628   4.866   3.140   0.139 -2.3336  0.9618  1.2440
 6071TIP3    H239629   4.976   3.232   0.187  1.6224 -2.5725 -0.4430
 6072TIP3   OH239630   3.153   6.508  14.908  0.9090  0.2039  0.4235
 6072TIP3    H139631   3.085   6.489  14.843  0.6920 -1.4475  1.0946
 6072TIP3    H239632   3.224   6.447  14.886  1.8580  1.3381  0.2439
 6073TIP3   OH239633   2.366   0.816  15.624  0.0452  0.3160  0.0027
 6073TIP3    H139634   2.382   0.810  15.530 -0.5702  0.4263 -0.1092
 6073TIP3    H239635   2.407   0.899  15.650  0.0172  0.3957 -0.2100
 6074TIP3   OH239636   5.964   2.997  14.885  0.2635  0.5775  0.3466
 6074TIP3    H139637   6.040   2.988  14.943 -0.5221 -0.5389  1.2452
 6074TIP3    H239638   5.968   2.920  14.829  0.3645  1.0588 -0.3202
 6075TIP3   OH239639   6.303   3.229   1.351 -0.0730  0.0537  0.0387
 6075TIP3    H139640   6.285   3.320   1.373  1.5305  0.2730  0.5694
 6075TIP3    H239641   6.249   3.212   1.274 -0.0350  1.6013 -0.3586
 6076TIP3   OH239642   5.849   6.035  16.028 -0.0049 -0.4045  0.6010
 6076TIP3    H139643   5.754   6.047  16.039  0.2007  0.9900  1.0174
 6076TIP3    H239644   5.859   6.004  15.938 -0.6938  1.9371 -0.3406
 6077TIP3   OH239645   1.365   6.728  15.762  0.8676 -0.1865 -0.2231
 6077TIP3    H139646   1.375   6.671  15.838  0.6009  0.2892  0.1756
 6077TIP3    H239647   1.273   6.717  15.736  0.3583  1.2528  0.8431
 6078TIP3   OH239648   0.841   0.943  14.355 -0.0051 -0.0606 -0.7518
 6078TIP3    H139649   0.883   0.871  14.402  0.5415 -0.0023 -1.1334
 6078TIP3    H239650   0.909   1.011  14.349 -0.9717  1.1265  0.9516
 6079TIP3   OH239651   6.082   5.992  13.503 -0.1365  0.6848  0.6450
 6079TIP3    H139652   6.045   6.056  13.442  1.3639 -0.5058 -1.6444
 6079TIP3    H239653   6.007   5.938  13.528 -1.4429  3.1750  2.6202
 6080TIP3   OH239654   3.092   2.135   0.060 -0.3060  0.4896  0.0510
 6080TIP3    H139655   3.000   2.136   0.035 -0.5212 -0.4071  0.7441
 6080TIP3    H239656   3.116   2.227   0.067 -0.4679  0.7883 -2.4755
 6081TIP3   OH239657   5.227   3.307   1.179 -0.7035 -0.1739  0.1805
 6081TIP3    H139658   5.191   3.288   1.266 -0.8350  0.3028  0.2343
 6081TIP3    H239659   5.210   3.228   1.129 -2.0335  0.1042  0.1479
 6082TIP3   OH239660   2.414   3.564  15.589 -0.2527 -0.5021  0.0382
 6082TIP3    H139661   2.424   3.514  15.508  1.8740 -0.1113  0.0141
 6082TIP3    H239662   2.339   3.621  15.573 -1.9752 -2.7582 -0.3823
 6083TIP3   OH239663   4.151   6.379   4.411 -0.6911  0.0512 -0.0399
 6083TIP3    H139664   4.113   6.460   4.377  0.4185  0.0280 -1.4242
 6083TIP3    H239665   4.108   6.309   4.362  0.8084  0.0121 -1.3929
 6084TIP3   OH239666   0.875   4.017  14.513  0.0937 -0.1954 -0.7498
 6084TIP3    H139667   0.953   4.015  14.457  1.1642 -1.2840  0.7112
 6084TIP3    H239668   0.909   4.036  14.600 -1.3441 -0.2819 -0.1478
 6085TIP3   OH239669   0.928   4.707   4.706  0.2166 -0.8493  0.3157
 6085TIP3    H139670   0.832   4.708   4.705  0.0717  0.4360 -3.4035
 6085TIP3    H239671   0.952   4.664   4.624  2.8900 -1.5917  1.3799
 6086TIP3   OH239672   0.777   3.127  13.805  0.6516  0.2305 -0.2858
 6086TIP3    H139673   0.806   3.039  13.828  0.1131 -0.0288 -0.5759
 6086TIP3    H239674   0.756   3.122  13.712 -0.6069  0.3159 -0.0300
 6087TIP3   OH239675   5.430   0.639  15.360 -0.0148  0.1916 -0.5339
 6087TIP3    H139676   5.376   0.718  15.366  0.2121  0.3085  0.0635
 6087TIP3    H239677   5.400   0.595  15.281 -0.2360  0.8099 -0.7986
 6088TIP3   OH239678   1.250   1.525   0.562 -0.7860 -0.2047  0.1750
 6088TIP3    H139679   1.321   1.584   0.540 -0.2719 -0.2598  1.6058
 6088TIP3    H239680   1.226   1.485   0.479 -0.9258  1.7396 -0.7824
 6089TIP3   OH239681   3.490   2.103  12.110  0.4005 -0.8828  0.4327
 6089TIP3    H139682   3.496   2.196  12.132  0.0358 -0.4688 -1.1034
 6089TIP3    H239683   3.537   2.058  12.180 -0.2292  0.3764  1.7088
 6090TIP3   OH239684   0.735   1.759   1.706  0.5701  0.0934 -0.3878
 6090TIP3    H139685   0.805   1.705   1.670 -0.4590 -1.4335 -0.1822
 6090TIP3    H239686   0.661   1.745   1.647  0.5814  2.1890 -0.9730
 6091TIP3   OH239687   1.180   1.562  16.969  0.5089 -0.0548 -0.5561
 6091TIP3    H139688   1.095   1.604  16.958  1.1815  1.7868  0.7432
 6091TIP3    H239689   1.189   1.506  16.892 -1.7116 -0.0447 -0.8923
 6092TIP3   OH239690   4.596   3.304  17.183 -0.7158  0.4153  0.3265
 6092TIP3    H139691   4.590   3.398  17.200 -0.5734  0.6570 -0.8402
 6092TIP3    H239692   4.507   3.271  17.195 -1.4990  1.2980 -2.3960
 6093TIP3   OH239693   1.974   3.137  13.025  0.0455  0.2576  0.3235
 6093TIP3    H139694   1.935   3.166  13.107 -0.4474  2.8948 -0.7429
 6093TIP3    H239695   2.065   3.166  13.029  1.1104 -2.7883  1.3289
 6094TIP3   OH239696   2.198   2.398  16.478  0.0902  0.1713 -0.1122
 6094TIP3    H139697   2.261   2.442  16.535 -0.1431 -0.7743  0.9135
 6094TIP3    H239698   2.112   2.419  16.514  0.0070 -2.5607  1.6267
 6095TIP3   OH239699   1.856   5.018  13.946 -0.6010  0.0604 -0.0839
 6095TIP3    H139700   1.810   5.063  13.876 -0.6900  0.9957  0.5547
 6095TIP3    H239701   1.878   4.932  13.910 -1.9953 -0.0489 -0.7135
 6096TIP3   OH239702   0.386   1.893   3.963  0.9416  0.7185 -1.4174
 6096TIP3    H139703   0.386   1.906   3.868  2.4411  1.5834 -1.3362
 6096TIP3    H239704   0.468   1.847   3.980  0.9669  1.0901 -0.4851
 6097TIP3   OH239705   1.798   2.196   0.674  0.0162  0.0155 -0.3705
 6097TIP3    H139706   1.725   2.157   0.722 -0.2168 -0.0716 -0.7930
 6097TIP3    H239707   1.875   2.148   0.706 -0.0782  0.2656  0.2445
 6098TIP3   OH239708   2.180   4.224   3.470  0.2843  0.8330  0.1523
 6098TIP3    H139709   2.244   4.173   3.421  0.7434  0.5702  1.0079
 6098TIP3    H239710   2.207   4.315   3.457 -0.6935  0.9270 -1.5987
 6099TIP3   OH239711   4.610   1.061  16.719 -0.1931  0.9814  0.1124
 6099TIP3    H139712   4.551   1.050  16.645  0.5692  1.1415 -0.5207
 6099TIP3    H239713   4.659   0.979  16.724 -0.6502  0.7381  0.8127
 6100TIP3   OH239714   1.998   0.711   3.409  0.0907 -0.2420  0.2168
 6100TIP3    H139715   2.014   0.794   3.454  1.1490 -0.3894  0.1305
 6100TIP3    H239716   2.036   0.723   3.322  1.6291 -1.3252  0.7075
 6101TIP3   OH239717   6.577   4.416  14.794 -0.2821  0.0674  0.6225
 6101TIP3    H139718   6.589   4.502  14.834  1.1379 -0.5334  1.6148
 6101TIP3    H239719   6.532   4.365  14.861 -0.4857 -0.1571  0.3172
 6102TIP3   OH239720   1.443   1.613   1.269  0.2793 -0.0019  0.3135
 6102TIP3    H139721   1.484   1.696   1.290 -0.2918  0.6873 -1.1321
 6102TIP3    H239722   1.516   1.550   1.270  1.4457  1.1541 -1.9929
 6103TIP3   OH239723   3.603   0.640  17.195 -0.2217  0.2780  0.7326
 6103TIP3    H139724   3.673   0.663  17.256  0.2321  2.7688 -0.5929
 6103TIP3    H239725   3.647   0.619  17.113 -0.9624  2.5255 -0.3150
 6104TIP3   OH239726   6.430   5.315   3.208  0.4693  0.3912  0.6164
 6104TIP3    H139727   6.346   5.269   3.201  0.6118  0.2043  0.1430
 6104TIP3    H239728   6.481   5.261   3.269 -0.1840  1.1591  1.8846
 6105TIP3   OH239729   6.352   1.174   4.225  0.4255  0.1922 -0.2453
 6105TIP3    H139730   6.268   1.174   4.178  0.5645  0.5942 -0.4998
 6105TIP3    H239731   6.327   1.183   4.317  0.0823 -1.9766 -0.0770
 6106TIP3   OH239732   1.468   6.356  15.708  0.9551 -0.4028  0.0709
 6106TIP3    H139733   1.378   6.342  15.677  0.4946 -1.3300  1.6869
 6106TIP3    H239734   1.523   6.322  15.638  0.0221 -0.6953 -0.5401
 6107TIP3   OH239735   0.727   2.449  14.242 -0.2057  0.3750 -0.0110
 6107TIP3    H139736   0.726   2.493  14.157 -0.1705  0.2289 -0.0891
 6107TIP3    H239737   0.819   2.424  14.255 -0.0117  1.3516  0.5762
 6108TIP3   OH239738   1.267   6.259  15.562 -0.2371 -0.2440  0.1457
 6108TIP3    H139739   1.235   6.174  15.533 -0.6239  0.3402 -1.1875
 6108TIP3    H239740   1.322   6.290  15.490  0.6574  0.2346  1.0118
 6109TIP3   OH239741   4.981   2.117   5.035  0.0125 -0.2350  0.1866
 6109TIP3    H139742   5.026   2.151   4.957 -2.1547 -0.8446 -1.4434
 6109TIP3    H239743   4.951   2.030   5.009 -1.2379 -0.2315  1.5130
 6110TIP3   OH239744   4.385   5.655   3.289  0.2822  0.4661 -0.3776
 6110TIP3    H139745   4.398   5.742   3.253 -0.3178  1.1648  1.0360
 6110TIP3    H239746   4.294   5.633   3.268  0.2730  0.4055 -0.2760
 6111TIP3   OH239747   4.590   2.644  14.040  0.4394  0.1794  0.5996
 6111TIP3    H139748   4.590   2.566  14.096  1.5291  1.2538  2.1869
 6111TIP3    H239749   4.674   2.687  14.058  0.1268  1.4269 -0.6794
 6112TIP3   OH239750   1.265   2.079  11.637  0.2704 -0.0583 -0.6858
 6112TIP3    H139751   1.194   2.107  11.695  2.4575 -0.1650  2.2937
 6112TIP3    H239752   1.296   2.160  11.597 -2.4344 -0.1877 -3.3557
 6113TIP3   OH239753   2.477   2.669  13.794  0.1460 -0.8199 -0.0853
 6113TIP3    H139754   2.558   2.698  13.752 -0.5680  0.2967 -0.7598
 6113TIP3    H239755   2.461   2.582  13.757  0.3358 -0.4868 -0.9838
 6114TIP3   OH239756   2.261   5.242  14.275  0.0223  0.7299  0.3209
 6114TIP3    H139757   2.323   5.258  14.204  1.3401 -2.8067  0.5026
 6114TIP3    H239758   2.183   5.206  14.231  0.2031  0.0945  0.5154
 6115TIP3   OH239759   1.799   6.705  11.331  0.2842 -0.0508  0.3276
 6115TIP3    H139760   1.751   6.628  11.362  0.9519  0.3341  2.4442
 6115TIP3    H239761   1.891   6.677  11.330  0.4371  0.4520  0.1781
 6116TIP3   OH239762   0.159   4.852  15.492  0.5749  0.1573 -0.3131
 6116TIP3    H139763   0.254   4.849  15.476  0.7334  1.2850  0.2973
 6116TIP3    H239764   0.143   4.942  15.521 -0.5308 -0.2878  0.5257
 6117TIP3   OH239765   2.809   2.734   2.571  0.0643 -0.3038 -0.2445
 6117TIP3    H139766   2.824   2.827   2.589  1.2224 -0.3268 -0.9645
 6117TIP3    H239767   2.714   2.725   2.571 -0.1037  0.2061  3.0630
 6118TIP3   OH239768   3.253   1.181  15.263 -0.1949 -0.2525  0.4571
 6118TIP3    H139769   3.179   1.208  15.316 -0.4178 -0.3339  0.1868
 6118TIP3    H239770   3.321   1.247  15.281 -0.0630 -0.6040  1.2827
 6119TIP3   OH239771   2.782   2.710   4.393 -0.5929 -0.3331  0.3081
 6119TIP3    H139772   2.814   2.796   4.365 -0.2654 -0.0181  1.5712
 6119TIP3    H239773   2.841   2.648   4.352  1.5894  0.2193  2.3684
 6120TIP3   OH239774   2.270   4.734  16.665  0.1896 -0.2381 -0.0800
 6120TIP3    H139775   2.218   4.688  16.599  2.7669 -0.3475 -2.2221
 6120TIP3    H239776   2.286   4.821  16.627  1.3544 -0.1467  0.5600
 6121TIP3   OH239777   1.305   4.463  12.126 -0.5546  0.0883 -0.1427
 6121TIP3    H139778   1.226   4.422  12.163 -0.2530 -0.0440  0.3569
 6121TIP3    H239779   1.271   4.537  12.074 -1.1966 -1.4152 -1.9814
 6122TIP3   OH239780   1.501   6.445  13.063 -0.2954 -0.1544 -0.1534
 6122TIP3    H139781   1.473   6.501  13.136 -0.4066 -0.8929  0.3865
 6122TIP3    H239782   1.430   6.382  13.052  0.7009 -1.4683  0.6184
 6123TIP3   OH239783   1.280   6.485   4.410 -0.3001  0.5778 -0.4625
 6123TIP3    H139784   1.271   6.421   4.481  0.5120  1.6274  0.6331
 6123TIP3    H239785   1.190   6.504   4.383 -0.6510  0.3969  0.5311
 6124TIP3   OH239786   4.464   4.648   0.249 -0.1748  0.3580  0.4023
 6124TIP3    H139787   4.510   4.690   0.176  2.2696 -0.7985  1.1799
 6124TIP3    H239788   4.515   4.673   0.326  0.8334 -3.0855  1.0153
 6125TIP3   OH239789   4.775   5.139   3.067  0.5700 -0.5090 -0.2356
 6125TIP3    H139790   4.773   5.108   3.158 -0.5450  0.7864  0.2193
 6125TIP3    H239791   4.846   5.203   3.066  0.8430 -0.8112 -0.3866
 6126TIP3   OH239792   2.575   5.899   3.510 -0.3713  0.1614  0.5687
 6126TIP3    H139793   2.616   5.822   3.469 -0.8983  0.7275 -1.1164
 6126TIP3    H239794   2.523   5.863   3.582  2.8005 -0.6006  2.7024
 6127TIP3   OH239795   5.362   6.323   4.698 -0.2846  0.1153  0.1539
 6127TIP3    H139796   5.269   6.317   4.718 -0.6269  1.7253 -0.8401
 6127TIP3    H239797   5.405   6.326   4.784 -1.2321  0.5182  0.6251
 6128TIP3   OH239798   2.788   5.567  13.642 -0.1008  0.3730  0.4172
 6128TIP3    H139799   2.879   5.539  13.638 -0.4732 -0.7133 -1.0858
 6128TIP3    H239800   2.778   5.600  13.731  1.5190 -0.3278  0.9048
 6129TIP3   OH239801   4.430   6.721   5.819 -0.6401  0.2863  0.0870
 6129TIP3    H139802   4.496   6.652   5.809 -0.9194  0.1132 -0.6080
 6129TIP3    H239803   4.473   6.801   5.788 -0.2572  0.4741  1.0575
 6130TIP3   OH239804   0.132   1.891   0.681 -0.0907 -0.0957 -0.3436
 6130TIP3    H139805   0.125   1.867   0.589  0.9700  0.9139 -0.7102
 6130TIP3    H239806   0.226   1.900   0.697 -0.0774 -2.4669  1.4651
 6131TIP3   OH239807   3.387   1.716   3.892  0.5693  0.0266 -0.7835
 6131TIP3    H139808   3.432   1.784   3.942  2.0637 -0.2584 -1.6811
 6131TIP3    H239809   3.325   1.764   3.836  0.5744  0.5222 -0.3671
 6132TIP3   OH239810   5.638   5.326  15.649 -0.2881 -0.5647  0.2992
 6132TIP3    H139811   5.681   5.338  15.565  1.5626 -1.5446  1.0442
 6132TIP3    H239812   5.560   5.381  15.644 -0.2207 -0.5797 -2.0213
 6133TIP3   OH239813   1.767   5.485  14.261  0.3373 -0.1438 -0.2968
 6133TIP3    H139814   1.785   5.531  14.179 -1.1624 -0.6002 -0.9141
 6133TIP3    H239815   1.841   5.506  14.317  1.4449  0.0968 -1.7997
 6134TIP3   OH239816   5.869   4.855   2.985  0.1198 -0.0696  0.3026
 6134TIP3    H139817   5.958   4.849   2.951  1.3542  0.6998  3.0974
 6134TIP3    H239818   5.865   4.941   3.027 -2.2837  0.2936 -0.4925
 6135TIP3   OH239819   2.304   5.376   3.472 -0.2080 -0.5536 -0.2574
 6135TIP3    H139820   2.393   5.341   3.478  0.4728  1.1112  0.1699
 6135TIP3    H239821   2.250   5.303   3.444  0.8535 -2.3169  2.0025
 6136TIP3   OH239822   6.706   2.708  12.228 -0.4747 -0.4137 -0.2207
 6136TIP3    H139823   6.758   2.629  12.237  0.0939 -0.3851 -2.6706
 6136TIP3    H239824   6.633   2.696  12.289  1.7681 -0.8968  2.5935
 6137TIP3   OH239825   1.213   1.074   2.173 -0.8894  0.7434  0.7940
 6137TIP3    H139826   1.127   1.034   2.177 -0.3257 -0.4145  1.9234
 6137TIP3    H239827   1.266   1.013   2.122  0.1686 -0.4525  3.1441
 6138TIP3   OH239828   5.216   0.300   3.567  0.1329  0.2362  0.0525
 6138TIP3    H139829   5.193   0.369   3.504 -0.3313 -0.2115 -0.2790
 6138TIP3    H239830   5.272   0.240   3.518  0.3778  0.2751  0.2847
 6139TIP3   OH239831   2.145   0.192  15.866  0.2010 -0.4391 -0.3971
 6139TIP3    H139832   2.140   0.104  15.903 -1.5124  0.5845  2.0612
 6139TIP3    H239833   2.061   0.205  15.822  0.1818  0.1902 -0.1880
 6140TIP3   OH239834   3.575   1.589  11.550  0.3794  0.0842  0.2312
 6140TIP3    H139835   3.624   1.569  11.470 -0.8834 -1.6559 -0.1778
 6140TIP3    H239836   3.503   1.646  11.521  0.3861  0.1137  0.2722
 6141TIP3   OH239837   3.380   1.567  10.520 -0.1785  0.0493 -0.5180
 6141TIP3    H139838   3.363   1.474  10.509  2.1277 -0.7216  1.4595
 6141TIP3    H239839   3.475   1.572  10.536 -0.3321  2.6668  0.0481
 6142TIP3   OH239840   2.437   1.893   4.851 -0.0101  0.0128 -0.6052
 6142TIP3    H139841   2.524   1.929   4.835  0.0690 -0.4059 -1.2017
 6142TIP3    H239842   2.377   1.963   4.828  0.1795  0.4423  0.2101
 6143TIP3   OH239843   1.754   0.536  11.112 -0.3844 -0.3182  0.4598
 6143TIP3    H139844   1.693   0.528  11.185 -0.9733  3.9962  0.6958
 6143TIP3    H239845   1.712   0.598  11.052  2.3938  0.4115 -0.9071
 6144TIP3   OH239846   0.711   5.132   6.149 -0.3906 -0.1470  0.6155
 6144TIP3    H139847   0.631   5.163   6.106  0.4582  0.6341 -0.4419
 6144TIP3    H239848   0.731   5.199   6.214  0.5813  0.7702 -0.6018
 6145TIP3   OH239849   5.113   1.087   4.732  0.3460  0.5271  0.3499
 6145TIP3    H139850   5.091   1.075   4.640  1.5305 -1.1105  0.2424
 6145TIP3    H239851   5.029   1.087   4.777 -0.1552 -0.5808 -0.5471
 6146TIP3   OH239852   2.737   0.224   3.077  0.1634  0.0349  0.0393
 6146TIP3    H139853   2.740   0.200   3.170 -0.0883 -0.6064 -0.1112
 6146TIP3    H239854   2.686   0.305   3.075  0.9949  0.5802  0.5571
 6147TIP3   OH239855   3.482   3.263  15.971 -0.4589  0.2009 -0.3862
 6147TIP3    H139856   3.387   3.250  15.970 -0.4013 -0.3896  0.7336
 6147TIP3    H239857   3.517   3.180  16.004  0.3460  0.9405  0.6831
 6148TIP3   OH239858   6.276   1.482  14.955 -0.0182 -0.8931 -0.4059
 6148TIP3    H139859   6.303   1.542  14.886  1.2494 -1.6410 -0.5884
 6148TIP3    H239860   6.357   1.462  15.003 -0.6031 -1.6009  0.3197
 6149TIP3   OH239861   3.235   5.718   1.962 -0.4623 -0.6171 -0.4381
 6149TIP3    H139862   3.168   5.754   2.019 -0.3898 -1.0468 -0.0735
 6149TIP3    H239863   3.262   5.791   1.906  0.2237  0.1087  0.7856
 6150TIP3   OH239864   4.011   5.875   4.639 -0.0654  0.4963  0.8737
 6150TIP3    H139865   4.100   5.842   4.624 -0.5059 -0.4919  0.4220
 6150TIP3    H239866   3.973   5.815   4.702 -0.5993  0.6208  0.6726
 6151TIP3   OH239867   1.875   4.093  11.419 -0.0390 -0.8207 -0.1055
 6151TIP3    H139868   1.913   4.026  11.362 -0.5509 -0.3988 -0.9687
 6151TIP3    H239869   1.950   4.129  11.467  0.4320 -1.0795 -0.6313
 6152TIP3   OH239870   4.653   3.085   0.436 -0.3837  0.3515  0.8561
 6152TIP3    H139871   4.732   3.118   0.477 -0.2279  1.4301 -0.2387
 6152TIP3    H239872   4.589   3.156   0.446 -0.5062  0.4188 -0.2342
 6153TIP3   OH239873   3.824   2.459   5.781 -0.4302  0.6847  0.1660
 6153TIP3    H139874   3.878   2.460   5.703 -1.0508  0.3260 -0.2761
 6153TIP3    H239875   3.843   2.542   5.825  0.9125  0.3106  0.3322
 6154TIP3   OH239876   0.720   6.736   2.251  0.2053 -0.2422  0.6288
 6154TIP3    H139877   0.785   6.793   2.211 -1.1160  0.8861  0.0122
 6154TIP3    H239878   0.696   6.780   2.333 -2.6560  1.5431 -1.0098
 6155TIP3   OH239879   3.687   1.025   4.188 -0.7429  0.0931 -0.0589
 6155TIP3    H139880   3.773   1.067   4.187 -0.5976 -0.2000 -1.4921
 6155TIP3    H239881   3.638   1.067   4.118 -2.1257  0.9004  1.3107
 6156TIP3   OH239882   2.364   1.642  14.929  0.0411 -0.7309 -0.4654
 6156TIP3    H139883   2.431   1.606  14.987  0.5666  1.1453  0.1461
 6156TIP3    H239884   2.283   1.637  14.980  0.1380 -0.8788 -0.3254
 6157TIP3   OH239885   4.180   6.017  14.752 -0.7623 -0.5111  0.3961
 6157TIP3    H139886   4.209   6.108  14.740 -0.1865 -0.4721  1.9064
 6157TIP3    H239887   4.259   5.969  14.775 -0.9681 -1.5324 -0.9199
 6158TIP3   OH239888   5.700   5.687   5.527 -0.0642  0.7074  0.0128
 6158TIP3    H139889   5.676   5.611   5.580  2.3403  0.1520  0.4183
 6158TIP3    H239890   5.691   5.658   5.437  1.4450 -0.3258  0.1637
 6159TIP3   OH239891   6.391   1.337   0.559  0.3576  0.2245  0.0450
 6159TIP3    H139892   6.363   1.405   0.620  0.7350 -0.5983  1.1717
 6159TIP3    H239893   6.317   1.327   0.499 -1.2040 -0.8317  2.0215
 6160TIP3   OH239894   6.125   3.051   0.182  0.2578 -0.0758 -0.2746
 6160TIP3    H139895   6.134   3.124   0.243 -2.4405 -0.3638  0.6245
 6160TIP3    H239896   6.039   3.064   0.141  0.9361 -1.2323 -2.2193
 6161TIP3   OH239897   1.987   3.851   0.189 -0.0034 -0.0731  0.0990
 6161TIP3    H139898   1.922   3.843   0.119  1.1734 -0.8974 -0.9466
 6161TIP3    H239899   1.996   3.945   0.202 -2.8602  0.1085  1.7379
 6162TIP3   OH239900   0.785   5.811  13.373 -0.0056  0.1445  0.5390
 6162TIP3    H139901   0.703   5.841  13.413  0.4164  0.5812  1.0951
 6162TIP3    H239902   0.809   5.734  13.424  0.5630  0.7349  1.1772
 6163TIP3   OH239903   1.727   5.385  14.642 -0.2537  0.0974  0.3397
 6163TIP3    H139904   1.720   5.303  14.690 -1.3934 -0.4475 -0.7220
 6163TIP3    H239905   1.792   5.368  14.574 -0.9238 -0.1040 -0.2462
 6164TIP3   OH239906   5.278   4.107   3.151 -0.2622  0.0073  0.2421
 6164TIP3    H139907   5.338   4.071   3.086 -2.1090 -1.9551 -0.4913
 6164TIP3    H239908   5.300   4.200   3.155  2.2457 -0.4846 -0.5525
 6165TIP3   OH239909   5.489   6.426   3.066 -0.1581  0.0630 -0.6227
 6165TIP3    H139910   5.453   6.474   3.141 -2.6346  2.2735 -3.0132
 6165TIP3    H239911   5.464   6.335   3.081 -0.4357  0.4066  1.2520
 6166TIP3   OH239912   5.951   0.947  12.214  0.5695 -0.2040  0.4167
 6166TIP3    H139913   5.888   0.980  12.279  0.6705  0.8448 -0.0012
 6166TIP3    H239914   5.982   1.025  12.169  2.3144 -0.6760  0.7214
 6167TIP3   OH239915   6.552   3.096   3.998  0.2193 -0.2607 -0.4342
 6167TIP3    H139916   6.506   3.032   3.944 -1.4362 -0.8362  1.5278
 6167TIP3    H239917   6.576   3.047   4.077  2.0977  0.6760 -0.3752
 6168TIP3   OH239918   2.052   0.473   0.459 -0.6474 -0.1833  0.4193
 6168TIP3    H139919   2.109   0.498   0.385 -0.4419  1.6939  1.1504
 6168TIP3    H239920   2.110   0.427   0.519 -0.5947 -0.8810 -0.1544
 6169TIP3   OH239921   4.648   2.903  11.282  0.1156 -0.0991 -0.2396
 6169TIP3    H139922   4.715   2.964  11.251  1.4511 -0.9234  0.8871
 6169TIP3    H239923   4.571   2.958  11.297  0.8144  1.0529 -0.6975
 6170TIP3   OH239924   4.869   2.638  15.992  0.9082  0.0175 -0.6645
 6170TIP3    H139925   4.861   2.693  16.070 -1.6344  0.7176 -1.3384
 6170TIP3    H239926   4.889   2.698  15.921 -1.2186  0.0565 -1.2893
 6171TIP3   OH239927   3.527   1.239   5.337  0.1732  0.3777 -0.6105
 6171TIP3    H139928   3.553   1.174   5.271 -1.0531 -0.9912  0.2055
 6171TIP3    H239929   3.464   1.193   5.392  0.3993  1.8176  0.9053
 6172TIP3   OH239930   2.786   1.071   2.819  0.4536  0.2100 -0.3718
 6172TIP3    H139931   2.765   0.985   2.856 -0.6040  1.2275  1.5361
 6172TIP3    H239932   2.715   1.087   2.757  1.1979 -0.6893 -1.4937
 6173TIP3   OH239933   5.478   2.785  16.784 -0.1959  0.0545 -0.8684
 6173TIP3    H139934   5.521   2.706  16.816 -1.6630 -0.8895 -1.1053
 6173TIP3    H239935   5.414   2.807  16.852 -0.1888  0.7167 -1.0626
 6174TIP3   OH239936   4.063   4.887  13.838  0.5002 -0.4002 -0.5430
 6174TIP3    H139937   3.985   4.916  13.885  0.8162 -0.9794  0.3540
 6174TIP3    H239938   4.129   4.954  13.857  0.1119  0.3386 -1.6821
 6175TIP3   OH239939   3.661   0.319  15.617  0.6891  0.1211 -0.5564
 6175TIP3    H139940   3.619   0.381  15.558 -0.2353  1.0582  1.0141
 6175TIP3    H239941   3.600   0.310  15.690  2.8216  0.9338  1.4577
 6176TIP3   OH239942   0.446   3.189  14.973 -0.1286  0.0069  0.3096
 6176TIP3    H139943   0.528   3.182  14.923  2.2294 -0.5967  3.8960
 6176TIP3    H239944   0.393   3.115  14.942  0.2858  0.7809 -2.5497
 6177TIP3   OH239945   2.508   3.602  12.760  0.2638 -0.4701  0.3258
 6177TIP3    H139946   2.532   3.537  12.694  0.7752  0.9943 -0.9799
 6177TIP3    H239947   2.435   3.650  12.721  0.3873  0.2333  0.9527
 6178TIP3   OH239948   4.556   5.771  11.834  0.1836 -0.5296 -0.4980
 6178TIP3    H139949   4.544   5.718  11.755 -0.1834  0.1003 -0.8722
 6178TIP3    H239950   4.603   5.849  11.804 -0.8112  0.1743 -0.2867
 6179TIP3   OH239951   1.156   2.157  13.303  0.0746 -0.2833  0.4231
 6179TIP3    H139952   1.243   2.125  13.280  1.0306  1.7489  1.0002
 6179TIP3    H239953   1.119   2.089  13.360  1.3273 -1.0767  0.3249
 6180TIP3   OH239954   4.268   5.758   4.038 -0.1710 -0.6313 -0.6237
 6180TIP3    H139955   4.194   5.812   4.069  1.5490  0.3105  2.2256
 6180TIP3    H239956   4.246   5.669   4.066 -0.8813 -0.6461 -1.1794
 6181TIP3   OH239957   2.435   1.844  12.208 -0.4386  0.6402 -0.0933
 6181TIP3    H139958   2.371   1.881  12.269 -0.2177 -0.6867  1.0000
 6181TIP3    H239959   2.479   1.920  12.171 -0.3052  1.5173  1.7202
 6182TIP3   OH239960   4.715   0.229   6.021 -0.0985 -0.1830  0.3820
 6182TIP3    H139961   4.658   0.297   5.985  2.4504  1.6215 -0.5084
 6182TIP3    H239962   4.706   0.237   6.116  0.4722  1.7795  0.3218
 6183TIP3   OH239963   2.422   4.977  13.921  0.2492  0.3544  0.1597
 6183TIP3    H139964   2.495   4.915  13.916 -1.2541 -1.5248  0.5659
 6183TIP3    H239965   2.454   5.055  13.876  1.8563 -1.0688 -1.2976
 6184TIP3   OH239966   1.844   5.777   0.066 -0.0094 -0.0024 -0.1272
 6184TIP3    H139967   1.882   5.865   0.061 -1.1084  0.4813 -0.1452
 6184TIP3    H239968   1.920   5.719   0.060  0.6452  0.9131 -1.1681
 6185TIP3   OH239969   1.892   4.962  12.364  0.3212  0.0328 -0.3389
 6185TIP3    H139970   1.809   4.999  12.333 -1.0000 -2.4380 -0.0426
 6185TIP3    H239971   1.959   5.003  12.309 -1.1006  1.8205 -0.8432
 6186TIP3   OH239972   1.428   4.150   0.961 -0.5103 -0.1839  0.5480
 6186TIP3    H139973   1.496   4.208   0.927  1.1653 -1.5948  1.3249
 6186TIP3    H239974   1.352   4.207   0.973  0.4353  1.4069 -0.5806
 6187TIP3   OH239975   6.445   0.239   6.276  0.1727  0.0602  0.0070
 6187TIP3    H139976   6.382   0.299   6.314  1.3329  1.9169 -0.8410
 6187TIP3    H239977   6.476   0.186   6.349 -2.1786 -0.7947  0.4662
 6188TIP3   OH239978   4.726   4.151  15.715  0.4016  0.1367 -0.7590
 6188TIP3    H139979   4.651   4.099  15.743  1.3930 -2.3746 -2.4215
 6188TIP3    H239980   4.692   4.209  15.648 -0.2431 -0.3947 -0.9017
 6189TIP3   OH239981   6.551   6.238   0.950  0.7146  0.2093 -0.7041
 6189TIP3    H139982   6.541   6.274   0.862  0.9800 -1.6304 -1.5243
 6189TIP3    H239983   6.508   6.153   0.947  1.0294 -0.0396  0.8548
 6190TIP3   OH239984   5.482   0.539  14.504  0.0669 -0.5582 -0.0365
 6190TIP3    H139985   5.416   0.535  14.434  0.5253  0.2926 -0.5413
 6190TIP3    H239986   5.453   0.613  14.559 -0.6328 -1.6069  1.0511
 6191TIP3   OH239987   0.840   6.720   5.049 -0.4953  0.0585  0.2722
 6191TIP3    H139988   0.807   6.636   5.083 -2.0176  0.7029  0.4753
 6191TIP3    H239989   0.892   6.696   4.972 -3.5760 -0.9318 -1.6754
 6192TIP3   OH239990   2.307   6.451  12.791  0.0225  0.1979 -0.0744
 6192TIP3    H139991   2.360   6.426  12.866  0.6543  1.7260  0.0320
 6192TIP3    H239992   2.280   6.541  12.810 -2.3174 -0.3880 -0.3007
 6193TIP3   OH239993   4.597   2.511  16.258 -0.4252  0.2758  0.0277
 6193TIP3    H139994   4.561   2.599  16.249 -0.4407  0.1362 -1.5486
 6193TIP3    H239995   4.644   2.513  16.341 -1.2478  1.4665  0.4940
 6194TIP3   OH239996   1.268   5.735   3.878 -0.6425  0.3499 -0.9986
 6194TIP3    H139997   1.355   5.769   3.899  0.6136 -2.9786 -0.2051
 6194TIP3    H239998   1.271   5.721   3.783 -0.1352 -0.1313 -0.9193
 6195TIP3   OH239999   0.952   1.622   1.569 -0.8242  0.2728  0.2209
 6195TIP3    H140000   0.998   1.587   1.645  0.2117  0.2002 -0.4225
 6195TIP3    H240001   1.001   1.589   1.493 -1.1568  1.2786 -0.4549
 6196TIP3   OH240002   2.967   1.214  12.679 -0.0812 -0.4475 -0.5094
 6196TIP3    H140003   2.907   1.199  12.752  0.5063 -0.0455  0.0632
 6196TIP3    H240004   3.000   1.127  12.658  1.0659 -0.3834  0.8576
 6197TIP3   OH240005   1.183   5.190   1.985 -0.2368  0.0515  0.8043
 6197TIP3    H140006   1.266   5.218   2.025 -0.3703 -0.2044  1.2770
 6197TIP3    H240007   1.157   5.263   1.930  0.7218 -0.1940 -0.0078
 6198TIP3   OH240008   4.818   1.206  15.954  0.0894  0.8293  0.1086
 6198TIP3    H140009   4.766   1.181  15.877  0.9443 -0.1679 -0.1642
 6198TIP3    H240010   4.764   1.178  16.028 -0.8931  2.0990 -0.0866
 6199TIP3   OH240011   3.475   4.336   1.210 -0.4557  0.7280  0.3913
 6199TIP3    H140012   3.496   4.265   1.149  0.7365  0.4864  1.0594
 6199TIP3    H240013   3.560   4.371   1.236 -0.9321  0.8580  1.8713
 6200TIP3   OH240014   6.147   6.134  16.050  0.2837 -0.4260 -0.5452
 6200TIP3    H140015   6.111   6.210  16.004 -1.0071 -2.0679 -2.4336
 6200TIP3    H240016   6.069   6.085  16.077  1.1024 -1.1937  0.4620
 6201TIP3   OH240017   3.820   3.417  16.359  0.2082 -0.1142  0.4520
 6201TIP3    H140018   3.881   3.347  16.384 -0.1730 -0.2134  1.1405
 6201TIP3    H240019   3.788   3.451  16.443 -1.0757 -0.4121  0.1087
 6202TIP3   OH240020   4.040   2.740   5.245  0.0610  0.2927 -0.6345
 6202TIP3    H140021   3.953   2.719   5.279  0.3077  0.2682 -0.0092
 6202TIP3    H240022   4.023   2.795   5.169 -0.5195 -0.1720 -0.8561
 6203TIP3   OH240023   0.568   0.331   6.399  0.6602  0.5890 -0.2061
 6203TIP3    H140024   0.624   0.399   6.435 -0.7203  1.8023 -0.2420
 6203TIP3    H240025   0.512   0.304   6.472 -0.0857  0.8860 -0.6469
 6204TIP3   OH240026   1.188   3.115  14.433  0.7187 -0.0222 -0.2201
 6204TIP3    H140027   1.182   3.025  14.401  0.0689 -1.2358  2.8754
 6204TIP3    H240028   1.221   3.105  14.523  4.9111  3.1850 -1.0990
 6205TIP3   OH240029   4.423   2.630   2.068 -0.3704  0.2010 -0.2846
 6205TIP3    H140030   4.332   2.653   2.049 -0.7438  0.2784  1.4288
 6205TIP3    H240031   4.470   2.713   2.067 -0.8362  0.5192  1.3299
 6206TIP3   OH240032   3.093   5.447  11.905 -0.1832 -0.5566  0.4495
 6206TIP3    H140033   3.186   5.442  11.884 -0.6103 -1.8201 -1.3985
 6206TIP3    H240034   3.079   5.378  11.969  0.2556  0.0821  1.2512
 6207TIP3   OH240035   3.847   5.375  16.113  0.1969  0.1270  0.7943
 6207TIP3    H140036   3.812   5.317  16.046 -0.0691  0.8373  0.3092
 6207TIP3    H240037   3.789   5.451  16.113  0.3332  0.2464  1.6657
 6208TIP3   OH240038   2.226   3.674  14.651 -0.8614  0.2207 -0.5662
 6208TIP3    H140039   2.187   3.758  14.676 -0.1025  1.0283 -1.9628
 6208TIP3    H240040   2.170   3.641  14.580 -2.3772 -1.5257  1.3096
 6209TIP3   OH240041   1.682   0.605   3.593 -0.5058  0.2737  0.6477
 6209TIP3    H140042   1.638   0.688   3.612 -2.9071 -0.5799 -0.7363
 6209TIP3    H240043   1.618   0.538   3.619  0.7463 -1.1073  0.2679
 6210TIP3   OH240044   2.302   4.531  10.924  0.2148 -0.0603 -0.4270
 6210TIP3    H140045   2.255   4.466  10.976 -1.4158 -0.6688 -2.5485
 6210TIP3    H240046   2.359   4.480  10.867  0.0538  0.4457 -1.0483
 6211TIP3   OH240047   5.039   0.614   3.984 -0.4329  0.4995 -0.4065
 6211TIP3    H140048   5.023   0.600   4.077  1.7881 -3.2052 -0.3654
 6211TIP3    H240049   4.983   0.549   3.941 -1.0790  1.8449 -1.6582
 6212TIP3   OH240050   0.492   5.392  12.576  0.2338 -0.1607  0.0376
 6212TIP3    H140051   0.558   5.358  12.516  0.5283 -0.7661  0.6867
 6212TIP3    H240052   0.450   5.314  12.612 -0.1796  0.2027  0.3516
 6213TIP3   OH240053   2.178   1.782   2.903 -0.7500  0.1261  0.1071
 6213TIP3    H140054   2.172   1.878   2.900 -0.5603  0.1867  1.2242
 6213TIP3    H240055   2.087   1.753   2.908 -0.7719  0.3360  1.3298
 6214TIP3   OH240056   2.937   1.198   2.999  0.0999  0.8258 -0.2780
 6214TIP3    H140057   2.871   1.155   2.944  1.1839 -1.2612 -0.0381
 6214TIP3    H240058   2.887   1.232   3.074 -0.8841  0.5586 -0.7905
 6215TIP3   OH240059   0.118   2.255  12.816 -0.2186  0.4172  0.0001
 6215TIP3    H140060   0.118   2.350  12.829  0.3709  0.6027 -1.2387
 6215TIP3    H240061   0.043   2.224  12.868  0.9404  1.2579  2.3374
 6216TIP3   OH240062   4.447   0.060   3.640  0.1966 -0.0157 -0.3506
 6216TIP3    H140063   4.425   0.059   3.547  0.0878  0.4887 -0.3283
 6216TIP3    H240064   4.532   0.103   3.645  0.1086  0.1425 -0.1961
 6217TIP3   OH240065   3.375   3.804  12.315  0.6293  0.0229 -0.4620
 6217TIP3    H140066   3.318   3.756  12.254  1.2839 -0.8440 -0.4009
 6217TIP3    H240067   3.326   3.884  12.334 -0.5562 -0.6735 -0.4522
 6218TIP3   OH240068   1.806   6.475  12.469  0.6348  0.1427 -0.2736
 6218TIP3    H140069   1.780   6.454  12.559 -0.9170  2.0780 -0.1846
 6218TIP3    H240070   1.823   6.390  12.428  1.0765 -0.8023  1.7472
 6219TIP3   OH240071   2.908   4.668   2.330 -0.3647 -0.3645  0.6303
 6219TIP3    H140072   2.875   4.736   2.389 -0.1486  0.1001  0.2285
 6219TIP3    H240073   2.839   4.656   2.266 -0.2327 -0.2223  0.4598
 6220TIP3   OH240074   6.728   5.104   4.628  0.1592 -0.1600 -0.3815
 6220TIP3    H140075   6.683   5.138   4.706 -0.9277 -0.2389 -0.9612
 6220TIP3    H240076   6.683   5.022   4.609  2.7059 -1.9896  0.9732
 6221TIP3   OH240077   6.205   5.231  11.079  0.3744 -0.4335 -0.1105
 6221TIP3    H140078   6.280   5.257  11.025  0.2253 -1.6412 -0.9448
 6221TIP3    H240079   6.209   5.289  11.155  2.6775 -1.0142  0.2980
 6222TIP3   OH240080   2.214   5.983   5.761  0.3118  0.1445  0.3165
 6222TIP3    H140081   2.295   5.933   5.751  0.4076  0.3227  0.1865
 6222TIP3    H240082   2.192   6.011   5.672  0.6379  0.9149  0.4645
 6223TIP3   OH240083   4.705   4.919   1.809 -0.6073  0.1493  0.2963
 6223TIP3    H140084   4.797   4.892   1.817 -0.5476  0.6959  1.6376
 6223TIP3    H240085   4.657   4.837   1.799 -0.3056 -0.4795  3.1632
 6224TIP3   OH240086   1.707   3.319  13.833 -0.3778 -0.1914 -0.6478
 6224TIP3    H140087   1.619   3.310  13.796 -0.1688 -2.4639 -0.7289
 6224TIP3    H240088   1.759   3.356  13.761 -0.6694 -1.5908 -1.6209
 6225TIP3   OH240089   3.825   2.155  12.217 -0.0981  0.0472  0.5458
 6225TIP3    H140090   3.819   2.185  12.307  0.2673  2.3037 -0.1160
 6225TIP3    H240091   3.828   2.060  12.223 -0.3170  0.1387  2.8799
 6226TIP3   OH240092   3.087   5.582  11.456 -0.3241 -0.3195  0.5383
 6226TIP3    H140093   3.031   5.568  11.379  0.0514  1.2891 -0.0730
 6226TIP3    H240094   3.026   5.601  11.527 -0.6267 -0.2360  0.2600
 6227TIP3   OH240095   2.171   5.196   1.597 -0.0983  0.2479 -0.0244
 6227TIP3    H140096   2.205   5.279   1.563 -0.5398  0.7374  0.6934
 6227TIP3    H240097   2.109   5.222   1.666  0.2507 -0.6934  0.6676
 6228TIP3   OH240098   0.317   4.775  15.884 -0.3114  0.1618 -0.5160
 6228TIP3    H140099   0.298   4.682  15.891 -0.0707  0.1469 -0.0059
 6228TIP3    H240100   0.334   4.803  15.974 -0.9671  0.8269 -0.5804
 6229TIP3   OH240101   2.933   4.245   6.021  0.4360 -0.0572  0.2538
 6229TIP3    H140102   2.983   4.318   6.057  0.2362  0.5696 -0.6916
 6229TIP3    H240103   2.859   4.287   5.976 -0.0823 -0.8822  0.3102
 6230TIP3   OH240104   5.752   2.496   1.249 -0.4057 -0.2945  0.0570
 6230TIP3    H140105   5.712   2.418   1.211 -0.4098 -0.5009  0.4715
 6230TIP3    H240106   5.692   2.521   1.320 -0.4859  0.1786 -0.1770
 6231TIP3   OH240107   2.748   4.067   1.218  0.2069 -0.1171 -0.1018
 6231TIP3    H140108   2.721   4.141   1.273  0.5169 -1.7271  2.3817
 6231TIP3    H240109   2.666   4.030   1.187 -0.0596 -0.0309  0.4835
 6232TIP3   OH240110   2.623   4.728  11.033  0.9823 -0.1329  0.1854
 6232TIP3    H140111   2.655   4.779  10.958  0.2813 -0.5908 -0.4460
 6232TIP3    H240112   2.528   4.726  11.020  0.9107 -0.6818  0.7926
 6233TIP3   OH240113   1.776   0.940  11.662 -0.3340 -0.0539  0.5701
 6233TIP3    H140114   1.707   0.874  11.668 -1.0044  0.6305  0.5647
 6233TIP3    H240115   1.784   0.958  11.568 -0.2450 -0.0379  0.5806
 6234TIP3   OH240116   0.279   4.293   1.099 -0.3733  0.4572  0.0818
 6234TIP3    H140117   0.268   4.305   1.004 -1.0033  1.9442  0.3079
 6234TIP3    H240118   0.303   4.201   1.109  1.5598  0.7110 -1.6716
 6235TIP3   OH240119   0.592   3.578  13.262  0.4434 -0.0595  0.0934
 6235TIP3    H140120   0.674   3.574  13.311  0.8667  1.6372 -0.4116
 6235TIP3    H240121   0.587   3.668  13.230 -2.7290  0.5553  1.9572
 6236TIP3   OH240122   6.505   4.540   3.273  0.4314 -0.4726 -0.5969
 6236TIP3    H140123   6.521   4.447   3.292  0.3217 -0.4856 -0.5667
 6236TIP3    H240124   6.583   4.568   3.226  0.7891 -0.3977  0.0266
 6237TIP3   OH240125   1.568   4.944   0.437 -0.2486 -0.3419  0.8337
 6237TIP3    H140126   1.564   4.849   0.436  2.6446 -0.5726  0.9754
 6237TIP3    H240127   1.532   4.969   0.522 -3.3401 -1.0157 -0.1454
 6238TIP3   OH240128   3.473   3.752  14.335 -0.1459  0.3396  0.0431
 6238TIP3    H140129   3.402   3.689  14.345 -0.6381  0.9283  0.2967
 6238TIP3    H240130   3.436   3.822  14.280  0.4731  0.2940 -0.4479
 6239TIP3   OH240131   0.484   6.416  16.419  0.4327 -0.4667  0.3605
 6239TIP3    H140132   0.460   6.324  16.427  2.3984 -0.9821  0.7448
 6239TIP3    H240133   0.425   6.450  16.351  0.3423 -2.2293 -0.4991
 6240TIP3   OH240134   0.634   2.673  11.135 -0.4334 -0.6774  0.4675
 6240TIP3    H140135   0.727   2.656  11.121 -0.7490 -2.1749 -0.0346
 6240TIP3    H240136   0.598   2.681  11.046 -0.7534  0.0982  0.6636
 6241TIP3   OH240137   2.396   5.885   5.336 -0.4174 -0.0929 -0.3978
 6241TIP3    H140138   2.441   5.822   5.393  0.8300  1.0188 -0.1016
 6241TIP3    H240139   2.380   5.837   5.255  1.0022 -0.6274 -0.3787
 6242TIP3   OH240140   1.526   6.681  15.527  0.2327 -0.0189 -0.5600
 6242TIP3    H140141   1.570   6.596  15.536  0.0565 -0.0632 -0.0861
 6242TIP3    H240142   1.464   6.684  15.600 -0.6670 -0.0200 -1.2928
 6243TIP3   OH240143   1.361   1.052   5.024 -0.2408  0.1485 -0.4977
 6243TIP3    H140144   1.410   1.109   5.083  0.4754 -0.2841 -0.6621
 6243TIP3    H240145   1.295   1.011   5.080 -0.8850  1.2601 -0.4137
 6244TIP3   OH240146   6.596   4.938  16.897 -0.0097  0.3017  0.8938
 6244TIP3    H140147   6.591   4.900  16.984 -0.6267 -2.4980 -0.2574
 6244TIP3    H240148   6.555   4.873  16.840  1.3788  1.5028 -1.6356
 6245TIP3   OH240149   5.264   1.053  15.528  0.1129  0.7813  0.5051
 6245TIP3    H140150   5.293   1.143  15.541  0.7513  0.3729  2.1248
 6245TIP3    H240151   5.188   1.045  15.586 -0.2601  0.4140 -0.0283
 6246TIP3   OH240152   4.815   0.373   2.958 -0.5138  0.1564 -0.1640
 6246TIP3    H140153   4.781   0.290   2.992 -1.3811  1.6851  3.0518
 6246TIP3    H240154   4.753   0.398   2.890 -0.3050 -1.7189 -1.1185
 6247TIP3   OH240155   3.419   3.977   1.813  0.3099 -0.1111 -0.8211
 6247TIP3    H140156   3.478   4.047   1.840 -1.2699  0.6430  0.9388
 6247TIP3    H240157   3.459   3.897   1.847  0.5379  0.3410 -0.0038
 6248TIP3   OH240158   5.723   0.575  16.349  0.2526  0.0652  0.3566
 6248TIP3    H140159   5.780   0.507  16.311 -0.2983 -0.2324  0.0471
 6248TIP3    H240160   5.676   0.530  16.419 -0.9126 -0.1677 -0.5531
 6249TIP3   OH240161   6.546   1.354   1.371 -0.4315  0.8489 -0.7216
 6249TIP3    H140162   6.458   1.389   1.360 -1.5297 -2.0414 -2.2169
 6249TIP3    H240163   6.604   1.422   1.335 -1.9356  3.0121  0.7558
 6250TIP3   OH240164   6.067   2.637   4.758  0.4681 -0.7705  0.3994
 6250TIP3    H140165   6.085   2.555   4.804 -1.8294 -0.9119  1.1236
 6250TIP3    H240166   6.114   2.703   4.809  0.8464 -1.3819  0.8672
 6251TIP3   OH240167   4.250   6.539   0.891 -0.0656  0.0936 -0.0474
 6251TIP3    H140168   4.231   6.586   0.971  2.0088  0.6486  0.1656
 6251TIP3    H240169   4.219   6.597   0.821  1.2198  1.1880  0.2594
 6252TIP3   OH240170   6.758   2.982   2.749 -0.3189  0.0394 -0.2818
 6252TIP3    H140171   6.849   2.954   2.759 -0.1901 -0.3869 -2.2235
 6252TIP3    H240172   6.727   2.995   2.838  0.9791 -1.9373  0.5280
 6253TIP3   OH240173   3.637   5.097   0.735  0.0444 -0.4895  0.7865
 6253TIP3    H140174   3.694   5.173   0.726  1.4340 -1.4813  0.9947
 6253TIP3    H240175   3.652   5.045   0.656 -0.8367 -0.6067  0.6800
 6254TIP3   OH240176   3.015   3.317   3.955  0.2043 -0.5157 -0.5770
 6254TIP3    H140177   3.052   3.232   3.930 -1.0912 -1.1389 -0.4512
 6254TIP3    H240178   3.036   3.326   4.048  0.9556 -0.3599 -0.7547
 6255TIP3   OH240179   3.302   6.098  13.755  0.0320 -0.8637  0.1226
 6255TIP3    H140180   3.395   6.085  13.734 -0.7378 -3.2854 -2.4615
 6255TIP3    H240181   3.292   6.193  13.761  2.2455 -0.3713 -2.1235
 6256TIP3   OH240182   4.074   2.498   0.159  0.7304 -0.2000 -0.0373
 6256TIP3    H140183   3.979   2.499   0.151  0.7440 -0.9726 -0.4566
 6256TIP3    H240184   4.096   2.583   0.196 -0.3005 -0.7719  2.1240
 6257TIP3   OH240185   0.561   3.516   1.277 -0.4277 -0.1805  0.3824
 6257TIP3    H140186   0.583   3.584   1.341 -0.5122 -0.5414  0.8021
 6257TIP3    H240187   0.518   3.448   1.329 -0.2300 -0.6111 -0.0122
 6258TIP3   OH240188   5.966   2.868  11.881  0.5028  0.0590  0.0027
 6258TIP3    H140189   5.888   2.909  11.846  0.5626  0.9183  0.8557
 6258TIP3    H240190   6.024   2.940  11.904  0.6812 -0.4830  1.3660
 6259TIP3   OH240191   0.812   1.327   2.161 -0.4790 -0.6530 -0.0378
 6259TIP3    H140192   0.906   1.340   2.177 -0.4832 -1.3380  0.5695
 6259TIP3    H240193   0.771   1.409   2.188 -0.1149 -0.5507  0.2051
 6260TIP3   OH240194   1.400   5.591  13.679  0.4710 -0.5959  0.0859
 6260TIP3    H140195   1.367   5.550  13.759 -0.3238 -1.6387 -0.7510
 6260TIP3    H240196   1.494   5.601  13.695  0.1490  0.4045  1.6329
 6261TIP3   OH240197   3.988   4.345  13.993 -0.2300  0.3027 -0.4615
 6261TIP3    H140198   4.059   4.296  14.034  0.0271  0.0699 -1.1696
 6261TIP3    H240199   4.020   4.364  13.905 -0.8558  0.6028 -0.6282
 6262TIP3   OH240200   2.073   4.453  16.681  0.2981  0.8688 -0.4532
 6262TIP3    H140201   1.981   4.459  16.653  0.4606 -1.7454 -1.8990
 6262TIP3    H240202   2.121   4.504  16.615 -0.0561  1.9875  0.1327
 6263TIP3   OH240203   6.361   2.381   5.026  0.1776  0.0180 -0.2360
 6263TIP3    H140204   6.454   2.398   5.039  0.0341  0.1149  0.7366
 6263TIP3    H240205   6.321   2.397   5.111 -0.6586 -0.5191 -0.5074
 6264TIP3   OH240206   2.871   5.074  12.724  0.4086  0.3571 -0.2847
 6264TIP3    H140207   2.798   5.134  12.734  0.2655  1.0111 -3.7932
 6264TIP3    H240208   2.831   4.988  12.710  0.2414  0.6363 -1.7277
 6265TIP3   OH240209   5.201   3.055  14.536  0.7401  0.8636  0.0692
 6265TIP3    H140210   5.249   2.979  14.505  0.3898  1.1277 -1.1820
 6265TIP3    H240211   5.131   3.020  14.590  0.1924  0.2283 -1.0129
 6266TIP3   OH240212   0.391   4.301   1.542 -0.0286 -0.0231 -0.3220
 6266TIP3    H140213   0.347   4.316   1.458 -0.8630  1.4519  0.3390
 6266TIP3    H240214   0.365   4.376   1.596  1.6995 -0.1520  0.7656
 6267TIP3   OH240215   5.663   1.107  16.628 -0.8114 -0.3596  0.3938
 6267TIP3    H140216   5.599   1.178  16.630 -0.6003 -0.1347 -0.4493
 6267TIP3    H240217   5.672   1.085  16.535 -1.3657 -1.9481  0.6898
 6268TIP3   OH240218   6.526   0.517  11.661 -0.0403  0.0781 -0.0232
 6268TIP3    H140219   6.612   0.475  11.657 -0.9454 -2.0639  1.3184
 6268TIP3    H240220   6.480   0.485  11.584 -0.2653 -0.3793  0.2896
 6269TIP3   OH240221   4.865   6.503   1.848  0.3405 -0.1544 -0.4380
 6269TIP3    H140222   4.821   6.529   1.767 -0.3610  0.5597  0.1566
 6269TIP3    H240223   4.824   6.557   1.916 -1.4528 -3.0151  0.9416
 6270TIP3   OH240224   0.506   0.605  13.519  0.1128  0.0566 -0.2117
 6270TIP3    H140225   0.588   0.653  13.527  0.4256 -0.4546 -0.2689
 6270TIP3    H240226   0.438   0.671  13.530  0.5306  0.5837 -0.6990
 6271TIP3   OH240227   1.820   5.762   4.038  0.6867 -0.0133 -0.1539
 6271TIP3    H140228   1.823   5.791   3.947 -0.8196  1.5658  0.2299
 6271TIP3    H240229   1.734   5.791   4.069  0.9301 -1.0431  1.6067
 6272TIP3   OH240230   2.124   6.664  12.596  0.7559 -0.7915 -0.6422
 6272TIP3    H140231   2.156   6.753  12.601 -1.0438  0.1398 -3.2139
 6272TIP3    H240232   2.032   6.669  12.623  0.6164 -1.8425 -0.8387
 6273TIP3   OH240233   0.631   3.048  14.391  0.5547  0.4539 -0.8483
 6273TIP3    H140234   0.678   3.090  14.318 -1.3727 -0.5421 -2.7774
 6273TIP3    H240235   0.560   3.109  14.412  1.5422  1.0960  0.7931
 6274TIP3   OH240236   4.038   5.120   4.556  0.1691 -0.1971 -0.2910
 6274TIP3    H140237   4.088   5.175   4.617 -0.7118  0.8302 -0.4596
 6274TIP3    H240238   4.068   5.147   4.469 -0.0389 -0.2065 -0.3663
 6275TIP3   OH240239   4.808   1.720  14.281 -0.0620  0.1613  1.0005
 6275TIP3    H140240   4.761   1.637  14.281 -0.7852  0.5272  2.5114
 6275TIP3    H240241   4.831   1.735  14.373 -1.2299  2.2987  1.0232
 6276TIP3   OH240242   0.734   0.771  14.652 -0.0914  0.3896  0.0516
 6276TIP3    H140243   0.760   0.818  14.731  0.1042  2.1924 -1.0344
 6276TIP3    H240244   0.670   0.706  14.683  1.6772 -0.5424  1.9893
 6277TIP3   OH240245   4.321   2.860  15.856  0.0240 -0.4027  0.0091
 6277TIP3    H140246   4.343   2.944  15.896 -0.5139 -1.1247  1.8900
 6277TIP3    H240247   4.240   2.833  15.900 -0.9344 -0.9803 -1.9810
 6278TIP3   OH240248   3.586   1.809  16.453  0.8456 -0.1120  0.4497
 6278TIP3    H140249   3.581   1.867  16.376 -1.3806 -1.9153 -0.8920
 6278TIP3    H240250   3.583   1.869  16.528 -0.4742  1.5703 -0.8621
 6279TIP3   OH240251   3.776   6.762  14.803 -0.0629 -0.3409 -0.2638
 6279TIP3    H140252   3.734   6.705  14.739 -0.0543 -0.4798 -0.1485
 6279TIP3    H240253   3.830   6.703  14.855 -0.2764 -0.2689  0.0406
 6280TIP3   OH240254   3.786   3.585   5.871  0.0936  0.4056 -0.4393
 6280TIP3    H140255   3.788   3.549   5.783  0.4103  2.0469 -1.1362
 6280TIP3    H240256   3.731   3.663   5.864  0.9079  1.0952  0.5951
 6281TIP3   OH240257   2.951   3.477  17.210 -0.0144 -0.4153 -0.1226
 6281TIP3    H140258   2.874   3.446  17.258  0.2700 -0.2585  0.4348
 6281TIP3    H240259   3.026   3.449  17.263  0.2904 -0.0059 -0.3293
 6282TIP3   OH240260   1.406   0.484   5.602 -0.0102 -0.1975  0.2310
 6282TIP3    H140261   1.338   0.420   5.583 -0.6431 -0.1161  1.9878
 6282TIP3    H240262   1.466   0.479   5.528 -2.2516  0.2058 -1.7341
 6283TIP3   OH240263   6.384   6.701   5.570  0.4501 -0.0056  0.3008
 6283TIP3    H140264   6.314   6.727   5.630  1.2719 -0.7423  1.6281
 6283TIP3    H240265   6.381   6.606   5.570  0.4286 -0.0176 -0.9043
 6284TIP3   OH240266   3.494   1.093  12.610  0.5611  0.0344 -0.2978
 6284TIP3    H140267   3.498   1.178  12.567  0.1267  0.8593  1.1974
 6284TIP3    H240268   3.477   1.114  12.702 -0.2185 -1.7033 -0.0100
 6285TIP3   OH240269   4.272   3.397   3.810  0.2362 -0.0064 -0.1430
 6285TIP3    H140270   4.329   3.463   3.771 -2.0571  1.1161 -1.7902
 6285TIP3    H240271   4.221   3.362   3.737 -0.7424 -1.4269  1.1566
 6286TIP3   OH240272   6.605   3.179   1.395 -0.4075  0.0069  0.1218
 6286TIP3    H140273   6.646   3.166   1.481  0.1715  0.2436 -0.1120
 6286TIP3    H240274   6.526   3.229   1.414 -0.1454  0.2945  0.4995
 6287TIP3   OH240275   0.173   5.824  14.721  0.3235  0.3914  0.4593
 6287TIP3    H140276   0.112   5.827  14.648 -0.6849 -0.1587  1.2468
 6287TIP3    H240277   0.256   5.855  14.685  0.6667 -2.5939 -1.6738
 6288TIP3   OH240278   2.133   6.704   1.582 -0.0574  0.8062  0.1035
 6288TIP3    H140279   2.131   6.637   1.651 -1.0789  0.2424 -0.4601
 6288TIP3    H240280   2.187   6.666   1.513 -1.1599  0.2687 -0.4880
 6289TIP3   OH240281   0.329   0.525   6.492 -0.2037  0.1994  0.1433
 6289TIP3    H140282   0.258   0.550   6.433  1.1791 -1.3095 -2.3676
 6289TIP3    H240283   0.292   0.455   6.545 -0.6799 -0.4736 -1.0312
 6290TIP3   OH240284   3.544   3.361   0.761 -0.3847  0.1896 -0.0404
 6290TIP3    H140285   3.557   3.447   0.720  0.6382 -0.6143 -1.5160
 6290TIP3    H240286   3.630   3.336   0.793 -0.7421 -0.1605  0.6754
 6291TIP3   OH240287   1.680   2.642  14.793  0.8294  0.4528 -0.2462
 6291TIP3    H140288   1.747   2.661  14.858 -0.3667  1.8411  0.6619
 6291TIP3    H240289   1.687   2.713  14.729 -1.4141  2.2435  1.2977
 6292TIP3   OH240290   3.454   1.153   0.698 -0.2596 -0.2100  0.0531
 6292TIP3    H140291   3.401   1.151   0.777 -0.1206  0.4690  0.1754
 6292TIP3    H240292   3.521   1.220   0.716 -0.2478 -0.0249 -0.6442
 6293TIP3   OH240293   1.928   2.203   2.428 -0.3564 -0.1575 -0.2292
 6293TIP3    H140294   1.851   2.148   2.414 -1.0700  0.9284 -0.6962
 6293TIP3    H240295   1.974   2.162   2.500  0.3742 -2.6932 -1.9976
 6294TIP3   OH240296   5.854   0.734   2.928 -0.7991 -0.3534 -0.4221
 6294TIP3    H140297   5.840   0.827   2.911 -4.3764 -0.9003 -1.2892
 6294TIP3    H240298   5.813   0.718   3.013 -0.0422 -1.1240 -0.1846
 6295TIP3   OH240299   5.287   2.592   2.028  0.2500  0.0280 -0.2963
 6295TIP3    H140300   5.250   2.530   2.090  1.0827 -1.0879 -0.8678
 6295TIP3    H240301   5.379   2.600   2.054 -0.3712  3.0718  1.3622
 6296TIP3   OH240302   0.025   1.267  10.767  0.0395  0.6939 -0.0710
 6296TIP3    H140303   0.085   1.264  10.693  1.0168  0.1958  0.7040
 6296TIP3    H240304  -0.055   1.308  10.733 -0.1168 -0.8984 -1.7870
 6297TIP3   OH240305   0.204   3.984  13.978 -0.1449 -0.1688 -0.2048
 6297TIP3    H140306   0.268   3.913  13.985 -0.6422 -0.5791  0.4525
 6297TIP3    H240307   0.127   3.942  13.939 -0.7565 -0.2293  1.0228
 6298TIP3   OH240308   4.859   2.318  12.337  0.3737 -0.1377 -0.3279
 6298TIP3    H140309   4.823   2.391  12.287  0.7929  0.2126 -0.1266
 6298TIP3    H240310   4.889   2.256  12.271 -1.9116 -1.1242 -0.5237
 6299TIP3   OH240311   4.658   1.214  12.235  0.2508  0.7340  0.7295
 6299TIP3    H140312   4.677   1.277  12.304 -1.8048  1.1425  0.9680
 6299TIP3    H240313   4.572   1.178  12.256 -0.6713  1.2042 -1.8064
 6300TIP3   OH240314   0.064   6.786  16.496  0.4689 -0.4426 -0.3469
 6300TIP3    H140315   0.059   6.693  16.474 -0.3172 -0.7391  1.0020
 6300TIP3    H240316  -0.026   6.811  16.516  0.8512  0.2709  0.5629
 6301TIP3   OH240317   1.821   2.177  13.158  0.0297  0.2295  0.2879
 6301TIP3    H140318   1.745   2.163  13.215  0.0182  2.2446  0.8275
 6301TIP3    H240319   1.823   2.271  13.143  0.9192 -0.0817 -1.8583
 6302TIP3   OH240320   2.031   0.630   5.275  0.2881  0.5793  0.6247
 6302TIP3    H140321   2.001   0.549   5.316  0.8042 -0.2693 -0.6082
 6302TIP3    H240322   2.037   0.609   5.182  2.7917  1.2480  0.5617
 6303TIP3   OH240323   0.159   6.253   2.891  0.0722  0.2230  0.8657
 6303TIP3    H140324   0.215   6.181   2.918  2.4296  1.4449 -0.4751
 6303TIP3    H240325   0.098   6.214   2.829  0.6576 -0.8079  0.9150
 6304TIP3   OH240326   1.967   2.818  14.024  0.3654  0.1047 -0.0229
 6304TIP3    H140327   1.958   2.751  13.956  0.3750 -0.7409  0.7837
 6304TIP3    H240328   1.897   2.880  14.007 -0.3049 -0.6805 -0.1717
 6305TIP3   OH240329   5.698   0.616   2.271 -0.4448  0.2403  0.0276
 6305TIP3    H140330   5.785   0.582   2.291  0.4067  2.0568 -0.3424
 6305TIP3    H240331   5.671   0.569   2.192 -0.3937 -1.2686  0.8712
 6306TIP3   OH240332   1.535   6.143   4.232  0.4827 -0.6788 -0.4198
 6306TIP3    H140333   1.622   6.142   4.190  0.6998  0.2359 -0.0136
 6306TIP3    H240334   1.474   6.133   4.159  0.9381 -1.9770 -0.6482
 6307TIP3   OH240335   1.896   3.811   5.344  0.1549  0.5689  0.1620
 6307TIP3    H140336   1.870   3.885   5.289  1.4941  1.1228  0.2332
 6307TIP3    H240337   1.990   3.802   5.330 -0.1500 -1.8645 -0.6846
 6308TIP3   OH240338   3.001   5.886   1.768  0.2631 -0.2416  0.5996
 6308TIP3    H140339   3.081   5.890   1.716  0.2997  0.7792  0.7177
 6308TIP3    H240340   3.031   5.892   1.859  0.1110 -0.7885  0.6908
 6309TIP3   OH240341   3.211   0.879   2.887  0.5722 -0.2663  0.0918
 6309TIP3    H140342   3.142   0.814   2.899 -0.1564  0.7367  1.6112
 6309TIP3    H240343   3.193   0.946   2.953  1.7044  1.1392 -0.9600
 6310TIP3   OH240344   3.790   5.777   0.236 -0.6184  0.2075  0.5962
 6310TIP3    H140345   3.862   5.823   0.279 -1.1268  0.4147  1.2551
 6310TIP3    H240346   3.721   5.843   0.228  0.0038  0.6338 -2.0364
 6311TIP3   OH240347   3.513   0.587  13.393 -0.2732  0.3707 -0.1871
 6311TIP3    H140348   3.597   0.606  13.434 -0.7490 -0.1343  1.0840
 6311TIP3    H240349   3.518   0.628  13.307  1.1828  0.5358 -0.0479
 6312TIP3   OH240350   1.830   3.287   0.508  0.1259  0.5074 -0.4273
 6312TIP3    H140351   1.816   3.365   0.455 -2.0258 -0.4474 -1.3705
 6312TIP3    H240352   1.816   3.316   0.598  1.2440  1.5740 -0.5624
 6313TIP3   OH240353   0.229   1.517  16.928  0.0807 -0.2294 -0.2576
 6313TIP3    H140354   0.206   1.482  17.014  1.3035 -0.2031  0.0999
 6313TIP3    H240355   0.241   1.439  16.873 -2.8178 -0.2458 -1.0544
 6314TIP3   OH240356   3.908   0.279   3.445 -0.1953 -0.0266  0.1175
 6314TIP3    H140357   3.826   0.242   3.478 -0.6463  1.0183  0.2129
 6314TIP3    H240358   3.912   0.251   3.353  0.0464 -1.2411  0.4911
 6315TIP3   OH240359   3.410   3.547   3.094 -0.0704  0.3658  0.1497
 6315TIP3    H140360   3.397   3.458   3.060 -0.4618 -0.6734  2.8010
 6315TIP3    H240361   3.501   3.568   3.071  0.1045 -0.8159 -0.3079
 6316TIP3   OH240362   5.351   6.665   3.513  0.1941 -0.5925 -0.1421
 6316TIP3    H140363   5.281   6.690   3.573  0.7298 -1.5331  0.9112
 6316TIP3    H240364   5.349   6.732   3.444 -1.5605 -0.4602 -0.0107
 6317TIP3   OH240365   1.784   4.219  13.209 -0.6592  0.2318  0.5653
 6317TIP3    H140366   1.821   4.132  13.227 -0.2589  0.4682  0.9124
 6317TIP3    H240367   1.859   4.271  13.179 -1.2122 -0.0059 -1.3313
 6318TIP3   OH240368   1.789   2.169  14.576  0.3102 -0.3417 -0.3854
 6318TIP3    H140369   1.836   2.243  14.613  0.9664 -1.7016  1.6844
 6318TIP3    H240370   1.856   2.116  14.533  0.3468 -1.1527  0.6318
 6319TIP3   OH240371   1.282   6.157  12.264  0.3146 -0.2436 -0.0539
 6319TIP3    H140372   1.302   6.108  12.344 -0.1568  1.0963  0.9136
 6319TIP3    H240373   1.197   6.198  12.282  0.0555 -0.1724 -1.3741
 6320TIP3   OH240374   3.186   5.171  11.371 -0.1948 -0.6344  0.1250
 6320TIP3    H140375   3.245   5.236  11.408  0.6838  0.5104 -2.9673
 6320TIP3    H240376   3.227   5.087  11.390 -0.1020 -0.1783  2.1243
 6321TIP3   OH240377   0.264   6.367  10.937  0.3052 -0.1784 -0.3799
 6321TIP3    H140378   0.202   6.304  10.973 -0.9746 -0.5765 -3.0035
 6321TIP3    H240379   0.210   6.442  10.911  1.8142  2.2672  2.8782
 6322TIP3   OH240380   5.851   5.093  11.656  0.2969  0.0749  0.1676
 6322TIP3    H140381   5.826   5.120  11.744  1.9209  0.1477  0.6543
 6322TIP3    H240382   5.934   5.139  11.640  1.5832 -2.2092 -0.1792
 6323TIP3   OH240383   5.258   4.711  15.019 -0.3834  0.3261  0.9145
 6323TIP3    H140384   5.163   4.711  15.024 -0.3961  0.4863  0.7078
 6323TIP3    H240385   5.283   4.802  15.040 -0.3095  0.4278  0.3855
 6324TIP3   OH240386   5.715   3.682  12.213 -0.5919 -0.7755 -0.0015
 6324TIP3    H140387   5.761   3.750  12.261  0.4088 -1.5677  0.1896
 6324TIP3    H240388   5.656   3.643  12.278 -1.9681  0.5859 -0.3783
 6325TIP3   OH240389   2.072   5.398   0.278 -0.0770 -0.1473  0.0187
 6325TIP3    H140390   2.064   5.487   0.313  0.9848  0.6084 -1.5544
 6325TIP3    H240391   1.990   5.355   0.302  0.2647  0.5077  2.7599
 6326TIP3   OH240392   4.733   2.672   5.814  0.2068 -0.3026  0.2401
 6326TIP3    H140393   4.809   2.619   5.835  0.5461  0.2629  0.4685
 6326TIP3    H240394   4.768   2.759   5.795 -0.4401  0.1512  1.0516
 6327TIP3   OH240395   6.120   5.218   1.413 -0.0516 -0.2607 -0.1891
 6327TIP3    H140396   6.039   5.221   1.463  0.7844  0.5572  1.2094
 6327TIP3    H240397   6.097   5.253   1.327 -0.7665  2.0506  0.8681
 6328TIP3   OH240398   2.892   3.942   1.733 -0.4263  0.3117 -0.5933
 6328TIP3    H140399   2.886   3.849   1.712 -0.6603 -0.2186  1.5660
 6328TIP3    H240400   2.984   3.955   1.757 -0.8047  0.0929  1.1501
 6329TIP3   OH240401   3.547   1.217   0.104 -0.0810 -0.0637  0.2823
 6329TIP3    H140402   3.575   1.257   0.022  0.1398 -1.8463 -0.5465
 6329TIP3    H240403   3.592   1.133   0.107 -1.2970 -0.7151  1.4796
 6330TIP3   OH240404   2.973   0.742   2.067  1.2239  0.2422 -0.6026
 6330TIP3    H140405   3.057   0.699   2.050  2.3373  1.4757  1.3733
 6330TIP3    H240406   2.946   0.708   2.152 -0.4952 -0.3948 -1.3703
 6331TIP3   OH240407   4.527   3.413   4.626  0.2172  0.6454 -0.0946
 6331TIP3    H140408   4.600   3.353   4.637  0.3272  0.5246 -1.3448
 6331TIP3    H240409   4.545   3.459   4.544 -2.0724 -0.8637 -1.5860
 6332TIP3   OH240410   2.125   4.373  14.254  0.1128  0.6897  0.2528
 6332TIP3    H140411   2.062   4.360  14.183  1.1233 -1.1782 -0.3797
 6332TIP3    H240412   2.172   4.453  14.231 -0.3192  0.7102 -0.5748
 6333TIP3   OH240413   1.057   1.662   3.006 -0.4509 -0.4430  0.9921
 6333TIP3    H140414   0.970   1.695   2.985  0.7940  2.4417 -0.0594
 6333TIP3    H240415   1.066   1.676   3.100  0.2465  3.0709  0.5132
 6334TIP3   OH240416   0.373   4.180   4.612  0.4833  0.1667  0.0456
 6334TIP3    H140417   0.346   4.164   4.703  1.0548  1.6814  0.5183
 6334TIP3    H240418   0.367   4.095   4.570 -2.5244 -0.0896  0.7578
 6335TIP3   OH240419   0.198   0.261   5.579 -0.1851  0.1191  0.4459
 6335TIP3    H140420   0.155   0.315   5.645  0.6148  0.7227  0.4858
 6335TIP3    H240421   0.291   0.264   5.601  0.3974  2.0857 -1.8776
 6336TIP3   OH240422   2.055   0.302  16.330  0.0667 -0.3921 -0.0846
 6336TIP3    H140423   2.088   0.351  16.255 -1.7342 -0.4570 -0.9782
 6336TIP3    H240424   2.040   0.214  16.295 -1.1640 -0.3159  0.2094
 6337TIP3   OH240425   0.774   3.038   0.297  0.4576 -0.0533  0.1388
 6337TIP3    H140426   0.817   3.089   0.228  1.1648  0.8443  1.2094
 6337TIP3    H240427   0.681   3.041   0.274  0.6238  0.6796 -0.4890
 6338TIP3   OH240428   2.169   3.355  14.748  0.0926 -0.0883 -0.5721
 6338TIP3    H140429   2.106   3.295  14.788  0.2729 -1.2087 -1.8653
 6338TIP3    H240430   2.248   3.301  14.735  0.4453  0.5763 -1.2622
 6339TIP3   OH240431   4.598   4.575   5.362 -0.7468 -0.0279 -0.4458
 6339TIP3    H140432   4.546   4.580   5.282 -1.0041 -1.4294 -0.3883
 6339TIP3    H240433   4.656   4.500   5.348  0.4322  0.7639 -0.0139
 6340TIP3   OH240434   3.807   0.627   4.103  0.0943 -0.2938 -0.1609
 6340TIP3    H140435   3.845   0.711   4.076  0.2464 -0.4105 -0.3061
 6340TIP3    H240436   3.882   0.572   4.125 -0.0457  0.1477  1.5664
 6341TIP3   OH240437   0.454   5.342  13.729  0.0822  0.2750 -0.0869
 6341TIP3    H140438   0.453   5.436  13.744  0.3139 -0.1145  3.2107
 6341TIP3    H240439   0.399   5.328  13.652 -1.4652  2.9396  0.4439
 6342TIP3   OH240440   3.652   4.170   3.888 -0.1164  0.4031 -0.1160
 6342TIP3    H140441   3.635   4.091   3.838  2.1177 -1.6749  2.1614
 6342TIP3    H240442   3.628   4.147   3.978 -0.9588  2.9119  0.3806
 6343TIP3   OH240443   5.191   4.159   4.387  0.0854 -0.1225 -0.4308
 6343TIP3    H140444   5.207   4.154   4.293  4.1733  1.9023 -0.0832
 6343TIP3    H240445   5.269   4.120   4.427 -1.3016 -0.4755  2.1522
 6344TIP3   OH240446   2.249   2.921  13.755  0.0154 -0.6447 -0.2885
 6344TIP3    H140447   2.263   2.827  13.740 -0.4253 -0.4273 -2.2726
 6344TIP3    H240448   2.156   2.935  13.737 -0.1257  0.0308  0.8903
 6345TIP3   OH240449   1.406   1.882  16.049  0.1354 -1.0741  0.5082
 6345TIP3    H140450   1.319   1.891  16.010 -0.4602  1.1986  2.1330
 6345TIP3    H240451   1.466   1.881  15.974 -1.0760  1.0322 -0.5830
 6346TIP3   OH240452   3.507   2.441   2.287 -0.5335 -0.3327  0.4219
 6346TIP3    H140453   3.578   2.464   2.347  1.3437 -0.7303 -1.5183
 6346TIP3    H240454   3.535   2.358   2.247 -0.3301  1.1535 -2.8963
 6347TIP3   OH240455   2.819   3.978  15.527  0.1710  0.0416 -0.8082
 6347TIP3    H140456   2.794   3.984  15.619  1.7428 -0.6139 -0.3023
 6347TIP3    H240457   2.814   4.068  15.496  0.3104  0.3903  0.1269
 6348TIP3   OH240458   0.381   0.291   3.073  0.4330 -0.3682  0.3272
 6348TIP3    H140459   0.432   0.305   2.993  1.9536  0.1750  1.3464
 6348TIP3    H240460   0.352   0.379   3.099  1.9153 -0.2124  1.5891
 6349TIP3   OH240461   1.769   0.003   4.736  0.1387 -0.0829 -0.1095
 6349TIP3    H140462   1.761   0.091   4.700 -0.6496  0.4603  1.3588
 6349TIP3    H240463   1.846   0.007   4.793  0.3691 -0.4779 -0.3862
 6350TIP3   OH240464   1.856   0.686  13.989  0.1301  0.1412  0.4199
 6350TIP3    H140465   1.805   0.755  14.032 -0.8906  0.2171 -0.8538
 6350TIP3    H240466   1.946   0.701  14.018 -0.0751  1.9940  0.1917
 6351TIP3   OH240467   6.037   5.553   4.158 -0.2950 -0.0646  0.0610
 6351TIP3    H140468   6.099   5.581   4.091  0.1829  0.1102  0.5685
 6351TIP3    H240469   5.986   5.631   4.179  1.1600  0.5272  1.6087
 6352TIP3   OH240470   6.572   0.720   3.564 -0.5205 -0.2575 -0.4160
 6352TIP3    H140471   6.598   0.631   3.588  0.0740 -0.3079 -1.1995
 6352TIP3    H240472   6.603   0.774   3.636 -2.2654 -0.8336  0.8552
 6353TIP3   OH240473   5.686   1.005  16.366  0.5511  0.0992 -0.1182
 6353TIP3    H140474   5.752   0.939  16.343  1.7823  1.7261 -1.5394
 6353TIP3    H240475   5.613   0.988  16.307  0.6149 -0.3061 -0.0872
 6354TIP3   OH240476   0.576   6.702   0.971  0.2112  0.0824  0.0580
 6354TIP3    H140477   0.517   6.752   1.028  0.3737  0.8432 -0.4280
 6354TIP3    H240478   0.549   6.726   0.882  0.8067 -0.1041 -0.1755
 6355TIP3   OH240479   3.795   1.605   5.130 -0.2521 -0.9012  0.0504
 6355TIP3    H140480   3.876   1.625   5.082 -0.8087 -2.2602 -1.5318
 6355TIP3    H240481   3.781   1.511   5.116 -1.3447 -0.9885  1.5158
 6356TIP3   OH240482   6.086   2.884  16.268  0.1216  0.3708  1.0135
 6356TIP3    H140483   6.181   2.873  16.257 -0.2269 -2.4201  0.0796
 6356TIP3    H240484   6.071   2.873  16.362  0.5741 -0.7068  0.9687
 6357TIP3   OH240485   2.177   4.851  16.276 -0.4367 -0.1702 -0.1196
 6357TIP3    H140486   2.272   4.849  16.267 -0.1825  0.3231  1.9330
 6357TIP3    H240487   2.155   4.773  16.326 -0.4769  1.9258  3.4996
 6358TIP3   OH240488   6.786   1.293   3.146 -0.3511 -0.4466 -0.3533
 6358TIP3    H140489   6.786   1.285   3.241 -0.5311 -0.5229 -0.3584
 6358TIP3    H240490   6.694   1.283   3.122 -0.3013 -0.4571 -0.5370
 6359TIP3   OH240491   1.884   3.314  16.442  0.2051 -0.1923  0.9310
 6359TIP3    H140492   1.847   3.382  16.498 -0.0092  0.8059 -0.3779
 6359TIP3    H240493   1.813   3.252  16.428  0.0910 -0.1436  1.2932
 6360TIP3   OH240494   2.526   5.749   2.583 -0.0665 -0.0967 -0.2534
 6360TIP3    H140495   2.621   5.753   2.592  0.2809 -1.0372 -2.7351
 6360TIP3    H240496   2.504   5.657   2.600 -0.5347  0.0826  0.1516
 6361TIP3   OH240497   1.728   5.798   2.689 -0.0608 -0.1803  0.1937
 6361TIP3    H140498   1.750   5.847   2.769  0.0877  1.2723 -0.6870
 6361TIP3    H240499   1.668   5.730   2.718  1.1505 -0.6430  1.7697
 6362TIP3   OH240500   3.990   5.549  13.288 -0.1161  0.1112  0.3198
 6362TIP3    H140501   3.907   5.505  13.307  0.1207  0.1086  1.4318
 6362TIP3    H240502   4.057   5.485  13.315  0.2561 -0.0301 -0.9009
 6363TIP3   OH240503   2.637   5.397  11.622  0.4286  1.1312 -0.4283
 6363TIP3    H140504   2.679   5.362  11.701  0.6604  1.0996 -0.5614
 6363TIP3    H240505   2.578   5.465  11.653 -0.0120  0.6382 -0.1636
 6364TIP3   OH240506   0.693   5.034  12.061  0.0649  0.3117  0.2023
 6364TIP3    H140507   0.712   5.120  12.025 -1.4018  0.0594 -1.2793
 6364TIP3    H240508   0.747   4.974  12.010 -2.0823 -0.0557 -1.8520
 6365TIP3   OH240509   0.851   0.983   1.015  0.2808  0.0452 -0.1435
 6365TIP3    H140510   0.875   1.070   0.982  0.1039 -0.3910 -1.4996
 6365TIP3    H240511   0.759   0.991   1.038  0.3413  0.2895  0.0277
 6366TIP3   OH240512   1.377   5.455  11.111 -0.3305 -0.2577 -0.0477
 6366TIP3    H140513   1.337   5.380  11.154 -0.3346 -0.5085 -0.4875
 6366TIP3    H240514   1.323   5.530  11.140 -1.9200 -0.7346 -1.5945
 6367TIP3   OH240515   6.106   1.854  14.161 -0.0786  0.0925 -0.2279
 6367TIP3    H140516   6.014   1.831  14.174 -0.2995  0.8462 -0.4029
 6367TIP3    H240517   6.132   1.806  14.083  0.4806 -2.3206  1.3680
 6368TIP3   OH240518   0.352   1.393  16.042 -0.6029 -0.4052 -0.8459
 6368TIP3    H140519   0.307   1.308  16.037 -3.4331  0.7090  2.2388
 6368TIP3    H240520   0.283   1.455  16.066  1.8373  2.3392 -0.4355
 6369TIP3   OH240521   0.041   6.303  16.292  0.4986  0.5387  0.7635
 6369TIP3    H140522   0.133   6.284  16.311  0.9872 -0.2465 -2.0511
 6369TIP3    H240523  -0.007   6.233  16.336  1.3699  0.0072  0.8866
 6370TIP3   OH240524   1.594   4.593   0.975  0.2084 -0.5133 -0.0827
 6370TIP3    H140525   1.511   4.591   1.022 -0.6596 -0.1493 -1.5302
 6370TIP3    H240526   1.594   4.513   0.922  0.7580 -0.4841 -0.1406
 6371TIP3   OH240527   4.013   1.671   5.603  0.0162 -0.4851  0.1805
 6371TIP3    H140528   4.012   1.631   5.690  1.3050 -0.3776  0.2650
 6371TIP3    H240529   4.099   1.714   5.598 -0.9581  1.5227 -0.2412
 6372TIP3   OH240530   6.391   6.451   2.075 -0.2792  0.3141  0.4646
 6372TIP3    H140531   6.469   6.501   2.052 -1.1504  1.3495 -0.3457
 6372TIP3    H240532   6.422   6.361   2.086  0.9147  0.5858 -0.4926
 6373TIP3   OH240533   2.434   1.667  13.056 -0.1574 -0.0868  0.5660
 6373TIP3    H140534   2.375   1.727  13.103 -1.2299  0.2315 -1.0941
 6373TIP3    H240535   2.394   1.580  13.068 -0.4303 -0.0053  0.2779
 6374TIP3   OH240536   5.604   2.344  16.202  0.0478 -0.1389 -0.2633
 6374TIP3    H140537   5.651   2.399  16.140 -0.4178  1.9312  1.1061
 6374TIP3    H240538   5.513   2.345  16.172 -0.3473  1.5740  0.8102
 6375TIP3   OH240539   2.502   2.215   2.956 -0.0455 -0.0984  0.0740
 6375TIP3    H140540   2.466   2.303   2.967 -0.6457 -0.5633  2.2445
 6375TIP3    H240541   2.597   2.227   2.961 -0.0906  0.5037 -0.4007
 6376TIP3   OH240542   1.866   0.635   1.934  0.0248 -0.0049  0.3043
 6376TIP3    H140543   1.773   0.622   1.955  0.3238 -3.0707  0.2477
 6376TIP3    H240544   1.880   0.729   1.944 -3.3614  0.7828 -0.8647
 6377TIP3   OH240545   2.446   3.673  16.628 -0.3169 -0.4398 -0.5209
 6377TIP3    H140546   2.406   3.712  16.550 -0.3379 -0.4243 -0.5016
 6377TIP3    H240547   2.445   3.742  16.694  0.1836 -0.2800 -0.6716
 6378TIP3   OH240548   2.089   1.504   2.287 -0.2986  0.4867  0.0421
 6378TIP3    H140549   2.090   1.553   2.205 -0.1388 -2.6067 -1.9378
 6378TIP3    H240550   2.180   1.505   2.317 -0.5479  2.5875  0.8797
 6379TIP3   OH240551   0.437   5.895   4.553 -0.3732  0.1845 -0.1372
 6379TIP3    H140552   0.436   5.971   4.611  1.2012 -0.7537  1.2357
 6379TIP3    H240553   0.396   5.825   4.605 -0.6097 -0.2331 -0.8684
 6380TIP3   OH240554   2.611   2.952  17.196  0.2497  0.3598 -0.7210
 6380TIP3    H140555   2.703   2.926  17.188  0.5332  0.8348  0.7077
 6380TIP3    H240556   2.563   2.883  17.151  1.1893 -0.9151  0.1467
 6381TIP3   OH240557   4.497   3.561   2.249  0.2981 -0.0926 -0.6225
 6381TIP3    H140558   4.580   3.606   2.232  0.9344 -0.7626  0.5228
 6381TIP3    H240559   4.512   3.515   2.332 -1.3059 -0.0471 -0.2742
 6382TIP3   OH240560   5.237   0.401   2.264 -0.1426  0.4371 -0.5243
 6382TIP3    H140561   5.276   0.352   2.192 -0.7280  1.6642 -1.7133
 6382TIP3    H240562   5.249   0.493   2.240 -2.0995  0.8614 -0.0349
 6383TIP3   OH240563   6.647   4.232   1.613  0.3729  0.1281 -0.3163
 6383TIP3    H140564   6.614   4.276   1.691 -0.2196  1.4921 -1.2954
 6383TIP3    H240565   6.717   4.289   1.582  0.3377 -0.1952 -0.9977
 6384TIP3   OH240566   2.380   5.201  13.274 -0.2757  0.2782  0.0105
 6384TIP3    H140567   2.311   5.148  13.233 -1.9330  0.1989  2.6854
 6384TIP3    H240568   2.448   5.138  13.296 -0.2727  0.0069 -0.7288
 6385TIP3   OH240569   0.053   1.860   4.500 -0.0691 -0.3044  0.1789
 6385TIP3    H140570   0.078   1.841   4.590 -0.5465 -0.0743  0.3629
 6385TIP3    H240571  -0.023   1.803   4.484  1.0593 -1.6344 -0.6489
 6386TIP3   OH240572   1.422   4.382  13.518 -0.3700  0.3755 -0.4535
 6386TIP3    H140573   1.491   4.320  13.494  0.3924  0.7493  0.7313
 6386TIP3    H240574   1.417   4.442  13.443  1.5215  1.1354 -0.0350
 6387TIP3   OH240575   6.280   1.917  14.915 -0.5710  0.1108  0.0254
 6387TIP3    H140576   6.298   1.910  15.009 -0.9497 -1.5781  0.0020
 6387TIP3    H240577   6.198   1.965  14.910 -1.5472 -1.4029  0.6999
 6388TIP3   OH240578   3.657   3.172   0.210 -0.1960 -0.1309  0.0547
 6388TIP3    H140579   3.563   3.171   0.226  0.1832  0.2819  2.9615
 6388TIP3    H240580   3.670   3.241   0.144 -1.9859 -1.0418 -1.3130
 6389TIP3   OH240581   5.603   5.986  12.452  0.7906  0.4672  0.0194
 6389TIP3    H140582   5.529   5.993  12.392  0.4602 -2.2083  0.0054
 6389TIP3    H240583   5.571   5.931  12.524  2.5543 -0.2271  0.3359
 6390TIP3   OH240584   0.635   1.485  13.176 -0.7132  0.3118 -0.4608
 6390TIP3    H140585   0.698   1.425  13.215 -0.5709  0.4322 -0.5048
 6390TIP3    H240586   0.640   1.564  13.229  0.9934  1.2676 -1.9349
 6391TIP3   OH240587   1.552   2.007  13.901 -0.4013 -0.4835  0.0465
 6391TIP3    H140588   1.572   1.950  13.827  0.2637  1.4095 -1.3110
 6391TIP3    H240589   1.600   2.088  13.883 -2.0786  0.8914  1.3682
 6392TIP3   OH240590   1.875   4.026   1.302 -0.0809  1.1761 -0.2471
 6392TIP3    H140591   1.786   4.025   1.336 -0.2210  1.4474 -0.6011
 6392TIP3    H240592   1.922   4.088   1.357  0.0304  0.6160  0.2922
 6393TIP3   OH240593   4.698   4.101  15.410  0.0753  0.3943 -0.0735
 6393TIP3    H140594   4.709   4.016  15.368  0.0439 -0.0875  0.8565
 6393TIP3    H240595   4.610   4.129  15.384  0.3318  0.4580 -0.9065
 6394TIP3   OH240596   3.761   4.841  10.231  0.0629  0.3403  0.0058
 6394TIP3    H140597   3.778   4.834  10.325  0.6459 -0.2159 -0.1335
 6394TIP3    H240598   3.665   4.843  10.224  0.0195  1.4538  0.6739
 6395TIP3   OH240599   4.667   3.259  16.797 -0.4712  0.1931  0.0872
 6395TIP3    H140600   4.731   3.266  16.868 -0.6567  2.4506  0.1046
 6395TIP3    H240601   4.714   3.217  16.725  1.2150  2.1590 -0.0420
 6396TIP3   OH240602   3.748   4.123   4.995  0.4599 -0.1461  0.2157
 6396TIP3    H140603   3.839   4.147   5.014  0.8882 -1.4266 -0.1276
 6396TIP3    H240604   3.747   4.027   4.999 -0.8542 -0.1564  0.0862
 6397TIP3   OH240605   6.271   0.246   2.134  0.2303 -0.3666  0.2849
 6397TIP3    H140606   6.186   0.289   2.129  0.4648  0.1018  0.3412
 6397TIP3    H240607   6.286   0.212   2.046 -0.6759 -1.7274  0.6262
 6398TIP3   OH240608   0.631   4.293   4.374 -0.1894  0.0958 -1.0449
 6398TIP3    H140609   0.677   4.220   4.332 -1.4611 -0.7557 -1.0230
 6398TIP3    H240610   0.679   4.371   4.348  0.7492 -0.6846 -1.7009
 6399TIP3   OH240611   6.206   5.570  15.089 -0.7977 -0.0843 -0.0814
 6399TIP3    H140612   6.276   5.633  15.108 -0.3761 -0.7121  0.5139
 6399TIP3    H240613   6.217   5.503  15.156 -1.4827 -0.5913 -0.4761
 6400TIP3   OH240614   4.706   6.178   6.197 -0.5588  0.4836 -0.1475
 6400TIP3    H140615   4.728   6.270   6.183  1.2622  0.1331  0.1458
 6400TIP3    H240616   4.753   6.154   6.278 -0.1725 -0.9510 -0.7569
 6401TIP3   OH240617   2.663   2.910   3.313 -0.4075 -0.3936 -0.1141
 6401TIP3    H140618   2.623   2.946   3.234  2.3497 -0.2332 -1.5745
 6401TIP3    H240619   2.653   2.815   3.304 -1.8950 -0.3030  0.4108
 6402TIP3   OH240620   6.214   1.456  14.523 -0.5493 -0.0265 -0.2755
 6402TIP3    H140621   6.234   1.549  14.518 -0.5912 -0.0125 -0.1892
 6402TIP3    H240622   6.135   1.451  14.577 -1.5368  0.0215 -1.6707
 6403TIP3   OH240623   5.461   1.330  13.008 -0.3313  0.2957  0.1475
 6403TIP3    H140624   5.413   1.390  12.950  0.6176 -0.5352 -1.5900
 6403TIP3    H240625   5.539   1.379  13.034 -0.0934  0.2048 -0.3866
 6404TIP3   OH240626   4.674   4.973  10.435 -0.1042  0.1758  0.6680
 6404TIP3    H140627   4.691   5.058  10.393  0.3111  0.0596  0.5937
 6404TIP3    H240628   4.600   4.936  10.386  0.8626 -0.3057 -0.4837
 6405TIP3   OH240629   1.641   5.956   5.021 -0.1551  0.2892 -0.1079
 6405TIP3    H140630   1.588   5.879   5.038 -0.0744  0.5865  1.6108
 6405TIP3    H240631   1.696   5.966   5.099 -0.6333  2.4543  0.0127
 6406TIP3   OH240632   0.120   6.346  16.979 -0.2400  0.3874  0.4288
 6406TIP3    H140633   0.172   6.308  16.909 -1.7933 -1.6488  0.3046
 6406TIP3    H240634   0.043   6.382  16.936 -0.0314  1.3988  0.8522
 6407TIP3   OH240635   4.731   4.612  15.616 -0.4209  0.3219 -0.1563
 6407TIP3    H140636   4.678   4.536  15.593 -1.0008  0.3369  1.0437
 6407TIP3    H240637   4.689   4.648  15.694  1.2508  0.4395  0.7492
 6408TIP3   OH240638   4.525   1.302  16.359  0.2985 -0.3253 -0.4562
 6408TIP3    H140639   4.619   1.288  16.366  0.2667 -0.7009 -0.7345
 6408TIP3    H240640   4.486   1.221  16.392  0.1169 -1.0675 -2.3720
 6409TIP3   OH240641   1.887   1.435  16.274 -0.5996  0.4872 -0.1761
 6409TIP3    H140642   1.862   1.410  16.363  1.4431  0.3005  0.4059
 6409TIP3    H240643   1.903   1.529  16.278  1.8926  0.1080  0.3533
 6410TIP3   OH240644   6.179   3.824  12.164  0.2197  0.0476 -0.0925
 6410TIP3    H140645   6.200   3.734  12.139 -1.2078  0.6034 -3.8491
 6410TIP3    H240646   6.249   3.877  12.125  0.6348  0.6721  1.4325
 6411TIP3   OH240647   0.299   1.168   6.003  0.5010  0.7320  0.0479
 6411TIP3    H140648   0.360   1.241   6.016  1.3567  0.0378 -0.0073
 6411TIP3    H240649   0.352   1.099   5.964  0.0816 -0.4686  1.5072
 6412TIP3   OH240650   5.693   3.624  11.731  0.0556  0.0519 -0.6280
 6412TIP3    H140651   5.742   3.700  11.762  2.5668 -1.1964 -1.2797
 6412TIP3    H240652   5.714   3.618  11.637 -2.9334  0.5206 -1.4499
 6413TIP3   OH240653   3.086   0.915  12.426 -0.4209  0.3208  0.0198
 6413TIP3    H140654   3.149   0.859  12.380 -1.3978 -0.5339 -0.3092
 6413TIP3    H240655   3.101   0.895  12.519  1.7801  2.2965  0.1788
 6414TIP3   OH240656   1.417   3.408   4.029 -0.2362 -0.5957 -0.1118
 6414TIP3    H140657   1.372   3.424   4.111 -0.3573 -0.7206 -0.1536
 6414TIP3    H240658   1.479   3.337   4.048  2.1134  1.5541  0.7411
 6415TIP3   OH240659   5.188   0.789  13.402  0.7384 -0.2221  0.3758
 6415TIP3    H140660   5.193   0.693  13.408 -0.8587 -0.3624 -0.1633
 6415TIP3    H240661   5.271   0.814  13.362  0.8674 -1.4668 -0.2010
 6416TIP3   OH240662   6.705   6.729   0.837 -0.1744  0.5212 -0.1343
 6416TIP3    H140663   6.615   6.744   0.811 -0.9672 -0.6144  1.7258
 6416TIP3    H240664   6.716   6.782   0.916  0.9783  1.0754 -0.6452
 6417TIP3   OH240665   1.997   1.126  13.534 -0.5331 -0.3887 -0.3708
 6417TIP3    H140666   1.931   1.085  13.590 -0.7869 -0.9350 -1.0617
 6417TIP3    H240667   2.078   1.118  13.584 -0.7822 -0.7405 -0.0151
 6418TIP3   OH240668   5.845   3.927  12.401  0.2524 -0.0304  0.0170
 6418TIP3    H140669   5.886   4.001  12.356  0.3211  0.1081  0.3043
 6418TIP3    H240670   5.754   3.954  12.413  0.1030 -0.2863 -0.5078
 6419TIP3   OH240671   1.079   5.382  16.187 -0.0177 -0.2025 -0.3529
 6419TIP3    H140672   1.072   5.327  16.265 -1.4862 -0.6155 -0.7485
 6419TIP3    H240673   1.133   5.456  16.214  3.0034 -2.3429 -0.1044
 6420TIP3   OH240674   0.685   3.732  14.111 -0.4869  0.3859 -0.2103
 6420TIP3    H140675   0.728   3.717  14.027  0.5578  2.6813 -0.1589
 6420TIP3    H240676   0.754   3.716  14.176 -0.5864  1.0350  0.0569
 6421TIP3   OH240677   5.530   3.708  16.598 -0.5172 -0.2720  0.3574
 6421TIP3    H140678   5.477   3.775  16.555  0.7022 -0.1712 -1.0623
 6421TIP3    H240679   5.507   3.627  16.552 -0.0499 -0.3701  0.2967
 6422TIP3   OH240680   6.489   2.109   6.736 -0.0387 -0.1874  0.0651
 6422TIP3    H140681   6.584   2.100   6.729 -0.1713 -0.9051 -0.9442
 6422TIP3    H240682   6.454   2.031   6.693 -1.0911  0.1994  0.1922
 6423TIP3   OH240683   5.423   6.242  17.078  0.0300 -0.5770  0.1879
 6423TIP3    H140684   5.421   6.263  16.984  0.0570 -3.0780 -0.4622
 6423TIP3    H240685   5.370   6.162  17.085  1.1462 -1.2040  2.0820
 6424TIP3   OH240686   1.062   1.639  16.450 -0.5843  0.1286 -0.1319
 6424TIP3    H140687   1.067   1.660  16.357  0.1834 -2.1375 -0.6641
 6424TIP3    H240688   1.074   1.722  16.494 -1.8125  1.4100 -2.0460
 6425TIP3   OH240689   0.053   5.663   1.209 -1.0331 -0.0455 -0.0509
 6425TIP3    H140690   0.029   5.735   1.268  2.0863  2.7278 -1.8469
 6425TIP3    H240691   0.008   5.684   1.127  0.7391  0.5485 -0.9119
 6426TIP3   OH240692   4.315   6.149   4.689 -0.1540  0.0213  0.1670
 6426TIP3    H140693   4.234   6.176   4.645 -0.5232 -1.0259  0.1826
 6426TIP3    H240694   4.359   6.094   4.625 -0.0914 -0.4872  0.6390
 6427TIP3   OH240695   4.677   3.521  16.469 -0.0817  0.3129 -0.4993
 6427TIP3    H140696   4.613   3.497  16.402  0.2864  1.0605 -1.1386
 6427TIP3    H240697   4.630   3.513  16.552 -1.3240  1.8051 -1.0119
 6428TIP3   OH240698   6.574   1.495   3.862 -0.2526 -0.1155  0.0266
 6428TIP3    H140699   6.556   1.426   3.797  1.2531 -0.9140  0.4137
 6428TIP3    H240700   6.601   1.447   3.940  0.6425  0.9084  0.3655
 6429TIP3   OH240701   6.021   4.341  15.661 -0.0773  0.1149 -0.2604
 6429TIP3    H140702   6.018   4.423  15.708 -0.6731 -0.0833  0.0657
 6429TIP3    H240703   5.945   4.292  15.694 -0.3697 -0.1177 -1.2425
 6430TIP3   OH240704   2.028   6.336   1.551  0.2559 -0.0293  0.0781
 6430TIP3    H140705   1.967   6.388   1.604 -1.2910 -1.6823  0.0260
 6430TIP3    H240706   2.091   6.400   1.517 -1.1412  1.6924  0.5512
 6431TIP3   OH240707   3.642   5.509   4.116 -0.5313  0.1900  0.8975
 6431TIP3    H140708   3.717   5.479   4.168  0.1699 -2.5284 -1.4047
 6431TIP3    H240709   3.571   5.515   4.179  0.2710 -2.8977  2.3089
 6432TIP3   OH240710   2.946   3.097  11.887 -0.3194  0.1836  0.3614
 6432TIP3    H140711   3.023   3.115  11.833  0.0740 -0.4545  0.7048
 6432TIP3    H240712   2.873   3.133  11.836  0.2869  1.5669  0.4395
 6433TIP3   OH240713   5.802   6.246   6.230  0.4555 -0.6926 -0.1548
 6433TIP3    H140714   5.824   6.290   6.313  0.0920  0.2753 -0.5532
 6433TIP3    H240715   5.883   6.249   6.179  0.8841 -1.9255  0.4215
 6434TIP3   OH240716   6.034   2.928   0.648  0.2957  0.1318 -0.4062
 6434TIP3    H140717   5.977   2.973   0.711 -0.0374  0.9948 -1.2916
 6434TIP3    H240718   6.114   2.911   0.697 -0.4636 -0.4989  0.6608
 6435TIP3   OH240719   4.558   0.873  12.029  0.3893 -0.0692 -0.0029
 6435TIP3    H140720   4.537   0.780  12.035  0.8318 -0.1095  1.0069
 6435TIP3    H240721   4.597   0.895  12.113 -0.5422  1.2467  0.1196
 6436TIP3   OH240722   1.638   1.015  15.380 -0.1299 -0.2145 -0.9418
 6436TIP3    H140723   1.722   1.020  15.426 -0.9129  1.2948  0.4540
 6436TIP3    H240724   1.606   0.927  15.399 -1.4301  0.9554  3.5434
 6437TIP3   OH240725   5.290   4.792  14.274 -0.3178 -0.3205  0.1576
 6437TIP3    H140726   5.200   4.762  14.269 -0.6377  0.7668 -1.0159
 6437TIP3    H240727   5.308   4.798  14.367 -2.1085  1.3125  0.4559
 6438TIP3   OH240728   4.003   5.687   0.557  0.7046  0.4848 -0.1458
 6438TIP3    H140729   4.072   5.645   0.506  0.9720  1.3357 -0.5045
 6438TIP3    H240730   4.020   5.781   0.548  1.3677  0.6790  2.3324
 6439TIP3   OH240731   5.064   5.443  13.498 -0.0676 -0.3024  0.3132
 6439TIP3    H140732   5.115   5.369  13.463  0.7061 -0.1215  1.0424
 6439TIP3    H240733   5.015   5.475  13.422 -0.1744 -1.3557 -0.0918
 6440TIP3   OH240734   5.158   3.579   3.432 -0.9291 -0.0351 -0.2774
 6440TIP3    H140735   5.114   3.605   3.351 -0.8097 -0.5015 -0.4928
 6440TIP3    H240736   5.096   3.521   3.476 -0.6646 -0.4315 -0.4255
 6441TIP3   OH240737   5.142   3.910   0.223  0.5925  0.4800  0.0696
 6441TIP3    H140738   5.116   3.865   0.142  0.2902  0.8524 -0.0426
 6441TIP3    H240739   5.170   3.997   0.195 -0.1989  0.8614  0.4394
 6442TIP3   OH240740   1.274   4.161  14.786  0.4437 -0.0525 -0.2661
 6442TIP3    H140741   1.358   4.190  14.822 -0.0666  1.2636 -0.0894
 6442TIP3    H240742   1.263   4.214  14.707 -0.5578  0.3211  0.1133
 6443TIP3   OH240743   0.774   2.578   0.439 -0.0637 -0.2305  0.1108
 6443TIP3    H140744   0.851   2.525   0.460 -0.5924 -1.2582 -0.4669
 6443TIP3    H240745   0.709   2.515   0.409 -0.6806  0.7742 -0.7169
 6444TIP3   OH240746   6.124   0.647  15.244 -0.3385  0.1351  0.4525
 6444TIP3    H140747   6.069   0.576  15.275 -0.0488 -0.2679  0.0623
 6444TIP3    H240748   6.178   0.671  15.319 -1.5342  1.0214  1.0480
 6445TIP3   OH240749   6.273   5.411  17.156 -0.1415  0.1030  0.1955
 6445TIP3    H140750   6.324   5.411  17.237 -0.7330  0.7556  0.5725
 6445TIP3    H240751   6.258   5.503  17.136 -1.6903 -0.0662  0.4380
 6446TIP3   OH240752   6.532   0.970  16.993  0.2409 -0.5859 -0.0601
 6446TIP3    H140753   6.512   0.966  16.900  0.2822 -1.4030 -0.0477
 6446TIP3    H240754   6.594   1.042  17.002 -0.6653  0.2728 -0.4807
 6447TIP3   OH240755   2.384   3.028  14.436 -0.1290 -0.2343  0.3630
 6447TIP3    H140756   2.350   3.103  14.486 -0.5443 -1.2672  1.6795
 6447TIP3    H240757   2.453   3.066  14.382 -1.5158  1.4338 -0.3630
 6448TIP3   OH240758   4.765   5.476  15.858  0.0807  0.2089 -0.0863
 6448TIP3    H140759   4.673   5.500  15.856  0.4425  1.6238 -1.2867
 6448TIP3    H240760   4.767   5.384  15.830 -0.8322  0.6118 -1.5436
 6449TIP3   OH240761   0.427   0.566   5.221 -0.7283  0.2248 -0.1971
 6449TIP3    H140762   0.459   0.613   5.298  0.4687 -0.1506 -0.4401
 6449TIP3    H240763   0.361   0.506   5.255 -0.6075  0.4498  0.4500
 6450TIP3   OH240764   6.042   3.365   6.356 -0.1767 -0.3110 -0.3275
 6450TIP3    H140765   6.013   3.441   6.407 -2.6514 -0.8333 -0.8021
 6450TIP3    H240766   6.137   3.374   6.351 -0.2561  1.9664  0.8413
 6451TIP3   OH240767   4.607   4.029  16.776  0.2716  0.2125  0.6766
 6451TIP3    H140768   4.629   4.121  16.790 -3.1726  1.5293 -1.2355
 6451TIP3    H240769   4.632   4.013  16.685  0.3180 -0.5948  0.8297
 6452TIP3   OH240770   6.746   0.720  10.741  0.0024  0.0397 -0.2682
 6452TIP3    H140771   6.833   0.693  10.769 -0.5877  0.0591  1.7055
 6452TIP3    H240772   6.754   0.814  10.725  0.1924  0.1636  0.5377
 6453TIP3   OH240773   4.550   4.988  11.833 -0.1944 -0.3874  0.2692
 6453TIP3    H140774   4.504   4.949  11.759 -1.7775 -0.1136  1.0565
 6453TIP3    H240775   4.637   5.007  11.800 -0.6749 -0.8085 -1.3450
 6454TIP3   OH240776   2.200   2.376   1.934  0.3921 -0.2995 -0.0227
 6454TIP3    H140777   2.143   2.450   1.913  0.3968 -0.3482 -0.2097
 6454TIP3    H240778   2.162   2.337   2.012  1.4677  1.0660  1.2556
 6455TIP3   OH240779   0.438   6.506  15.501 -0.1076  0.3671  0.3167
 6455TIP3    H140780   0.471   6.567  15.567  1.0059  0.9318 -0.7335
 6455TIP3    H240781   0.496   6.517  15.426  1.4891 -3.4650  0.7785
 6456TIP3   OH240782   5.320   2.148  16.744 -0.0035  0.2748 -0.0686
 6456TIP3    H140783   5.305   2.175  16.834  1.3912  2.3829 -0.3702
 6456TIP3    H240784   5.244   2.096  16.720 -1.3427  1.3345  1.6985
 6457TIP3   OH240785   0.259   4.990  17.097  0.6139  0.4148 -0.1438
 6457TIP3    H140786   0.274   4.984  17.002 -0.0214 -0.8579 -0.1895
 6457TIP3    H240787   0.171   4.954  17.109  0.7122  0.5051  0.9457
 6458TIP3   OH240788   5.814   5.023  15.765 -0.1890  0.3124 -0.1827
 6458TIP3    H140789   5.839   5.066  15.683 -2.6222  2.1023 -0.0678
 6458TIP3    H240790   5.729   4.982  15.746 -0.5155  0.2599  1.2808
 6459TIP3   OH240791   2.538   2.625  16.902  0.2726  0.5077 -0.1033
 6459TIP3    H140792   2.611   2.682  16.928  1.5814 -0.0951 -2.1828
 6459TIP3    H240793   2.550   2.612  16.808 -0.8439 -1.9607  0.0138
 6460TIP3   OH240794   2.217   2.513   4.704  0.7137  0.2393  0.0526
 6460TIP3    H140795   2.172   2.593   4.678 -0.7717 -0.3393  0.7834
 6460TIP3    H240796   2.221   2.517   4.799  1.3621 -0.1787  0.0512
 6461TIP3   OH240797   5.162   2.339   5.141  0.8092 -0.9640 -0.2591
 6461TIP3    H140798   5.100   2.280   5.100  1.9292 -2.3350 -0.0562
 6461TIP3    H240799   5.116   2.373   5.218  0.3563 -2.0321 -0.0487
 6462TIP3   OH240800   6.094   1.797   2.434  0.6409 -0.0272  0.6312
 6462TIP3    H140801   6.125   1.835   2.516  0.2220 -0.0241  0.7866
 6462TIP3    H240802   6.036   1.726   2.461  2.0395 -1.3393  0.3709
 6463TIP3   OH240803   0.492   0.914   3.684 -0.2921  0.1430  0.2984
 6463TIP3    H140804   0.396   0.911   3.692 -0.2638  0.6244  1.0255
 6463TIP3    H240805   0.509   0.995   3.636 -0.2740 -0.2872 -0.4218
 6464TIP3   OH240806   0.565   1.179  10.914 -0.0753  0.0943 -0.1891
 6464TIP3    H140807   0.490   1.210  10.863  0.0501  0.8856  0.0881
 6464TIP3    H240808   0.627   1.148  10.848 -0.8437 -1.0616 -0.3935
 6465TIP3   OH240809   4.130   5.312  11.486 -0.4207 -0.1406 -0.0699
 6465TIP3    H140810   4.141   5.353  11.400 -1.9467 -0.8545 -0.6469
 6465TIP3    H240811   4.190   5.359  11.543  0.2279  0.7142 -1.4112
 6466TIP3   OH240812   6.087   0.360   0.576  0.4540 -0.1065  0.2567
 6466TIP3    H140813   6.061   0.269   0.560 -1.6300  0.6455 -1.0667
 6466TIP3    H240814   6.081   0.402   0.490 -0.6752  1.7246  1.1617
 6467TIP3   OH240815   2.027   4.232   1.489 -0.2912 -0.0827 -0.1181
 6467TIP3    H140816   1.946   4.210   1.536 -0.7464  2.7738  0.6129
 6467TIP3    H240817   2.002   4.304   1.431  0.7363 -2.1029 -3.3785
 6468TIP3   OH240818   2.368   5.988  14.486  0.4994 -0.4773 -0.5976
 6468TIP3    H140819   2.406   6.053  14.546 -2.7447  0.0826  1.1020
 6468TIP3    H240820   2.339   5.917  14.543 -0.0592 -1.3114 -1.8759
 6469TIP3   OH240821   2.801   6.381   5.799 -0.2560 -0.0107 -0.2859
 6469TIP3    H140822   2.873   6.385   5.736 -0.2176 -1.3014 -0.3430
 6469TIP3    H240823   2.739   6.319   5.761 -0.5196 -0.3407  0.6451
 6470TIP3   OH240824   2.543   2.648  16.368  0.0414 -0.3795  0.5452
 6470TIP3    H140825   2.509   2.589  16.301  1.0213 -0.5456  0.1674
 6470TIP3    H240826   2.466   2.680  16.414 -0.6587 -0.3299 -0.6058
 6471TIP3   OH240827   4.767   4.795  13.440  0.7239 -0.4777  0.6130
 6471TIP3    H140828   4.753   4.773  13.532  2.5481 -2.0849  0.5790
 6471TIP3    H240829   4.850   4.753  13.418 -0.0734 -0.8694 -2.0174
 6472TIP3   OH240830   6.192   4.557   6.149  0.4460  0.4489 -0.2906
 6472TIP3    H140831   6.226   4.643   6.124  3.6319 -0.4147  0.5450
 6472TIP3    H240832   6.244   4.495   6.097  0.2212 -1.0248  1.1416
 6473TIP3   OH240833   2.394   4.062   2.439 -0.1034 -0.0501  0.4250
 6473TIP3    H140834   2.433   4.149   2.444 -2.1887  1.0720 -1.1262
 6473TIP3    H240835   2.446   4.015   2.374 -1.1386  1.3829 -1.5408
 6474TIP3   OH240836   5.797   5.983  17.021  0.4250  0.1354  0.2126
 6474TIP3    H140837   5.739   6.045  17.065  1.3775 -0.2820  2.1303
 6474TIP3    H240838   5.881   5.992  17.065  1.2306 -0.8483 -1.0507
 6475TIP3   OH240839   2.564   0.153   0.286 -0.1542 -0.5932 -0.7528
 6475TIP3    H140840   2.644   0.106   0.264 -0.3301 -1.0024 -0.5221
 6475TIP3    H240841   2.551   0.136   0.380 -0.6719 -0.7766 -0.8531
 6476TIP3   OH240842   0.053   3.014   3.926 -0.2868 -0.6168  0.0235
 6476TIP3    H140843   0.010   3.094   3.958 -0.5995 -0.3955 -0.9222
 6476TIP3    H240844  -0.019   2.958   3.898 -0.0801 -1.3519  0.9318
 6477TIP3   OH240845   0.176   4.463  15.080  0.0360 -0.2932  0.2028
 6477TIP3    H140846   0.199   4.554  15.102 -0.4770  0.2167 -1.2048
 6477TIP3    H240847   0.256   4.426  15.043  0.0562 -0.1747  0.1261
 6478TIP3   OH240848   4.868   3.968  13.906 -0.7814  0.3098  0.3193
 6478TIP3    H140849   4.962   3.984  13.920 -0.3848  1.2793 -2.6394
 6478TIP3    H240850   4.827   3.987  13.990  1.4725  1.9282  1.1497
 6479TIP3   OH240851   5.009   2.917  13.936 -0.2205 -0.0548  0.0329
 6479TIP3    H140852   4.982   2.825  13.944  2.8981 -0.9826  1.6793
 6479TIP3    H240853   5.070   2.918  13.863  0.7666  0.4152  0.8434
 6480TIP3   OH240854   1.691   1.537   3.481 -1.4435  0.0822 -0.1835
 6480TIP3    H140855   1.727   1.479   3.414 -0.9937  0.4279 -0.2467
 6480TIP3    H240856   1.712   1.493   3.564  2.0620  1.7895 -0.0080
 6481TIP3   OH240857   5.202   5.581  16.409  0.4141  0.0259  0.8554
 6481TIP3    H140858   5.251   5.579  16.492 -0.7239  1.3885  1.6116
 6481TIP3    H240859   5.130   5.519  16.423  1.1126 -0.9408  0.2622
 6482TIP3   OH240860   2.185   1.532  12.420 -0.3251  0.2423 -0.2259
 6482TIP3    H140861   2.140   1.448  12.422 -1.0624  0.6097 -0.6431
 6482TIP3    H240862   2.145   1.583  12.490  0.2551  0.1862  0.1534
 6483TIP3   OH240863   3.257   6.757  13.933  0.1179  0.6587 -0.0405
 6483TIP3    H140864   3.238   6.822  13.865  0.1406  1.7087  0.9354
 6483TIP3    H240865   3.352   6.753  13.936  0.3024  3.3125  2.3223
 6484TIP3   OH240866   4.516   0.866   0.038 -0.0765  0.4822 -0.3748
 6484TIP3    H140867   4.551   0.887   0.124  0.5654  0.9307 -0.7293
 6484TIP3    H240868   4.453   0.936   0.020 -0.1593  0.4274 -0.2960
 6485TIP3   OH240869   1.039   3.340  14.531 -0.3277 -0.7656  0.0860
 6485TIP3    H140870   1.050   3.347  14.626  1.8297  2.5875 -0.2448
 6485TIP3    H240871   1.117   3.294  14.501  2.0525  3.0732 -0.3349
 6486TIP3   OH240872   4.485   1.805   2.937  0.3235  0.1796  0.1261
 6486TIP3    H140873   4.434   1.725   2.944 -1.5823  1.1128 -1.7319
 6486TIP3    H240874   4.437   1.869   2.990  1.6295  0.2280  1.3105
 6487TIP3   OH240875   3.532   1.209  17.006 -0.3195 -0.0886  0.6391
 6487TIP3    H140876   3.507   1.207  16.913  0.9101 -0.4283  0.2982
 6487TIP3    H240877   3.453   1.180  17.052 -0.6135 -0.9776 -0.3791
 6488TIP3   OH240878   3.087   5.167  14.220 -0.5378  0.1458 -0.0125
 6488TIP3    H140879   2.994   5.146  14.229 -0.6342  0.8447  0.9218
 6488TIP3    H240880   3.111   5.204  14.305 -0.0823  2.5014 -1.0874
 6489TIP3   OH240881   4.520   1.623  13.516 -0.4540  0.6354 -0.0082
 6489TIP3    H140882   4.556   1.569  13.445 -0.5377 -0.0700  0.4702
 6489TIP3    H240883   4.425   1.615  13.507 -0.5468 -2.0992  2.0511
 6490TIP3   OH240884   2.463   1.914  12.767  0.0682  0.1680 -0.5427
 6490TIP3    H140885   2.542   1.862  12.750 -0.4065 -0.2617 -1.5892
 6490TIP3    H240886   2.493   2.005  12.767  0.4986  0.0407 -1.4391
 6491TIP3   OH240887   1.317   6.315  17.123  0.8195 -0.3429 -0.2907
 6491TIP3    H140888   1.266   6.264  17.186  0.6950  0.5183  0.3191
 6491TIP3    H240889   1.313   6.263  17.042  0.6210 -1.2472  0.2822
 6492TIP3   OH240890   3.519   2.860  15.875  0.7215  0.8210 -0.6591
 6492TIP3    H140891   3.561   2.925  15.931 -0.0710  0.8560 -0.1003
 6492TIP3    H240892   3.489   2.909  15.798 -0.3277  1.2273 -0.0098
 6493TIP3   OH240893   0.185   2.879   4.475 -0.4763 -0.2427 -0.1687
 6493TIP3    H140894   0.212   2.971   4.478  0.5111 -0.5346  0.3465
 6493TIP3    H240895   0.175   2.855   4.567  2.3724 -1.5018 -0.0675
 6494TIP3   OH240896   2.722   4.449  12.794 -0.2428  0.1260  0.7652
 6494TIP3    H140897   2.720   4.353  12.797  0.8912  0.0211 -0.7774
 6494TIP3    H240898   2.814   4.472  12.811 -0.4509  0.9425  0.8418
 6495TIP3   OH240899   0.122   4.751   4.892 -0.0649 -0.6138 -0.5357
 6495TIP3    H140900   0.038   4.776   4.931  0.0041 -0.8655 -0.2256
 6495TIP3    H240901   0.161   4.835   4.865 -0.3374 -0.4820 -0.5271
 6496TIP3   OH240902   6.034   6.222   4.825  0.5650  0.5739 -0.6703
 6496TIP3    H140903   6.124   6.199   4.847  0.8569  2.0304 -0.2792
 6496TIP3    H240904   6.039   6.253   4.734  0.6859  1.8182 -0.2518
 6497TIP3   OH240905   2.691   5.499   1.364  0.3101 -0.5322  0.1582
 6497TIP3    H140906   2.764   5.559   1.357 -0.1072  0.0310  0.5846
 6497TIP3    H240907   2.632   5.525   1.293 -0.2467  0.0957  0.8375
 6498TIP3   OH240908   6.765   0.827   1.124 -0.3884 -0.0690 -0.2765
 6498TIP3    H140909   6.760   0.739   1.161  0.2760 -0.1055 -0.2466
 6498TIP3    H240910   6.768   0.885   1.200 -0.6810 -0.0297 -0.2946
 6499TIP3   OH240911   2.113   2.720   0.305  0.1903  0.4561  0.0431
 6499TIP3    H140912   2.150   2.802   0.274 -1.5986  0.3530 -2.6088
 6499TIP3    H240913   2.183   2.655   0.291  0.6847  1.0650 -0.3410
 6500TIP3   OH240914   4.204   6.420  11.263 -0.6449  0.6005  0.0457
 6500TIP3    H140915   4.239   6.508  11.280 -0.7572  0.7321 -0.3812
 6500TIP3    H240916   4.120   6.419  11.308 -1.0080  0.9967 -0.6160
 6501TIP3   OH240917   5.580   2.071  16.263  0.1674 -0.1761  0.2993
 6501TIP3    H140918   5.601   2.000  16.202  0.3493  0.3898 -0.3076
 6501TIP3    H240919   5.621   2.149  16.225 -0.7698  0.4288  0.4903
 6502TIP3   OH240920   5.033   6.750  12.055  0.1509  0.4124 -0.3925
 6502TIP3    H140921   5.001   6.660  12.059  1.3290 -0.0450 -0.6504
 6502TIP3    H240922   5.091   6.758  12.132  1.3698  0.3914 -1.2736
 6503TIP3   OH240923   2.761   5.663  13.086 -0.4312 -0.0239 -0.3837
 6503TIP3    H140924   2.666   5.668  13.070 -0.2671  2.5432 -0.9119
 6503TIP3    H240925   2.800   5.690  13.003  0.8094 -1.3036 -0.2456
 6504TIP3   OH240926   6.289   3.019  15.359  0.2050  0.4225  0.0613
 6504TIP3    H140927   6.338   3.045  15.437 -0.4118 -0.1643  0.6525
 6504TIP3    H240928   6.214   3.079  15.357 -0.0522  0.1030  0.2015
 6505TIP3   OH240929   6.247   1.013   1.119 -0.2307 -0.3770  0.1484
 6505TIP3    H140930   6.210   0.990   1.204  0.5966  0.1550  0.6684
 6505TIP3    H240931   6.337   1.040   1.138  0.8741 -2.7196 -1.1889
 6506TIP3   OH240932   5.189   1.640  16.832  0.3892 -0.1122  0.3304
 6506TIP3    H140933   5.138   1.568  16.796 -0.5934  0.3253  0.7958
 6506TIP3    H240934   5.208   1.696  16.757  0.9668 -0.7384  0.0044
 6507TIP3   OH240935   2.869   6.032   0.167 -0.0643  0.1962  0.0932
 6507TIP3    H140936   2.935   5.963   0.178 -0.6719 -0.6149 -1.1164
 6507TIP3    H240937   2.786   5.989   0.187 -0.3597  0.8618  0.3278
 6508TIP3   OH240938   3.103   0.986   3.321 -0.3694 -0.1495  0.2369
 6508TIP3    H140939   3.138   0.912   3.371  0.3521 -1.7282 -2.4095
 6508TIP3    H240940   3.172   1.007   3.258 -1.7620  0.7771 -1.0363
 6509TIP3   OH240941   2.384   1.052   0.422  0.2097  0.0313  0.3002
 6509TIP3    H140942   2.325   1.035   0.348  1.2311 -0.3508 -0.4438
 6509TIP3    H240943   2.413   0.965   0.450  1.5939  0.2689 -0.3278
 6510TIP3   OH240944   4.662   2.269  11.653 -0.1551  0.5779  0.1420
 6510TIP3    H140945   4.613   2.350  11.640 -0.3591  0.3501 -0.5387
 6510TIP3    H240946   4.598   2.199  11.640  0.5792  0.2445 -1.9935
 6511TIP3   OH240947   2.981   2.383   0.155  0.2334 -0.7126 -0.5616
 6511TIP3    H140948   3.054   2.390   0.093  0.2871  1.3910 -0.3096
 6511TIP3    H240949   2.903   2.382   0.099  0.3539 -0.8030 -0.7304
 6512TIP3   OH240950   3.404   3.121   1.399 -1.2184  0.0548 -0.0688
 6512TIP3    H140951   3.413   3.115   1.304  1.7779 -0.2936  0.1601
 6512TIP3    H240952   3.444   3.041   1.433 -0.5826  0.9941  1.5249
 6513TIP3   OH240953   1.905   4.240  13.981 -0.0367 -0.2855 -0.1052
 6513TIP3    H140954   1.902   4.174  14.050  0.3907  0.1547  0.3545
 6513TIP3    H240955   1.815   4.269  13.971 -0.0819 -0.2290  0.4122
 6514TIP3   OH240956   2.766   6.011  11.546 -0.2412  0.1385  0.3200
 6514TIP3    H140957   2.827   5.993  11.617  0.6736 -2.4137 -0.9797
 6514TIP3    H240958   2.820   6.049  11.477 -0.5309 -0.1184 -0.0537
 6515TIP3   OH240959   3.645   2.557   3.805 -0.2642  0.0367 -0.1818
 6515TIP3    H140960   3.610   2.622   3.866  1.5399  0.6080  0.3191
 6515TIP3    H240961   3.692   2.609   3.740  2.1662 -0.7384  0.8458
 6516TIP3   OH240962   2.317   0.745  13.135  0.0455  0.0296 -0.3234
 6516TIP3    H140963   2.404   0.767  13.167 -1.0686  0.5389  2.6635
 6516TIP3    H240964   2.281   0.828  13.105 -0.3630  0.4059  1.1051
 6517TIP3   OH240965   3.952   2.269  16.541 -0.1699  0.0549 -1.0332
 6517TIP3    H140966   4.024   2.324  16.569 -0.7297  0.5414 -0.5139
 6517TIP3    H240967   3.986   2.220  16.466 -0.1271  2.2463 -2.5483
 6518TIP3   OH240968   6.148   1.251  16.280  0.3349  0.5064 -0.6883
 6518TIP3    H140969   6.171   1.332  16.326 -1.2635  1.2253 -1.0910
 6518TIP3    H240970   6.054   1.258  16.263 -0.0275 -1.7906 -0.0555
 6519TIP3   OH240971   3.301   0.032   1.033 -0.0583 -0.4153 -0.0949
 6519TIP3    H140972   3.326   0.077   0.952 -0.0491  0.6683  0.4817
 6519TIP3    H240973   3.206   0.026   1.028 -0.6938  3.9603  1.8254
 6520TIP3   OH240974   0.308   4.974  16.785 -0.3351 -0.1391 -0.3793
 6520TIP3    H140975   0.386   4.924  16.808  0.5208  1.0545 -0.5604
 6520TIP3    H240976   0.302   4.968  16.690 -1.0027 -0.9784 -0.2935
 6521TIP3   OH240977   1.146   3.538  16.183  0.1212  0.3969  0.5480
 6521TIP3    H140978   1.063   3.573  16.152 -0.9819 -1.7252  0.9121
 6521TIP3    H240979   1.207   3.552  16.110 -0.9514  0.5854 -0.3301
 6522TIP3   OH240980   4.310   0.530   5.581  0.0165 -0.1862 -0.5784
 6522TIP3    H140981   4.290   0.609   5.630  0.1036  0.3716 -1.4189
 6522TIP3    H240982   4.233   0.475   5.592  0.1676 -0.2025  0.4319
 6523TIP3   OH240983   5.891   5.573  17.151 -0.0791 -0.1282  0.5636
 6523TIP3    H140984   5.921   5.650  17.200  0.9657 -0.2378  0.1173
 6523TIP3    H240985   5.949   5.503  17.179 -0.7174 -0.6530  0.6002
 6524TIP3   OH240986   1.578   1.535   0.314 -0.7018 -0.3018  0.1948
 6524TIP3    H140987   1.523   1.594   0.366  0.0157 -0.1986  0.8677
 6524TIP3    H240988   1.584   1.455   0.367 -0.3551 -0.3738  0.0491
 6525TIP3   OH240989   1.127   4.359   4.035  0.4616 -0.2474  0.0982
 6525TIP3    H140990   1.185   4.421   3.991  0.8573 -0.2820  0.5628
 6525TIP3    H240991   1.172   4.274   4.025 -0.6338 -0.6821 -1.5514
 6526TIP3   OH240992   5.868   0.367  16.222  0.5576 -0.1368 -0.6805
 6526TIP3    H140993   5.923   0.314  16.164 -0.9611 -1.5558 -0.8960
 6526TIP3    H240994   5.778   0.340  16.201 -0.2380  1.9862 -0.2310
 6527TIP3   OH240995   3.839   2.744   2.240 -0.2221 -0.4410  0.0811
 6527TIP3    H140996   3.772   2.747   2.308 -1.6184  0.0915 -1.2306
 6527TIP3    H240997   3.905   2.683   2.272 -0.8328 -0.1957  1.8789
 6528TIP3   OH240998   0.852   6.554  13.163  0.8990  0.1116 -0.4801
 6528TIP3    H140999   0.807   6.470  13.169  0.8645  0.1604  0.0168
 6528TIP3    H241000   0.808   6.601  13.092 -0.9278  0.8149  1.0339
 6529TIP3   OH241001   6.513   3.708  11.345  0.0221  0.3847 -0.3118
 6529TIP3    H141002   6.596   3.717  11.392 -1.7762  3.0775  2.6735
 6529TIP3    H241003   6.475   3.627  11.378  0.3875  0.3967  0.1480
 6530TIP3   OH241004   1.158   1.893  10.861  0.3228  0.6093  0.0582
 6530TIP3    H141005   1.151   1.862  10.771 -1.9712 -0.2262  0.4545
 6530TIP3    H241006   1.169   1.987  10.854 -1.1725  0.7207 -1.1124
 6531TIP3   OH241007   5.231   5.584  14.623  0.1171  0.1038  0.6014
 6531TIP3    H141008   5.295   5.525  14.584 -0.3965 -0.1897  0.1860
 6531TIP3    H241009   5.231   5.661  14.566 -1.2151 -0.6573 -0.4763
 6532TIP3   OH241010   1.020   5.055  11.988 -0.2451 -0.5852  0.2784
 6532TIP3    H141011   1.005   5.123  11.922 -3.0534  0.2573  1.5871
 6532TIP3    H241012   0.969   4.980  11.958  0.4426 -1.0747  0.3088
 6533TIP3   OH241013   1.357   0.517  15.417 -0.5486 -0.0321 -0.3426
 6533TIP3    H141014   1.396   0.604  15.413  0.7480 -0.4700  1.6153
 6533TIP3    H241015   1.265   0.531  15.393 -0.5599  2.0033  0.7044
 6534TIP3   OH241016   2.932   5.544  11.230  0.5353  0.8970 -0.2731
 6534TIP3    H141017   2.935   5.537  11.135 -0.5973 -0.3777 -0.2480
 6534TIP3    H241018   2.931   5.453  11.261 -3.9731  1.0063  0.6771
 6535TIP3   OH241019   1.640   4.548   2.294  0.1369 -0.0747 -0.6929
 6535TIP3    H141020   1.702   4.486   2.255 -0.3566 -0.7836 -0.3653
 6535TIP3    H241021   1.695   4.613   2.337  0.6536 -1.2003  0.3742
 6536TIP3   OH241022   6.229   2.916   4.027 -0.2822 -0.1747 -0.2705
 6536TIP3    H141023   6.303   2.870   4.067  0.0587  0.1372 -0.5338
 6536TIP3    H241024   6.182   2.953   4.102  0.7710  1.0377 -0.1633
 6537TIP3   OH241025   1.402   0.654  15.107 -0.0413  0.0795 -0.3235
 6537TIP3    H141026   1.407   0.748  15.122 -0.7873 -0.1593  1.6985
 6537TIP3    H241027   1.314   0.630  15.135 -1.0123 -0.8067 -3.7070
 6538TIP3   OH241028   6.291   2.583   0.963 -0.6955  0.6317  0.3468
 6538TIP3    H141029   6.265   2.511   0.906 -1.8007  1.8372 -0.7500
 6538TIP3    H241030   6.211   2.609   1.008 -0.9367  2.7441 -1.1428
 6539TIP3   OH241031   2.201   5.498   2.821  0.2437 -0.0876 -0.0821
 6539TIP3    H141032   2.201   5.554   2.744  0.4403  0.9732  0.6745
 6539TIP3    H241033   2.181   5.556   2.894  0.1811 -1.0504  0.6955
 6540TIP3   OH241034   1.928   1.536   0.635 -0.0299 -0.1933 -0.0705
 6540TIP3    H141035   1.890   1.613   0.593 -1.0097 -2.0909 -2.9352
 6540TIP3    H241036   2.018   1.532   0.602 -0.3279 -0.8543 -0.8313
 6541TIP3   OH241037   3.995   1.638  10.832  0.4168 -0.2190  0.1524
 6541TIP3    H141038   4.064   1.592  10.784 -0.3410 -0.0579 -1.1105
 6541TIP3    H241039   3.940   1.676  10.765  0.1792  1.3001  1.1667
 6542TIP3   OH241040   5.191   1.055   5.121 -0.2095  0.3231  0.3695
 6542TIP3    H141041   5.109   1.023   5.082 -0.2901  0.5327  0.3613
 6542TIP3    H241042   5.238   1.096   5.048  1.6417 -3.0259 -0.4974
 6543TIP3   OH241043   3.072   1.911   4.493  0.0100  0.1709 -0.3198
 6543TIP3    H141044   3.129   1.980   4.460  1.0814 -0.9330 -0.8314
 6543TIP3    H241045   3.131   1.847   4.533 -0.8009 -1.2092 -1.2399
 6544TIP3   OH241046   2.270   3.637  13.513  0.1287 -0.4908 -0.5696
 6544TIP3    H141047   2.195   3.654  13.455 -1.8944  0.1219  2.0249
 6544TIP3    H241048   2.285   3.543  13.506  0.1035 -0.4122 -2.1812
 6545TIP3   OH241049   3.094   0.662  16.977 -0.2806 -0.6715  0.3227
 6545TIP3    H141050   3.144   0.618  16.909 -1.7537 -1.3334 -0.3560
 6545TIP3    H241051   3.161   0.691  17.040  0.8661 -2.5971  0.0786
 6546TIP3   OH241052   6.326   3.990   2.685  0.1890  0.0131 -0.7286
 6546TIP3    H141053   6.258   3.942   2.637  0.1658  2.4348 -3.3669
 6546TIP3    H241054   6.279   4.064   2.724  0.9444  0.3752 -0.4953
 6547TIP3   OH241055   2.351   5.630   0.051 -0.4483 -0.1213 -0.2189
 6547TIP3    H141056   2.310   5.659  -0.031  0.1173  0.3711 -0.3366
 6547TIP3    H241057   2.422   5.693   0.066  0.0213 -0.7270  0.1821
 6548TIP3   OH241058   2.411   2.529  12.810  0.0771 -0.4086  0.3381
 6548TIP3    H141059   2.438   2.549  12.720  2.2334  1.0665  1.2435
 6548TIP3    H241060   2.476   2.571  12.865 -1.9705 -0.0527  2.6762
 6549TIP3   OH241061   3.756   5.931   4.215  0.6097 -0.0982 -0.0720
 6549TIP3    H141062   3.771   5.907   4.307 -2.6712 -1.3923  0.2733
 6549TIP3    H241063   3.733   6.024   4.218  0.4795 -0.1443  0.4155
 6550TIP3   OH241064   0.610   1.656  11.784  0.3215  0.3049 -0.1459
 6550TIP3    H141065   0.679   1.616  11.731 -0.0349  0.6657 -0.8971
 6550TIP3    H241066   0.585   1.734  11.735  0.6714  1.1973  1.0435
 6551TIP3   OH241067   5.407   1.823  15.130  0.4531 -0.1643  0.3142
 6551TIP3    H141068   5.422   1.783  15.216  0.2373  1.6151  1.2368
 6551TIP3    H241069   5.373   1.752  15.076  0.7304 -1.3671  1.6560
 6552TIP3   OH241070   5.572   1.407   3.100  0.1320 -0.0868  0.6862
 6552TIP3    H141071   5.562   1.502   3.098 -0.2527  0.0021  3.4133
 6552TIP3    H241072   5.483   1.373   3.115  0.3569 -0.8565  0.3627
 6553TIP3   OH241073   3.689   5.968   2.946  0.5613 -0.7174 -0.5090
 6553TIP3    H141074   3.753   5.924   2.890  0.5088 -0.7661 -0.5314
 6553TIP3    H241075   3.623   5.901   2.964  0.5508 -0.6866 -0.4321
 6554TIP3   OH241076   3.578   1.355   2.604  0.0454  0.2658  0.3060
 6554TIP3    H141077   3.532   1.373   2.687 -0.1391  1.6214 -0.0748
 6554TIP3    H241078   3.518   1.297   2.556 -0.5778  0.7780  0.4576
 6555TIP3   OH241079   3.959   4.573   2.991  0.1574 -0.2429  0.2685
 6555TIP3    H141080   3.896   4.507   2.963 -0.3562  0.7909 -1.0906
 6555TIP3    H241081   3.935   4.593   3.082 -3.0792  1.8408 -0.8843
 6556TIP3   OH241082   0.600   4.533   5.939 -0.7531  0.3319  0.1095
 6556TIP3    H141083   0.597   4.517   6.033 -0.9679  1.9288  0.3991
 6556TIP3    H241084   0.509   4.547   5.913 -0.5975  0.9204 -0.1353
 6557TIP3   OH241085   4.006   0.594  13.541 -0.0581 -0.5953 -0.1260
 6557TIP3    H141086   3.936   0.529  13.547  0.0687 -0.7655 -0.4957
 6557TIP3    H241087   4.030   0.611  13.632  0.5306 -1.7446 -0.0474
 6558TIP3   OH241088   6.469   5.218  16.192  0.6409 -0.3863  0.0986
 6558TIP3    H141089   6.488   5.254  16.105 -0.2867 -1.2815 -0.4980
 6558TIP3    H241090   6.374   5.212  16.194  0.6357  0.0261  1.3574
 6559TIP3   OH241091   5.789   5.716  10.796  0.5725  0.2909 -0.1576
 6559TIP3    H141092   5.700   5.694  10.826 -0.2667 -0.0592 -2.6212
 6559TIP3    H241093   5.781   5.803  10.758  0.7044 -0.5421 -2.2638
 6560TIP3   OH241094   1.809   5.467  12.681 -0.7904 -0.3639 -0.1986
 6560TIP3    H141095   1.814   5.553  12.721 -1.9306 -0.6159  0.5232
 6560TIP3    H241096   1.726   5.431  12.711 -0.4302 -1.6339 -0.6602
 6561TIP3   OH241097   6.656   2.009  16.028  0.4225 -0.4327  0.2064
 6561TIP3    H141098   6.655   1.918  16.057  1.0820 -0.8140 -0.9289
 6561TIP3    H241099   6.700   2.056  16.099 -0.6042 -0.8486  1.1533
 6562TIP3   OH241100   2.380   2.118   3.405 -0.5970  0.3052 -0.0490
 6562TIP3    H141101   2.364   2.197   3.354  1.8638  0.3465 -0.8738
 6562TIP3    H241102   2.377   2.046   3.341  1.8425  0.2859 -0.2119
 6563TIP3   OH241103   1.319   0.217  13.373  0.1411 -0.0027  0.1213
 6563TIP3    H141104   1.306   0.150  13.440 -0.6212 -1.8179 -1.7358
 6563TIP3    H241105   1.407   0.252  13.391 -0.4199  0.2849  2.5948
 6564TIP3   OH241106   5.642   5.136   2.187  0.1369  0.1327  0.1861
 6564TIP3    H141107   5.548   5.128   2.203  0.5596 -0.8791  2.6361
 6564TIP3    H241108   5.654   5.227   2.160 -1.2370  1.2380  2.8863
 6565TIP3   OH241109   0.485   4.933  13.717 -0.3859  0.1220 -0.1085
 6565TIP3    H141110   0.446   4.850  13.689  0.6436 -0.4110  0.0052
 6565TIP3    H241111   0.413   4.980  13.760 -0.6993 -1.1969  0.8628
 6566TIP3   OH241112   6.737   1.737   0.212  0.3457  0.4913  0.3006
 6566TIP3    H141113   6.802   1.698   0.270 -1.0760 -1.8132  0.4621
 6566TIP3    H241114   6.667   1.767   0.270 -0.2617 -0.1591 -0.0868
 6567TIP3   OH241115   6.592   2.491   3.066 -0.0157  0.2498  0.2263
 6567TIP3    H141116   6.635   2.495   2.980  0.9319  1.8352  0.7343
 6567TIP3    H241117   6.662   2.508   3.128 -1.0978  1.3508  1.1794
 6568TIP3   OH241118   3.139   3.461  13.310  0.1345  0.2567 -0.0281
 6568TIP3    H141119   3.083   3.452  13.234 -2.6245  0.1328  1.8937
 6568TIP3    H241120   3.107   3.540  13.355  0.0240 -0.9943  2.2422
 6569TIP3   OH241121   3.588   5.875  16.775  0.1000 -0.0256  0.0030
 6569TIP3    H141122   3.671   5.896  16.733 -0.3395  1.2659 -0.2461
 6569TIP3    H241123   3.584   5.779  16.773  3.0470 -0.3972  2.8806
 6570TIP3   OH241124   2.608   6.600  11.251 -0.1198  0.1613 -0.3250
 6570TIP3    H141125   2.523   6.563  11.275  0.2948 -0.6375 -0.0487
 6570TIP3    H241126   2.601   6.693  11.273 -0.4849 -0.1390  0.9298
 6571TIP3   OH241127   6.532   0.773  15.049 -0.5114 -0.0787  0.0034
 6571TIP3    H141128   6.579   0.691  15.059  1.4152  1.0800  0.9679
 6571TIP3    H241129   6.455   0.750  14.997  0.5363 -2.2690 -0.7072
 6572TIP3   OH241130   3.843   2.693   5.922 -0.3574 -0.0757  0.0553
 6572TIP3    H141131   3.888   2.778   5.925 -1.3468  0.5042 -0.6551
 6572TIP3    H241132   3.889   2.639   5.985  1.6494  0.3320 -0.9674
 6573TIP3   OH241133   0.810   2.337  12.528 -0.4485 -0.7461 -0.4046
 6573TIP3    H141134   0.866   2.304  12.458  2.0547 -1.7712  1.8784
 6573TIP3    H241135   0.742   2.271  12.539 -0.6457 -0.7538 -1.5668
 6574TIP3   OH241136   4.189   4.673  11.228 -0.0014 -0.0457 -0.0461
 6574TIP3    H141137   4.252   4.707  11.291  1.0395  2.7102 -2.3114
 6574TIP3    H241138   4.107   4.718  11.250  0.4773  1.2828 -0.8552
 6575TIP3   OH241139   4.853   4.944  10.692  0.0966  0.3634  0.4203
 6575TIP3    H141140   4.941   4.924  10.660 -0.2449 -0.1919 -0.2092
 6575TIP3    H241141   4.803   4.966  10.613 -0.0471  1.8020  0.8937
 6576TIP3   OH241142   5.960   4.965  13.963 -0.3758 -0.4680 -0.2847
 6576TIP3    H141143   5.950   4.950  13.869 -0.7097  3.5896 -1.0949
 6576TIP3    H241144   6.055   4.969  13.977 -0.3211  0.8147 -0.9006
 6577TIP3   OH241145   2.160   5.927  10.863 -0.1444  0.7149 -0.1163
 6577TIP3    H141146   2.207   5.932  10.946  0.2034  2.8093 -0.3871
 6577TIP3    H241147   2.198   5.996  10.809 -1.5782  0.5797 -1.3797
 6578TIP3   OH241148   1.336   6.072  16.626  0.4438 -0.3435 -0.1393
 6578TIP3    H141149   1.270   6.045  16.562  0.8217  0.7302 -1.0179
 6578TIP3    H241150   1.378   5.991  16.653 -3.3557 -1.5478  2.9556
 6579TIP3   OH241151   5.281   2.048  11.701 -0.4791 -0.0094  0.2317
 6579TIP3    H141152   5.223   1.984  11.741 -0.2554 -0.3198  0.0604
 6579TIP3    H241153   5.330   1.999  11.635 -0.2577  0.3206  0.1459
 6580TIP3   OH241154   0.462   3.560  15.925  0.2753  0.1809  0.4017
 6580TIP3    H141155   0.383   3.587  15.877  0.0679  1.7041  1.5133
 6580TIP3    H241156   0.534   3.590  15.870  0.0793 -0.2507 -0.1021
 6581TIP3   OH241157   3.773   0.488   2.190  0.2438  0.5064  0.3917
 6581TIP3    H141158   3.806   0.418   2.133  1.6995 -0.7243  2.5928
 6581TIP3    H241159   3.789   0.568   2.141 -0.3219 -0.5537 -1.6886
 6582TIP3   OH241160   2.921   5.156  14.672  0.8346 -0.3114 -0.2236
 6582TIP3    H141161   3.016   5.168  14.660  0.7590  0.8744  0.1876
 6582TIP3    H241162   2.890   5.242  14.701 -0.4162 -0.6171 -0.5999
 6583TIP3   OH241163   6.067   4.128  17.019 -0.2279 -0.2767  0.1556
 6583TIP3    H141164   6.020   4.165  16.945 -1.0585 -0.9187  0.3477
 6583TIP3    H241165   6.156   4.161  17.010 -0.6791  0.8582 -0.2833
 6584TIP3   OH241166   4.639   2.641  11.342  0.1273  0.0058  0.3935
 6584TIP3    H141167   4.662   2.733  11.325 -0.7334  0.1019 -0.3538
 6584TIP3    H241168   4.721   2.593  11.329  0.9258  0.7969  2.1649
 6585TIP3   OH241169   0.271   3.270   5.483  0.2133 -0.1670 -0.3053
 6585TIP3    H141170   0.363   3.244   5.491 -0.3929 -2.1931  0.8321
 6585TIP3    H241171   0.242   3.283   5.574 -0.3761  1.4440 -0.7048
 6586TIP3   OH241172   3.812   1.470  12.797  0.2539  0.4115  0.4021
 6586TIP3    H141173   3.801   1.375  12.793 -1.4942  0.5661  0.6019
 6586TIP3    H241174   3.812   1.490  12.891 -0.8989  0.7325  0.3485
 6587TIP3   OH241175   3.543   4.564  15.113 -0.4082  0.4941 -0.7744
 6587TIP3    H141176   3.518   4.636  15.054 -1.0677  1.3733  0.5337
 6587TIP3    H241177   3.573   4.607  15.192 -0.0065 -0.6787 -0.2735
 6588TIP3   OH241178   3.563   2.471  10.687 -0.2052  0.4577  0.2811
 6588TIP3    H141179   3.512   2.473  10.607 -1.5128 -1.3359  1.0199
 6588TIP3    H241180   3.527   2.398  10.738  2.3817 -0.2390  1.3087
 6589TIP3   OH241181   0.831   1.428  16.124  0.2391 -0.4094 -0.1810
 6589TIP3    H141182   0.846   1.479  16.044  0.3150  2.1526  1.3422
 6589TIP3    H241183   0.891   1.354  16.117  1.0598  0.3562 -1.9702
 6590TIP3   OH241184   1.600   3.416   1.834 -0.5134  0.0651  0.0922
 6590TIP3    H141185   1.658   3.454   1.899  1.5397  1.2425 -2.2596
 6590TIP3    H241186   1.652   3.348   1.792 -0.3236  1.7763 -2.7140
 6591TIP3   OH241187   0.432   6.203  15.381  0.4773 -0.2006 -0.0172
 6591TIP3    H141188   0.524   6.211  15.358  0.8330 -2.1870  0.4709
 6591TIP3    H241189   0.384   6.225  15.301  1.4907 -1.9012 -1.1423
 6592TIP3   OH241190   6.463   3.200   0.284  0.0523 -0.6778  0.5817
 6592TIP3    H141191   6.422   3.134   0.228  1.0930  0.7649 -2.0911
 6592TIP3    H241192   6.550   3.165   0.303 -0.6027 -1.5584  2.1312
 6593TIP3   OH241193   1.678   5.323  12.369  0.1532  0.1741 -0.4626
 6593TIP3    H141194   1.737   5.351  12.439 -1.7833 -0.9591  1.7640
 6593TIP3    H241195   1.594   5.309  12.412 -0.9232 -1.5255 -2.8539
 6594TIP3   OH241196   0.469   6.506   4.959 -0.2865 -0.2319 -0.2392
 6594TIP3    H141197   0.459   6.413   4.980 -0.6026 -0.2490 -0.4647
 6594TIP3    H241198   0.531   6.508   4.887 -0.4135 -0.2810 -0.3505
 6595TIP3   OH241199   3.537   1.015  12.026  0.2502 -0.3567 -0.4959
 6595TIP3    H141200   3.542   0.922  12.006  0.4004 -0.2252 -1.0785
 6595TIP3    H241201   3.596   1.057  11.963  0.9436  0.0389  0.3940
 6596TIP3   OH241202   0.141   6.373   3.792 -0.7168  0.0634 -0.1523
 6596TIP3    H141203   0.223   6.388   3.839  0.6485 -0.4071 -2.2589
 6596TIP3    H241204   0.102   6.460   3.786  1.6702  1.1057 -2.6101
 6597TIP3   OH241205   4.449   4.000  15.656  0.1399 -0.0304 -0.3926
 6597TIP3    H141206   4.440   4.044  15.571 -0.2379  0.3477 -0.1604
 6597TIP3    H241207   4.359   3.984  15.684  0.2728 -1.0032 -0.4912
 6598TIP3   OH241208   0.470   2.469  16.470  0.2359  0.3094  0.4372
 6598TIP3    H141209   0.384   2.427  16.458 -0.5908  1.9691  0.2415
 6598TIP3    H241210   0.528   2.421  16.411 -0.5539 -0.8370  0.5538
 6599TIP3   OH241211   4.321   0.539  10.750  0.4603 -0.0934  0.0590
 6599TIP3    H141212   4.341   0.446  10.758 -0.9920 -0.3756  0.8416
 6599TIP3    H241213   4.264   0.558  10.825 -0.6759  1.0131 -1.0229
 6600TIP3   OH241214   5.298   1.054   4.196 -0.1446  0.1950 -0.3766
 6600TIP3    H141215   5.211   1.024   4.223 -0.0778  1.1913  1.0075
 6600TIP3    H241216   5.284   1.089   4.108 -1.1025  0.1543 -0.2570
 6601TIP3   OH241217   1.838   0.560  16.355  0.4605  0.9176 -0.1025
 6601TIP3    H141218   1.880   0.613  16.422  0.0847  1.8473 -0.5861
 6601TIP3    H241219   1.744   0.570  16.372  0.3525 -1.2802  1.0898
 6602TIP3   OH241220   5.016   0.067  11.533 -0.4316 -0.4489 -0.2788
 6602TIP3    H141221   5.015   0.033  11.443 -0.8328  1.2448 -0.9696
 6602TIP3    H241222   4.950   0.015  11.579 -3.5266  1.4822 -2.1716
 6603TIP3   OH241223   2.533   0.834  12.263  0.2610  0.8267  0.1480
 6603TIP3    H141224   2.455   0.780  12.256  1.3463 -0.6085 -1.5480
 6603TIP3    H241225   2.606   0.773  12.250  1.6314  2.2945  0.6269
 6604TIP3   OH241226   1.817   0.017  17.183 -0.0304  0.0109 -0.7744
 6604TIP3    H141227   1.855  -0.007  17.267 -1.2004 -0.7061 -0.4261
 6604TIP3    H241228   1.874  -0.025  17.118 -1.2801 -2.8320 -0.2130
 6605TIP3   OH241229   6.267   6.209   1.090 -0.1802 -0.2618  0.2571
 6605TIP3    H141230   6.322   6.150   1.038 -1.0990  0.3365 -1.4482
 6605TIP3    H241231   6.179   6.198   1.055 -0.8759  0.0625  1.8095
 6606TIP3   OH241232   2.710   2.102   4.080 -0.0088  0.0312  0.4177
 6606TIP3    H141233   2.664   2.018   4.080  1.4496 -0.8147  0.8959
 6606TIP3    H241234   2.772   2.095   4.153  2.2499  0.3014 -1.3362
 6607TIP3   OH241235   0.586   5.667   2.816  0.0776  0.5250  0.3615
 6607TIP3    H141236   0.651   5.613   2.860 -1.4842 -0.1550  1.9751
 6607TIP3    H241237   0.554   5.612   2.744  1.0039  0.7402 -0.2382
 6608TIP3   OH241238   0.634   2.477   1.416 -0.1852 -0.5834 -0.3929
 6608TIP3    H141239   0.699   2.482   1.486 -2.0067  1.2663  1.3344
 6608TIP3    H241240   0.600   2.388   1.421  1.3812 -1.2082 -0.5521
 6609TIP3   OH241241   2.349   1.766  16.835 -0.2421 -1.2216  0.2989
 6609TIP3    H141242   2.435   1.764  16.793 -0.4805  1.0808 -0.4456
 6609TIP3    H241243   2.368   1.769  16.929  0.4472 -1.6064  0.1791
 6610TIP3   OH241244   5.534   6.334   5.361  0.3753  0.4053  0.3361
 6610TIP3    H141245   5.528   6.255   5.415 -0.6858  0.2744  0.0443
 6610TIP3    H241246   5.513   6.406   5.420  0.3346  0.3722  0.3618
 6611TIP3   OH241247   6.208   3.051  16.540  0.0616  0.2372 -0.1279
 6611TIP3    H141248   6.124   3.007  16.529  0.7513 -1.2911  0.3450
 6611TIP3    H241249   6.250   3.002  16.612  1.6603  0.4502 -0.8910
 6612TIP3   OH241250   1.544   5.891   5.414 -0.1648 -0.1458  0.1332
 6612TIP3    H141251   1.477   5.937   5.365  0.0103 -0.9493 -0.8981
 6612TIP3    H241252   1.499   5.855   5.490 -0.6701  0.2112  0.0037
 6613TIP3   OH241253   4.560   1.909  11.820 -1.0499  0.1289 -0.3381
 6613TIP3    H141254   4.522   1.905  11.732 -1.2521  0.8773 -0.2889
 6613TIP3    H241255   4.494   1.956  11.872 -1.2603 -0.9306  0.3877
 6614TIP3   OH241256   4.044   1.007  11.795 -0.2275  0.5448  0.2140
 6614TIP3    H141257   3.988   1.049  11.860 -0.5660  0.9917 -0.3571
 6614TIP3    H241258   4.020   0.914  11.799  0.4004  0.4144  1.3589
 6615TIP3   OH241259   4.520   5.837   1.688  0.4501 -0.2393 -0.5587
 6615TIP3    H141260   4.567   5.754   1.684 -1.6763 -1.5812  0.4815
 6615TIP3    H241261   4.526   5.864   1.779 -0.9009 -0.5446 -0.3555
 6616TIP3   OH241262   1.718   2.008  12.195 -0.1837 -0.5314  0.1095
 6616TIP3    H141263   1.795   2.025  12.141 -0.6327 -0.9373 -0.6739
 6616TIP3    H241264   1.737   2.052  12.278 -0.5943  2.3809 -1.2429
 6617TIP3   OH241265   5.485   1.139   2.078  0.2256 -0.1925 -0.1286
 6617TIP3    H141266   5.552   1.092   2.126 -0.9609  0.4879  2.3705
 6617TIP3    H241267   5.485   1.227   2.116 -0.0785  0.7515 -2.1573
 6618TIP3   OH241268   1.723   0.883  13.056  0.0894 -0.1210  0.3832
 6618TIP3    H141269   1.635   0.897  13.092  0.3718  0.3001  0.9138
 6618TIP3    H241270   1.763   0.970  13.054  0.2475 -0.2084 -0.5174
 6619TIP3   OH241271   2.120   2.683  14.213 -0.2659  0.6464  0.3644
 6619TIP3    H141272   2.152   2.709  14.299 -1.0222  2.5732  0.1022
 6619TIP3    H241273   2.052   2.747  14.192 -0.9389 -0.5037 -1.1543
 6620TIP3   OH241274   0.921   0.459   4.184  0.1448  0.1217  0.0302
 6620TIP3    H141275   1.009   0.435   4.210  0.2886 -0.8081 -1.2266
 6620TIP3    H241276   0.914   0.552   4.207  0.0080 -0.6600  3.8461
 6621TIP3   OH241277   6.562   0.917   4.723  0.1775 -0.0539  0.4753
 6621TIP3    H141278   6.472   0.940   4.697 -0.1233  0.6987  2.0941
 6621TIP3    H241279   6.552   0.834   4.770  0.4996 -0.5404 -0.2909
 6622TIP3   OH241280   0.032   0.302   5.825 -0.6046 -0.3779  0.4809
 6622TIP3    H141281   0.092   0.329   5.895 -0.8782  2.1071 -0.1685
 6622TIP3    H241282  -0.054   0.301   5.867 -0.8480  1.6619  0.1086
 6623TIP3   OH241283   5.348   3.800   5.221 -0.0832 -0.4788 -0.0541
 6623TIP3    H141284   5.399   3.881   5.226 -0.0019 -0.4841 -0.7389
 6623TIP3    H241285   5.397   3.738   5.275 -0.6671  0.1905  1.2859
 6624TIP3   OH241286   2.843   2.512   2.347 -0.1078  0.5187 -0.3978
 6624TIP3    H141287   2.827   2.513   2.442  0.4839 -0.1358 -0.2864
 6624TIP3    H241288   2.757   2.495   2.309 -0.1535 -0.4013  0.0828
 6625TIP3   OH241289   5.300   4.905  14.653 -0.6861  0.4486  0.4247
 6625TIP3    H141290   5.235   4.838  14.674 -0.7615  0.4067  0.0648
 6625TIP3    H241291   5.351   4.915  14.733 -1.3244  0.7019  0.8122
 6626TIP3   OH241292   1.650   3.790   5.559  0.5198  0.2260 -0.4092
 6626TIP3    H141293   1.708   3.817   5.488 -0.4872  0.6055 -1.1089
 6626TIP3    H241294   1.565   3.826   5.536 -0.1048 -0.6884  0.3753
 6627TIP3   OH241295   5.732   5.025   4.517  0.4165 -0.3778  0.6152
 6627TIP3    H141296   5.781   4.980   4.585  0.0994  0.0367  1.1282
 6627TIP3    H241297   5.744   4.971   4.439  2.4606  0.1847  0.4724
 6628TIP3   OH241298   2.874   0.511   0.949  0.3833 -0.2869 -0.0861
 6628TIP3    H141299   2.883   0.552   0.864  1.1173 -1.2630 -0.5087
 6628TIP3    H241300   2.787   0.535   0.979  0.6167  1.1874 -0.4940
 6629TIP3   OH241301   6.778   0.430   6.260 -0.3470 -0.1053  0.3469
 6629TIP3    H141302   6.697   0.444   6.211 -0.9835 -0.7623  1.1904
 6629TIP3    H241303   6.808   0.518   6.281 -0.6245  0.1570 -0.3124
 6630TIP3   OH241304   5.620   3.235  16.127 -0.5872  0.5972  0.6164
 6630TIP3    H141305   5.678   3.239  16.203 -0.0484 -1.5291  0.3652
 6630TIP3    H241306   5.537   3.273  16.158  0.3544  2.0455  1.4907
 6631TIP3   OH241307   1.909   4.227  12.171 -0.3099 -0.4803  0.2430
 6631TIP3    H141308   1.995   4.261  12.196 -0.0299 -0.9311 -0.0885
 6631TIP3    H241309   1.859   4.305  12.145 -0.1925 -0.1523  0.9811
 6632TIP3   OH241310   3.748   6.640  15.074  0.0281  0.3258  0.4355
 6632TIP3    H141311   3.654   6.633  15.088  0.1619  0.8625  1.7365
 6632TIP3    H241312   3.764   6.733  15.060  0.2184  0.0894 -1.0915
 6633TIP3   OH241313   6.056   2.314  16.075 -0.2238  0.4488  0.2633
 6633TIP3    H141314   6.092   2.294  15.989  1.4774  1.2137  0.7573
 6633TIP3    H241315   5.989   2.380  16.059  0.2067  0.7218 -0.4515
 6634TIP3   OH241316   1.585   4.820   3.884 -0.0218  0.3725 -0.4080
 6634TIP3    H141317   1.677   4.828   3.909  0.1732  0.5234 -1.1560
 6634TIP3    H241318   1.551   4.751   3.940  0.3022  0.9662  0.5414
 6635TIP3   OH241319   0.061   3.504   0.892  0.0481 -0.2963  0.0296
 6635TIP3    H141320   0.104   3.429   0.850 -2.6788 -2.4780  0.7581
 6635TIP3    H241321   0.110   3.517   0.974  0.8859 -0.9267 -0.3554
 6636TIP3   OH241322   5.615   0.033  12.510 -0.0068 -0.3695  0.0546
 6636TIP3    H141323   5.585   0.028  12.601  1.6845 -0.8663  0.6305
 6636TIP3    H241324   5.706   0.002  12.514  0.9469  2.0262 -1.4080
 6637TIP3   OH241325   4.128   0.906  12.259 -0.4729  0.0331  0.8837
 6637TIP3    H141326   4.131   0.915  12.164  0.4020  1.4456  1.0158
 6637TIP3    H241327   4.098   0.817  12.273  1.3224 -0.9003 -0.7328
 6638TIP3   OH241328   6.168   4.020  15.174 -0.1103  0.0930  0.1829
 6638TIP3    H141329   6.198   4.083  15.240  0.8212  1.2360 -1.2644
 6638TIP3    H241330   6.102   4.068  15.124  1.2866  0.2980 -1.5411
 6639TIP3   OH241331   2.215   4.811  13.061  0.2842 -0.8233 -0.0769
 6639TIP3    H141332   2.263   4.828  13.142  0.6908 -1.2860 -0.2239
 6639TIP3    H241333   2.251   4.730  13.027  0.8311 -0.1158 -1.2602
 6640TIP3   OH241334   4.351   0.722  14.783  0.1281  0.3518 -0.4550
 6640TIP3    H141335   4.265   0.687  14.761 -0.4407  0.4279  1.4601
 6640TIP3    H241336   4.412   0.666  14.736 -0.9106 -0.6383 -0.6714
 6641TIP3   OH241337   4.018   3.439   1.848  0.5234 -0.6072  0.0520
 6641TIP3    H141338   4.083   3.500   1.813  2.3478 -1.7273  1.3398
 6641TIP3    H241339   4.046   3.422   1.938 -2.4368  0.0131  1.2275
 6642TIP3   OH241340   5.261   0.079  16.789  0.0485 -0.0483  0.0599
 6642TIP3    H141341   5.169   0.093  16.769  0.1540  0.5376 -0.0417
 6642TIP3    H241342   5.286   0.003  16.736 -0.2022  0.2186 -0.4443
 6643TIP3   OH241343   3.222   1.334  16.252 -1.0614 -0.5081 -0.3231
 6643TIP3    H141344   3.144   1.321  16.198 -2.3942  0.9535  1.1239
 6643TIP3    H241345   3.272   1.402  16.207 -1.7037  0.0503 -0.2094
 6644TIP3   OH241346   0.576   0.134  10.251  0.5957  0.2139  0.0842
 6644TIP3    H141347   0.638   0.147  10.180 -0.5741  0.0036 -1.0326
 6644TIP3    H241348   0.519   0.063  10.219 -0.8174  1.0641  0.6087
 6645TIP3   OH241349   2.211   1.497   2.758 -0.1033  0.6119 -0.3226
 6645TIP3    H141350   2.260   1.417   2.740 -1.1364 -0.3094  0.7589
 6645TIP3    H241351   2.272   1.568   2.738  0.9491 -0.4387 -0.9923
 6646TIP3   OH241352   2.184   2.368   2.487 -0.4829  0.0489 -0.0518
 6646TIP3    H141353   2.221   2.291   2.442 -1.0101 -1.1494  1.4590
 6646TIP3    H241354   2.090   2.349   2.492 -0.3905 -0.0542  1.8430
 6647TIP3   OH241355   4.789   0.721  13.634  0.0548 -0.4862 -0.1734
 6647TIP3    H141356   4.767   0.698  13.544 -0.1200  0.1693 -0.3089
 6647TIP3    H241357   4.803   0.637  13.678  0.9954 -0.8040 -1.0160
 6648TIP3   OH241358   2.385   6.014  12.027  0.3876 -0.5360  0.6901
 6648TIP3    H141359   2.305   6.063  12.007 -0.8393 -1.2111  3.5474
 6648TIP3    H241360   2.448   6.080  12.056  0.4470 -0.1582 -0.2563
 6649TIP3   OH241361   0.905   6.535   5.831 -0.1967  0.1791 -0.9026
 6649TIP3    H141362   0.890   6.512   5.922  1.4057  0.9588 -0.4038
 6649TIP3    H241363   1.001   6.537   5.822 -0.3186  0.9740 -2.3596
 6650TIP3   OH241364   2.367   0.017   3.972  0.2724  0.1906  0.2592
 6650TIP3    H141365   2.364  -0.048   3.902 -1.5676 -0.6398  1.0194
 6650TIP3    H241366   2.326   0.095   3.934  0.9020  0.3443 -0.1173
 6651TIP3   OH241367   4.685   2.441   1.100  0.2333  0.0967  0.1645
 6651TIP3    H141368   4.661   2.352   1.074 -2.4247  0.3392  1.5125
 6651TIP3    H241369   4.633   2.498   1.044  1.5407  0.8407 -0.3403
 6652TIP3   OH241370   3.375   1.073   3.809  0.6513 -0.0493 -0.1380
 6652TIP3    H141371   3.350   1.153   3.855 -0.9110  0.6926 -2.1017
 6652TIP3    H241372   3.295   1.021   3.807  1.1421 -0.7925 -0.5504
 6653TIP3   OH241373   3.774   6.349  15.276  0.4394  0.3258 -0.7351
 6653TIP3    H141374   3.706   6.416  15.289  0.7644  0.9015 -1.8354
 6653TIP3    H241375   3.725   6.269  15.256  0.0579  0.4312 -0.2370
 6654TIP3   OH241376   3.405   2.213  14.470 -0.0736 -0.0265  0.4218
 6654TIP3    H141377   3.411   2.305  14.446 -1.6935 -0.2100 -0.9363
 6654TIP3    H241378   3.478   2.171  14.425 -0.3718  0.3486 -0.4344
 6655TIP3   OH241379   6.106   6.408   5.218  0.2648  0.4305 -0.5219
 6655TIP3    H141380   6.064   6.394   5.132 -1.7005  0.2193  0.4182
 6655TIP3    H241381   6.034   6.401   5.281  1.5451  1.3398  1.1043
 6656TIP3   OH241382   3.723   3.533   6.141  0.0848 -0.1370  0.2006
 6656TIP3    H141383   3.766   3.523   6.056  1.4248 -0.1470  0.8435
 6656TIP3    H241384   3.736   3.449   6.185  0.9964  0.4380  1.0845
 6657TIP3   OH241385   6.356   3.537   4.423  0.1523  0.1990  0.3529
 6657TIP3    H141386   6.262   3.548   4.432  0.3929  1.9062  1.1143
 6657TIP3    H241387   6.387   3.517   4.511  0.7948  2.4896  0.7135
 6658TIP3   OH241388   1.515   0.463   0.946  0.0268 -0.0053  0.5108
 6658TIP3    H141389   1.545   0.432   1.031 -1.6226 -1.7267  0.5351
 6658TIP3    H241390   1.535   0.392   0.885 -1.4639 -0.0636  0.0457
 6659TIP3   OH241391   5.340   5.453   6.017  0.2679 -0.3091 -0.1849
 6659TIP3    H141392   5.374   5.541   6.038  1.2800 -1.3606  3.3132
 6659TIP3    H241393   5.407   5.416   5.959  0.0607  1.0101 -1.3390
 6660TIP3   OH241394   5.128   0.414  14.868 -0.5364  0.1555  0.8703
 6660TIP3    H141395   5.159   0.492  14.821  0.7187 -0.3361  0.8327
 6660TIP3    H241396   5.033   0.420  14.864 -0.4606  1.1627 -0.0143
 6661TIP3   OH241397   0.730   3.302   5.011  0.3132  0.0104  0.0973
 6661TIP3    H141398   0.638   3.307   5.037  0.3808 -2.3687  0.9959
 6661TIP3    H241399   0.740   3.213   4.976  2.1942  0.3543 -0.3309
 6662TIP3   OH241400   4.177   2.789  16.460  0.3539 -0.3475  0.6349
 6662TIP3    H141401   4.101   2.738  16.488  0.1387 -1.2318 -1.4095
 6662TIP3    H241402   4.237   2.785  16.535 -0.3008 -2.3243  1.1244
 6663TIP3   OH241403   2.475   6.717  12.816 -0.2661 -0.1076 -0.0346
 6663TIP3    H141404   2.503   6.640  12.866  0.8232  0.7064  0.6712
 6663TIP3    H241405   2.405   6.756  12.868 -0.3501 -0.2507 -0.0419
 6664TIP3   OH241406   3.432   0.111  14.335  0.0568  0.5938 -0.0018
 6664TIP3    H141407   3.456   0.177  14.270  0.4430  0.6720  0.2187
 6664TIP3    H241408   3.484   0.132  14.412  0.0860  0.1118  0.1172
 6665TIP3   OH241409   1.803   2.155   0.088 -0.0339  0.0095 -0.4574
 6665TIP3    H141410   1.825   2.063   0.102 -2.7586 -0.9334 -1.6018
 6665TIP3    H241411   1.850   2.202   0.156  0.2721 -2.4087  1.1077
 6666TIP3   OH241412   2.838   4.512   4.622  0.2493 -0.3270 -0.0376
 6666TIP3    H141413   2.825   4.530   4.715  0.6036 -1.1216  0.1785
 6666TIP3    H241414   2.763   4.552   4.579  0.3010  0.4140  0.5451
 6667TIP3   OH241415   5.170   4.165  13.379  0.1492  0.5264 -0.3083
 6667TIP3    H141416   5.206   4.080  13.405  1.6830  0.6284 -1.8659
 6667TIP3    H241417   5.186   4.222  13.454  2.5648  0.3300 -0.5792
 6668TIP3   OH241418   0.614   1.252   6.825 -0.3528 -0.5263  0.1288
 6668TIP3    H141419   0.598   1.169   6.871  0.2795 -0.1742  1.0162
 6668TIP3    H241420   0.687   1.233   6.766 -1.4789 -1.1096 -1.1123
 6669TIP3   OH241421   0.434   0.302   2.031 -0.3457  0.1123  0.0646
 6669TIP3    H141422   0.392   0.368   2.086 -0.6171 -1.1113  1.4092
 6669TIP3    H241423   0.524   0.333   2.020 -0.8633  1.4294 -0.6045
 6670TIP3   OH241424   0.157   6.624  13.845  0.3720 -0.4126 -0.0106
 6670TIP3    H141425   0.114   6.640  13.760 -0.4517  0.1509  0.4960
 6670TIP3    H241426   0.119   6.690  13.903  1.6681 -0.1542  0.5625
 6671TIP3   OH241427   2.190   0.532  11.002 -0.0985  0.0829  0.1247
 6671TIP3    H141428   2.114   0.497  10.954 -0.6311  1.3789 -0.0224
 6671TIP3    H241429   2.266   0.496  10.957 -0.6108  0.1957 -0.8446
 6672TIP3   OH241430   0.266   4.464   6.603  0.4628  0.3669  0.4240
 6672TIP3    H141431   0.255   4.481   6.509  0.9276  1.7745  0.6038
 6672TIP3    H241432   0.320   4.385   6.607 -1.2068 -0.9083 -0.4685
 6673TIP3   OH241433   6.720   4.592   3.100  0.2198  0.0403 -0.0496
 6673TIP3    H141434   6.715   4.633   3.014 -1.6920  0.4957  0.2282
 6673TIP3    H241435   6.813   4.593   3.122  0.8078 -0.4270 -2.2429
 6674TIP3   OH241436   4.915   4.433   0.878 -0.1530  0.1365  0.3372
 6674TIP3    H141437   4.911   4.411   0.971 -0.2089 -0.9346  0.0942
 6674TIP3    H241438   4.835   4.483   0.862 -1.0523 -1.1930  0.4965
 6675TIP3   OH241439   2.110   0.911   1.341 -0.2261 -0.9424 -0.3374
 6675TIP3    H141440   2.199   0.877   1.336  0.9009  1.9462 -2.4807
 6675TIP3    H241441   2.061   0.862   1.275 -0.0518 -1.9817  0.2915
 6676TIP3   OH241442   2.803   3.163  13.451  0.2748 -0.1540  0.2994
 6676TIP3    H141443   2.869   3.209  13.399 -1.3798  1.2827 -0.6731
 6676TIP3    H241444   2.825   3.070  13.442  1.0553  0.1642 -1.5672
 6677TIP3   OH241445   2.860   0.927   0.059 -0.7302  0.5680  0.6025
 6677TIP3    H141446   2.847   0.834   0.044  0.8100  0.6007 -1.3097
 6677TIP3    H241447   2.781   0.968   0.022 -1.2311  0.0693  1.0963
 6678TIP3   OH241448   1.481   4.426  12.324 -0.1297  0.0745 -0.1038
 6678TIP3    H141449   1.432   4.441  12.243 -0.2566  0.6495  0.0778
 6678TIP3    H241450   1.432   4.357  12.369 -0.9152  0.8077  0.1869
 6679TIP3   OH241451   0.928   4.797  14.716  0.2048 -0.4995  0.0359
 6679TIP3    H141452   0.995   4.863  14.734  0.5745 -0.5270 -1.1275
 6679TIP3    H241453   0.862   4.810  14.785  1.1119 -0.0856  0.8503
 6680TIP3   OH241454   1.695   0.893   0.121 -0.7317  1.0311 -0.3761
 6680TIP3    H141455   1.729   0.839   0.050 -1.2786  1.4421 -0.9546
 6680TIP3    H241456   1.664   0.830   0.186 -0.2424  0.6564 -0.5036
 6681TIP3   OH241457   0.830   6.279  12.780 -0.3211 -0.0988  0.2705
 6681TIP3    H141458   0.824   6.297  12.686  2.4368  0.8465  0.1776
 6681TIP3    H241459   0.788   6.354  12.821  0.7237  0.7976 -0.2322
 6682TIP3   OH241460   5.266   3.649   1.078  0.3639 -0.6644 -0.1659
 6682TIP3    H141461   5.290   3.736   1.046 -0.0927 -0.7896 -0.8473
 6682TIP3    H241462   5.325   3.634   1.152  1.1291 -0.1875 -0.6682
 6683TIP3   OH241463   2.977   0.327  14.553 -0.3427  0.3350 -0.5076
 6683TIP3    H141464   3.058   0.328  14.503 -0.9093 -0.3880 -1.4610
 6683TIP3    H241465   2.939   0.414  14.539 -0.8782 -0.1172 -1.9920
 6684TIP3   OH241466   3.812   2.192   3.565  0.0738 -0.2482 -0.2020
 6684TIP3    H141467   3.727   2.214   3.602  0.0710 -1.6767  0.7584
 6684TIP3    H241468   3.847   2.124   3.624  0.4647 -2.0038 -2.3099
 6685TIP3   OH241469   5.640   2.402   5.130  0.4141 -0.1866 -0.1284
 6685TIP3    H141470   5.599   2.466   5.188  0.4696 -0.5286  0.2942
 6685TIP3    H241471   5.654   2.449   5.048 -0.9383 -0.1007 -0.3212
 6686TIP3   OH241472   5.725   3.112  10.231  0.1666 -0.6523  0.7026
 6686TIP3    H141473   5.798   3.138  10.174 -0.4038  0.9505  0.6516
 6686TIP3    H241474   5.758   3.125  10.320  0.4045 -1.3106  0.7203
 6687TIP3   OH241475   1.994   1.679   1.381 -0.4294  0.3218  0.0559
 6687TIP3    H141476   2.074   1.627   1.391 -0.5579  0.2144  0.6045
 6687TIP3    H241477   1.923   1.614   1.384 -0.4750 -0.0767 -4.1307
 6688TIP3   OH241478   4.974   3.196   5.064 -0.0346  0.3832  0.8407
 6688TIP3    H141479   4.889   3.232   5.041 -0.0624 -1.0918 -1.8395
 6688TIP3    H241480   5.037   3.247   5.013  0.3450 -0.4723  0.4213
 6689TIP3   OH241481   3.335   2.415   0.274 -0.1439 -0.0622 -0.1649
 6689TIP3    H141482   3.301   2.504   0.269  0.2681  0.1881  1.1119
 6689TIP3    H241483   3.357   2.403   0.366  0.0177 -1.4105 -0.3628
 6690TIP3   OH241484   2.517   1.047  15.710  0.0419 -0.3690 -0.0262
 6690TIP3    H141485   2.521   1.008  15.797  0.4056 -0.2417  0.0160
 6690TIP3    H241486   2.503   1.140  15.726  1.3363 -0.1471 -0.0579
 6691TIP3   OH241487   0.963   3.605  14.270  0.4660 -0.4141 -0.1976
 6691TIP3    H141488   1.009   3.664  14.212 -0.9366  0.5922 -0.3278
 6691TIP3    H241489   1.000   3.519  14.251  1.0347  0.1045 -1.5460
 6692TIP3   OH241490   3.550   1.948   2.096 -0.0546 -0.4271  0.1928
 6692TIP3    H141491   3.462   1.966   2.129 -0.7585 -1.5188 -1.0016
 6692TIP3    H241492   3.589   1.890   2.162 -0.8756 -1.3324 -0.0873
 6693TIP3   OH241493   4.201   6.049   1.878  0.2359 -0.2795 -0.7450
 6693TIP3    H141494   4.264   6.025   1.809  1.0932 -1.3881  0.3859
 6693TIP3    H241495   4.188   6.143   1.866  1.1101 -0.2745 -1.8274
 6694TIP3   OH241496   1.163   1.679  11.067  0.3748  0.2073 -0.0450
 6694TIP3    H141497   1.085   1.625  11.055  0.4797  0.2156 -0.8405
 6694TIP3    H241498   1.145   1.758  11.016  0.1229  1.0493  1.2948
 6695TIP3   OH241499   1.789   5.908   0.568  0.1754 -0.1765 -1.0099
 6695TIP3    H141500   1.739   5.971   0.516  0.6660 -0.1962 -1.5136
 6695TIP3    H241501   1.722   5.855   0.612 -0.3091  2.3193  1.4955
 6696TIP3   OH241502   5.128   2.203   4.799 -0.7763  0.3137 -0.3576
 6696TIP3    H141503   5.211   2.157   4.789 -1.2503 -0.5770 -0.3396
 6696TIP3    H241504   5.152   2.293   4.820  0.1751 -0.1042  0.4150
 6697TIP3   OH241505   6.742   0.305  12.366 -0.7962  0.6409  0.2791
 6697TIP3    H141506   6.695   0.359  12.430 -0.8496  1.8876 -0.7710
 6697TIP3    H241507   6.828   0.346  12.359  0.6989 -1.8065  2.4248
 6698TIP3   OH241508   4.027   2.149  17.128 -0.3225  0.5044 -0.2880
 6698TIP3    H141509   4.021   2.083  17.197  0.3280  2.1655  1.4137
 6698TIP3    H241510   4.062   2.101  17.052 -0.1394 -1.1508  0.7993
 6699TIP3   OH241511   5.280   2.675   2.376 -0.3889 -0.8610  0.0602
 6699TIP3    H141512   5.205   2.617   2.385  0.1263 -1.7983 -1.2745
 6699TIP3    H241513   5.350   2.618   2.343  0.5021  0.2609 -0.0351
 6700TIP3   OH241514   5.549   2.649   2.096  0.8512 -0.1412  0.0217
 6700TIP3    H141515   5.591   2.730   2.065  0.5325 -0.2050 -0.6037
 6700TIP3    H241516   5.603   2.579   2.059  0.5557 -0.2171 -0.2764
 6701TIP3   OH241517   2.988   4.966   5.274  1.1703 -0.4787  0.0543
 6701TIP3    H141518   2.936   4.893   5.307 -1.2999  0.6073 -1.1836
 6701TIP3    H241519   2.994   5.026   5.349 -2.9012  1.1714 -0.6487
 6702TIP3   OH241520   4.797   5.222  15.786 -0.2981  0.0979  0.0310
 6702TIP3    H141521   4.792   5.179  15.700 -0.3736 -0.4303  0.2915
 6702TIP3    H241522   4.804   5.149  15.848  0.9980  0.5164  0.3921
 6703TIP3   OH241523   6.340   2.139  17.090 -0.7548  0.1582 -0.3122
 6703TIP3    H141524   6.381   2.052  17.083 -1.0230  0.0429 -0.4813
 6703TIP3    H241525   6.276   2.130  17.160  0.6158  0.7909  1.0842
 6704TIP3   OH241526   2.113   5.137   0.760  0.3971  0.0127 -0.3935
 6704TIP3    H141527   2.089   5.227   0.780  1.5095  0.4407 -0.9316
 6704TIP3    H241528   2.043   5.106   0.703 -0.5385  0.1771  0.6336
 6705TIP3   OH241529   0.424   0.105  11.253 -0.1325  0.3419 -0.1988
 6705TIP3    H141530   0.413   0.159  11.175 -1.7229  0.2514 -0.0808
 6705TIP3    H241531   0.391   0.161  11.324  1.0771  0.3381  0.3868
 6706TIP3   OH241532   3.219   1.068  16.299 -0.0214  0.3869 -0.5089
 6706TIP3    H141533   3.225   1.159  16.326  0.2052  0.8103 -1.9179
 6706TIP3    H241534   3.310   1.041  16.288 -0.1032  0.1303 -0.5595
 6707TIP3   OH241535   4.912   0.377   3.890 -0.2666 -0.0079 -0.3560
 6707TIP3    H141536   4.916   0.354   3.983 -0.8671 -0.0406 -0.3383
 6707TIP3    H241537   4.819   0.373   3.868 -0.2061  0.7249 -0.7735
 6708TIP3   OH241538   3.686   5.788   1.361  0.0062 -0.2517 -0.1538
 6708TIP3    H141539   3.753   5.787   1.292 -0.4872  2.1942 -0.7870
 6708TIP3    H241540   3.643   5.703   1.355  3.1029 -1.9935  0.3770
 6709TIP3   OH241541   0.521   0.237  14.065  0.0131 -0.2424  0.4165
 6709TIP3    H141542   0.527   0.333  14.056  3.1174 -0.4296 -0.7809
 6709TIP3    H241543   0.567   0.203  13.989 -2.2893 -2.8048  0.0339
 6710TIP3   OH241544   3.811   0.545  17.012  0.0962  0.0209  0.5180
 6710TIP3    H141545   3.804   0.462  16.964  0.4006 -0.1381  0.7474
 6710TIP3    H241546   3.899   0.577  16.993  0.0409  0.2080  0.5691
 6711TIP3   OH241547   5.495   3.407  14.588  0.0896  0.0951 -0.0038
 6711TIP3    H141548   5.503   3.356  14.669  0.9856 -1.5326 -1.0664
 6711TIP3    H241549   5.578   3.455  14.582 -0.3939  1.0297  0.5388
 6712TIP3   OH241550   4.905   2.632   4.816  0.4761 -0.3848 -0.2730
 6712TIP3    H141551   4.947   2.657   4.898 -2.2755  1.7843  0.6335
 6712TIP3    H241552   4.868   2.545   4.833  0.2493 -0.1134  0.6454
 6713TIP3   OH241553   3.705   1.333   5.160 -0.1479 -0.4584  0.0294
 6713TIP3    H141554   3.740   1.355   5.247  0.0297 -0.1762 -0.1114
 6713TIP3    H241555   3.611   1.319   5.175 -0.2606  0.3381  0.1400
 6714TIP3   OH241556   5.308   5.911   2.226 -0.1623 -0.0484 -0.7647
 6714TIP3    H141557   5.268   5.919   2.313  2.0506  2.0570  0.1556
 6714TIP3    H241558   5.242   5.947   2.166 -0.7054  0.8805  0.3624
 6715TIP3   OH241559   0.613   0.091   2.453  0.5990 -0.3182  0.1446
 6715TIP3    H141560   0.590   0.046   2.533 -0.7650  0.2300  0.0870
 6715TIP3    H241561   0.546   0.159   2.443  1.1975  0.1363 -1.0371
 6716TIP3   OH241562   6.064   4.137   6.336  0.3105  0.0577  0.3163
 6716TIP3    H141563   6.038   4.055   6.378  0.8124 -1.6421 -2.3997
 6716TIP3    H241564   6.058   4.203   6.405 -1.7358 -1.9430  2.2285
 6717TIP3   OH241565   1.463   2.306  13.119  0.0925 -0.2743 -0.0690
 6717TIP3    H141566   1.403   2.378  13.139  1.1075  0.8369 -0.8573
 6717TIP3    H241567   1.521   2.302  13.195  1.4522  1.2967 -0.9553
 6718TIP3   OH241568   0.637   0.096  16.042  0.3056 -0.3484  0.4205
 6718TIP3    H141569   0.718   0.047  16.029  0.1178 -0.3859 -0.7104
 6718TIP3    H241570   0.639   0.122  16.134  0.7880 -1.7816  0.8340
 6719TIP3   OH241571   3.615   4.775  13.136  0.3522 -0.7669 -0.3732
 6719TIP3    H141572   3.654   4.850  13.090 -0.0360 -0.7447 -0.6727
 6719TIP3    H241573   3.617   4.705  13.071 -1.5544 -0.3417 -0.9689
 6720TIP3   OH241574   5.117   1.036  16.296  0.3531  0.1113 -0.3843
 6720TIP3    H141575   5.121   0.940  16.294 -0.6212  0.0793 -1.3994
 6720TIP3    H241576   5.148   1.063  16.210 -1.6110  0.5895 -0.9918
 6721TIP3   OH241577   2.783   1.687   2.333 -0.0634 -0.0606  0.1310
 6721TIP3    H141578   2.851   1.656   2.393 -0.4999 -1.3101  0.0256
 6721TIP3    H241579   2.776   1.618   2.267 -1.1187  0.2483 -0.1142
 6722TIP3   OH241580   4.377   6.291   2.039 -0.2776  0.0108 -0.0714
 6722TIP3    H141581   4.466   6.324   2.051  0.1269 -0.8543 -0.5966
 6722TIP3    H241582   4.384   6.231   1.965 -0.9424 -1.4253  0.9878
 6723TIP3   OH241583   1.671   1.995   3.590 -0.0769 -0.5851 -0.8103
 6723TIP3    H141584   1.617   2.056   3.540  1.1415  0.4259 -0.9435
 6723TIP3    H241585   1.707   1.936   3.523  0.9220  0.2759 -1.0553
 6724TIP3   OH241586   4.888   5.349  12.361  0.4227 -0.0058  0.0097
 6724TIP3    H141587   4.966   5.304  12.393  0.0248  0.1209  1.2076
 6724TIP3    H241588   4.815   5.305  12.405 -0.1500  0.2011 -0.7114
 6725TIP3   OH241589   1.920   6.646  11.960  0.4024 -0.1781 -0.1594
 6725TIP3    H141590   1.861   6.575  11.988  1.0608 -1.3406 -1.6227
 6725TIP3    H241591   1.861   6.719  11.943 -0.4577 -0.8333 -0.1008
 6726TIP3   OH241592   4.140   5.262  16.068 -0.5505 -0.8793  0.1486
 6726TIP3    H141593   4.067   5.312  16.104 -1.1150 -1.7095  0.2022
 6726TIP3    H241594   4.194   5.326  16.023 -0.1284  0.1315  1.9657
 6727TIP3   OH241595   5.486   4.311  12.990  0.3807 -0.1405  0.1861
 6727TIP3    H141596   5.564   4.342  13.036  1.4206  0.8015 -2.0536
 6727TIP3    H241597   5.437   4.391  12.970  0.6397 -0.3358 -1.4068
 6728TIP3   OH241598   1.794   0.769  14.525 -0.4214 -0.2950  0.2393
 6728TIP3    H141599   1.724   0.737  14.468 -0.4727 -0.5145  0.4226
 6728TIP3    H241600   1.875   0.734  14.487 -0.2331  1.3076 -0.9265
 6729TIP3   OH241601   1.719   6.390   4.130 -0.0919  0.2826  0.3978
 6729TIP3    H141602   1.773   6.346   4.064 -0.6568  0.7392 -0.3929
 6729TIP3    H241603   1.767   6.380   4.212  0.5800 -0.3801 -0.0697
 6730TIP3   OH241604   2.615   1.899  17.205  0.0464 -0.7429  0.1948
 6730TIP3    H141605   2.562   1.955  17.148  1.4689  0.9819  0.4498
 6730TIP3    H241606   2.662   1.841  17.144  2.9286  2.2648 -0.7697
 6731TIP3   OH241607   1.642   6.453  15.888 -0.3885 -0.1013 -0.4038
 6731TIP3    H141608   1.658   6.365  15.921  0.8468  0.3429  0.2870
 6731TIP3    H241609   1.581   6.442  15.816 -1.1891 -1.3808  0.4464
 6732TIP3   OH241610   4.992   4.395  13.947  0.7459 -0.5391 -0.3814
 6732TIP3    H141611   4.928   4.421  13.880  1.1996 -0.2448 -0.7111
 6732TIP3    H241612   5.016   4.477  13.990  0.6927 -0.6867 -0.0657
 6733TIP3   OH241613   1.560   2.857  13.527 -0.5670  0.4536 -0.0959
 6733TIP3    H141614   1.486   2.810  13.565 -0.0269 -0.0401  0.3729
 6733TIP3    H241615   1.522   2.937  13.491 -0.8688  1.9593  3.1758
 6734TIP3   OH241616   5.320   1.910  16.415 -0.0130 -0.1995  0.3706
 6734TIP3    H141617   5.334   1.940  16.325  3.1790 -0.3567  0.7181
 6734TIP3    H241618   5.236   1.949  16.440 -0.3910  0.8734 -2.2256
 6735TIP3   OH241619   3.259   1.417   2.342 -0.4856 -0.2910  0.4318
 6735TIP3    H141620   3.340   1.450   2.302 -1.0673  0.6313 -0.0248
 6735TIP3    H241621   3.279   1.413   2.435  0.4512 -1.1744  0.2186
 6736TIP3   OH241622   0.687   6.192   5.767 -0.7021 -0.1643 -0.5154
 6736TIP3    H141623   0.651   6.104   5.758 -0.1012 -0.4476 -0.2424
 6736TIP3    H241624   0.751   6.184   5.837 -1.0122  0.6125 -0.1310
 6737TIP3   OH241625   0.054   2.605  10.665  0.2246 -0.4827  0.0341
 6737TIP3    H141626   0.076   2.566  10.749  0.4415 -0.7625 -0.1508
 6737TIP3    H241627   0.064   2.534  10.602  0.0027 -0.2906 -0.2198
 6738TIP3   OH241628   1.592   6.756   2.940 -0.1205 -0.4267  0.5870
 6738TIP3    H141629   1.520   6.751   3.003  0.1924 -0.7194  0.9262
 6738TIP3    H241630   1.579   6.840   2.896 -1.2923 -0.9444 -0.1191
 6739TIP3   OH241631   0.141   1.951   3.403  0.3077 -0.1125  0.5041
 6739TIP3    H141632   0.094   2.023   3.445  0.4235 -0.1997  0.7781
 6739TIP3    H241633   0.148   1.884   3.470 -0.2924 -0.6086  0.0923
 6740TIP3   OH241634   3.683   6.671   2.266  0.1333  0.3345  0.1755
 6740TIP3    H141635   3.596   6.666   2.226 -0.8571 -2.1272  2.2980
 6740TIP3    H241636   3.739   6.620   2.207 -0.2855  0.4291 -0.3090
 6741TIP3   OH241637   5.052   0.372   0.499 -0.7774  0.5972 -0.0209
 6741TIP3    H141638   4.959   0.381   0.477 -0.3819 -0.5273 -2.4322
 6741TIP3    H241639   5.057   0.290   0.548 -0.9754  0.2906 -0.5059
 6742TIP3   OH241640   2.735   4.660  16.874 -0.4478  0.7935  0.4869
 6742TIP3    H141641   2.713   4.578  16.831  0.9965  0.3315  0.5676
 6742TIP3    H241642   2.687   4.658  16.957 -0.0854 -0.1840  0.6906
 6743TIP3   OH241643   2.536   1.387   5.915  0.3750  0.2423 -0.0788
 6743TIP3    H141644   2.515   1.333   5.991  0.4138  2.4107  1.5535
 6743TIP3    H241645   2.631   1.392   5.914  0.3946 -0.1707 -0.5717
 6744TIP3   OH241646   2.590   0.505  11.749 -0.3518 -0.4990 -0.7799
 6744TIP3    H141647   2.595   0.519  11.844 -2.8343  0.4868 -0.7236
 6744TIP3    H241648   2.680   0.512  11.719  0.7846 -2.6855  1.7094
 6745TIP3   OH241649   1.282   6.284  13.651  0.4859  0.2711 -0.1559
 6745TIP3    H141650   1.194   6.270  13.618  0.0680  3.3397 -0.6680
 6745TIP3    H241651   1.283   6.244  13.738 -1.2279 -0.2385 -0.3481
 6746TIP3   OH241652   2.960   3.347  16.633 -0.2959  0.3482  0.2126
 6746TIP3    H141653   3.000   3.273  16.680 -0.0858 -0.1162 -0.6667
 6746TIP3    H241654   3.025   3.417  16.639  0.3775 -0.1700 -0.5778
 6747TIP3   OH241655   4.555   0.020  15.635  0.2801  0.0544  0.0252
 6747TIP3    H141656   4.497   0.069  15.578  0.2692  1.2271  1.0039
 6747TIP3    H241657   4.532  -0.072  15.621 -0.5313  0.4025 -0.9489
 6748TIP3   OH241658   3.523   1.804  10.564 -0.0021 -0.1544  0.0349
 6748TIP3    H141659   3.437   1.768  10.543  0.6709 -0.8994 -1.6524
 6748TIP3    H241660   3.584   1.734  10.542  0.9700 -0.4299  3.1792
 6749TIP3   OH241661   3.302   0.727   6.333 -0.1073  0.4500  0.1599
 6749TIP3    H141662   3.236   0.726   6.403 -1.0277 -0.6695 -0.6875
 6749TIP3    H241663   3.272   0.795   6.273  0.8682  1.6551  0.9605
 6750TIP3   OH241664   5.384   6.725  17.127 -0.0556 -0.5041 -0.0212
 6750TIP3    H141665   5.464   6.677  17.149  0.6235  0.7656  0.4075
 6750TIP3    H241666   5.415   6.812  17.101 -1.3982  0.9591  2.8461
 6751TIP3   OH241667   5.491   1.762   1.192 -0.2224 -0.0109 -0.3786
 6751TIP3    H141668   5.480   1.806   1.276  1.2492  1.0740 -0.7222
 6751TIP3    H241669   5.580   1.784   1.164 -0.5158 -0.7337 -2.0024
 6752TIP3   OH241670   3.146   0.124   0.038 -0.0361 -0.2445  0.0610
 6752TIP3    H141671   3.182   0.089  -0.043  1.9608  1.8033 -0.0500
 6752TIP3    H241672   3.119   0.047   0.088 -0.9956 -1.5743 -2.3424
 6753TIP3   OH241673   2.237   2.162   5.881  0.1859 -0.0375 -0.4126
 6753TIP3    H141674   2.310   2.190   5.935  0.3435 -1.3615  0.1131
 6753TIP3    H241675   2.225   2.232   5.818  1.4976  0.4909 -0.1062
 6754TIP3   OH241676   3.292   4.993  14.148  0.3363 -0.5632  0.3561
 6754TIP3    H141677   3.225   4.984  14.080  1.1183  1.6193 -0.8167
 6754TIP3    H241678   3.253   5.050  14.213  0.7515  0.0549  0.0705
 6755TIP3   OH241679   3.857   4.342  11.975  0.5808 -0.3854  0.2490
 6755TIP3    H141680   3.902   4.353  11.891  1.6232 -0.2143  0.8116
 6755TIP3    H241681   3.830   4.430  11.999  0.8484 -0.3412  0.3928
 6756TIP3   OH241682   0.122   1.447   3.609 -0.5977 -0.1660  0.1695
 6756TIP3    H141683   0.147   1.509   3.540 -0.1971 -0.8852 -0.3496
 6756TIP3    H241684   0.188   1.458   3.677 -1.4883  1.1683  0.8452
 6757TIP3   OH241685   3.122   4.442   1.364  0.3575 -0.2801 -0.0524
 6757TIP3    H141686   3.150   4.381   1.432  1.3742 -1.1880 -1.2281
 6757TIP3    H241687   3.135   4.394   1.282 -1.1131  0.6656 -0.8833
 6758TIP3   OH241688   0.949   2.171  14.134  0.2196 -0.2858 -0.0094
 6758TIP3    H141689   0.937   2.079  14.159 -3.9872  0.0421  0.0365
 6758TIP3    H241690   0.931   2.220  14.214 -0.2211  0.5592 -0.6091
 6759TIP3   OH241691   1.362   1.206  11.245 -0.2361 -0.1042 -0.2139
 6759TIP3    H141692   1.409   1.254  11.313 -0.2121  0.7498 -0.8123
 6759TIP3    H241693   1.306   1.146  11.292  1.5623 -1.2825  0.5301
 6760TIP3   OH241694   1.532   1.881   1.879  0.3951 -0.3678 -0.2126
 6760TIP3    H141695   1.458   1.849   1.828  0.0875  0.8899 -0.5942
 6760TIP3    H241696   1.493   1.912   1.961  0.7388 -1.2722  0.3169
 6761TIP3   OH241697   2.570   0.135  13.361 -0.0689 -0.2852  0.1549
 6761TIP3    H141698   2.624   0.214  13.356 -1.2861  0.5056 -1.4668
 6761TIP3    H241699   2.531   0.139  13.449 -0.9279  1.5163 -0.2641
 6762TIP3   OH241700   5.946   1.810  14.660 -0.3183  0.2265  0.7860
 6762TIP3    H141701   6.020   1.832  14.604 -0.4214  1.0666  0.9730
 6762TIP3    H241702   5.982   1.749  14.724 -0.3323 -1.2307 -0.5303
 6763TIP3   OH241703   2.834   3.348   2.780 -0.0628 -0.4837 -0.0502
 6763TIP3    H141704   2.763   3.378   2.724 -0.2958  0.5569  0.7802
 6763TIP3    H241705   2.896   3.421   2.782  1.2148 -1.4691 -0.9933
 6764TIP3   OH241706   1.993   3.640  11.921 -0.6301  0.3282 -0.1640
 6764TIP3    H141707   2.014   3.550  11.899 -3.3707 -0.3440 -0.3835
 6764TIP3    H241708   2.017   3.690  11.842  1.8000  0.0453  0.2959
 6765TIP3   OH241709   4.872   3.987   1.162 -0.2361 -0.2697  0.3046
 6765TIP3    H141710   4.783   4.020   1.150  0.8738  2.3760 -1.7494
 6765TIP3    H241711   4.891   3.938   1.082  0.0521 -1.2049  0.9238
 6766TIP3   OH241712   3.357   5.327  12.854  0.4640 -0.1834 -0.3361
 6766TIP3    H141713   3.442   5.284  12.842  1.3176  1.4002 -0.2399
 6766TIP3    H241714   3.321   5.331  12.765  1.3735  0.8429 -0.6805
 6767TIP3   OH241715   0.410   6.296  16.089  0.4887  0.4010  0.3919
 6767TIP3    H141716   0.484   6.283  16.029  0.0482 -0.4434  0.0192
 6767TIP3    H241717   0.425   6.232  16.159  0.3738  0.5714  0.5720
 6768TIP3   OH241718   3.234   5.655   4.534 -0.2440 -0.2615 -0.1717
 6768TIP3    H141719   3.229   5.564   4.503  1.5744 -0.4460 -0.0325
 6768TIP3    H241720   3.232   5.707   4.454  0.2853 -0.5210 -0.3608
 6769TIP3   OH241721   1.756   5.090  14.489  0.3106  0.0183  0.0999
 6769TIP3    H141722   1.743   5.096  14.583  0.7213 -0.6208  0.2072
 6769TIP3    H241723   1.796   5.004  14.476  0.9448  0.4006 -0.5736
 6770TIP3   OH241724   4.950   1.577   4.236 -0.2568 -0.0502  0.2021
 6770TIP3    H141725   4.966   1.573   4.330 -0.8137 -2.3313  0.2533
 6770TIP3    H241726   4.913   1.664   4.222  0.1425  0.4523  2.0386
 6771TIP3   OH241727   3.087   2.347   2.827 -0.4479 -0.0274 -0.4351
 6771TIP3    H141728   3.055   2.431   2.795 -2.5533  0.7138  3.0236
 6771TIP3    H241729   3.026   2.283   2.790  0.5735 -0.0036 -2.2831
 6772TIP3   OH241730   4.566   2.702   0.218 -0.5505 -0.2875  0.6429
 6772TIP3    H141731   4.514   2.697   0.298 -1.0422  0.2539  0.3624
 6772TIP3    H241732   4.624   2.777   0.232 -0.7385 -0.1028  0.4326
 6773TIP3   OH241733   4.041   2.174   3.131  0.3129  0.7151  0.1487
 6773TIP3    H141734   4.054   2.080   3.132 -0.6235  0.5439 -1.1063
 6773TIP3    H241735   3.966   2.189   3.188  1.0516  0.8182  1.1064
 6774TIP3   OH241736   4.127   3.897   1.665 -0.3700 -0.5133 -0.9933
 6774TIP3    H141737   4.150   3.984   1.630  1.8706  0.2440  1.9770
 6774TIP3    H241738   4.208   3.865   1.705 -1.4768 -3.4911 -0.8817
 6775TIP3   OH241739   6.547   2.198   0.081  0.0475  0.1726  0.1372
 6775TIP3    H141740   6.626   2.229   0.036 -0.1833  0.4283 -0.0941
 6775TIP3    H241741   6.476   2.214   0.019 -0.4692  1.7308  1.0702
 6776TIP3   OH241742   5.457   6.476  14.763  0.1391  1.1292 -0.0246
 6776TIP3    H141743   5.405   6.537  14.711 -0.8653  0.6538  0.3846
 6776TIP3    H241744   5.462   6.397  14.709 -1.4479  0.4056  0.7950
 6777TIP3   OH241745   3.012   4.134   1.391  0.5534 -0.4212 -0.0247
 6777TIP3    H141746   2.934   4.078   1.389  0.0873  0.1624  0.9000
 6777TIP3    H241747   3.009   4.175   1.477 -0.5538  2.9916 -1.5358
 6778TIP3   OH241748   3.972   3.310   5.939  0.1472  0.1434  0.1316
 6778TIP3    H141749   3.962   3.384   5.878 -3.1299  0.1360  0.4727
 6778TIP3    H241750   3.983   3.234   5.882 -0.3801  0.4523 -0.3982
 6779TIP3   OH241751   1.384   5.521  17.115  0.5752  0.3573 -0.4522
 6779TIP3    H141752   1.308   5.479  17.074  0.8839 -1.4365  0.6872
 6779TIP3    H241753   1.458   5.494  17.060  0.5672  1.0022 -0.7921
 6780TIP3   OH241754   3.478   6.372   0.180  0.3374  0.6722 -0.0022
 6780TIP3    H141755   3.516   6.297   0.134 -1.5167  0.1085 -0.7002
 6780TIP3    H241756   3.521   6.372   0.266  0.6932 -0.9075 -0.1579
 6781TIP3   OH241757   2.597   4.638  12.640 -0.3380  0.1481 -0.4196
 6781TIP3    H141758   2.562   4.608  12.557  0.8340 -1.4489 -0.3877
 6781TIP3    H241759   2.650   4.565  12.672  0.5753  1.3312  0.9312
 6782TIP3   OH241760   2.742   0.395  12.047  0.0799 -1.2190 -0.3878
 6782TIP3    H141761   2.705   0.344  12.120  0.4933  0.3130  0.9536
 6782TIP3    H241762   2.734   0.486  12.076  2.5060 -0.6855 -1.1820
 6783TIP3   OH241763   3.714   1.222  12.932 -0.1294 -0.3021  0.3152
 6783TIP3    H141764   3.778   1.167  12.976 -0.8497 -1.5574 -0.1498
 6783TIP3    H241765   3.629   1.196  12.970 -0.8482 -1.8498 -2.0775
 6784TIP3   OH241766   2.623   2.332   3.334 -0.2126 -0.2655  0.1638
 6784TIP3    H141767   2.668   2.337   3.418 -1.7982 -1.2266  1.1149
 6784TIP3    H241768   2.551   2.271   3.349  0.2265 -1.4787 -2.2770
 6785TIP3   OH241769   3.374   3.472  16.269  0.3663 -0.3103  0.5238
 6785TIP3    H141770   3.418   3.473  16.184  0.8451 -0.0033  0.7672
 6785TIP3    H241771   3.368   3.380  16.293  1.3064 -0.3394  0.6937
 6786TIP3   OH241772   3.011   2.104   0.577  0.3095  0.2662 -0.2507
 6786TIP3    H141773   3.032   2.179   0.521 -1.3963  1.8850  1.1392
 6786TIP3    H241774   3.077   2.107   0.647  0.9151 -0.2318 -0.7893
 6787TIP3   OH241775   0.934   3.230  16.714  0.6519 -0.8833  0.6308
 6787TIP3    H141776   0.873   3.303  16.715  1.7937  0.1545 -0.4316
 6787TIP3    H241777   0.879   3.152  16.708 -0.5682 -0.0042 -0.0614
 6788TIP3   OH241778   3.994   2.243   0.275  0.1824 -0.0423 -0.3569
 6788TIP3    H141779   4.017   2.333   0.251  0.2550 -0.1827 -0.8279
 6788TIP3    H241780   3.904   2.233   0.246 -0.2439  0.2617  0.7971
 6789TIP3   OH241781   1.909   0.066   1.280 -0.2887 -0.5386 -0.3153
 6789TIP3    H141782   1.930   0.159   1.272 -2.5347  0.2126  1.3787
 6789TIP3    H241783   1.823   0.058   1.238  0.2622 -2.0764 -1.2419
 6790TIP3   OH241784   5.147   6.414  12.741  0.6773 -0.3801 -0.0735
 6790TIP3    H141785   5.206   6.422  12.666  1.1437 -0.1248  0.3200
 6790TIP3    H241786   5.171   6.330  12.781 -0.2166 -0.9827 -0.7541
 6791TIP3   OH241787   3.634   0.700   2.657 -0.3925  0.3807 -0.0593
 6791TIP3    H141788   3.684   0.739   2.728 -1.1859  0.3832  0.5193
 6791TIP3    H241789   3.545   0.736   2.668 -0.7283 -0.2703 -0.5423
 6792TIP3   OH241790   1.651   4.240  12.870 -0.0455 -0.3915 -0.0523
 6792TIP3    H141791   1.738   4.274  12.892 -0.4107  1.5141 -1.3369
 6792TIP3    H241792   1.655   4.220  12.777 -0.8573 -0.7099 -0.0286
 6793TIP3   OH241793   2.752   5.433  15.603  0.1737 -0.2892 -0.3989
 6793TIP3    H141794   2.773   5.489  15.528 -1.3533 -0.6137 -1.0966
 6793TIP3    H241795   2.738   5.346  15.566 -1.2939 -0.3138  0.1277
 6794TIP3   OH241796   2.696   1.381  12.565  0.2338  0.1925  0.0500
 6794TIP3    H141797   2.705   1.449  12.633 -0.4799  0.8725 -0.5159
 6794TIP3    H241798   2.626   1.324  12.598 -2.5250  2.3953 -1.5471
 6795TIP3   OH241799   3.998   1.467  17.212  0.7885 -0.0107 -0.2173
 6795TIP3    H141800   3.947   1.532  17.163  1.0821  0.1984 -0.2482
 6795TIP3    H241801   3.939   1.393  17.223  0.8021 -0.1576 -1.1010
 6796TIP3   OH241802   5.769   5.223   0.541 -0.4040 -0.9738  0.2825
 6796TIP3    H141803   5.828   5.208   0.467  0.7770 -0.5014  1.1025
 6796TIP3    H241804   5.700   5.278   0.505 -0.4999 -1.7360 -0.7637
 6797TIP3   OH241805   1.051   6.410  15.504  0.4489 -0.1596  1.0638
 6797TIP3    H141806   1.133   6.364  15.520  0.2706 -0.8170  0.1942
 6797TIP3    H241807   1.013   6.366  15.427  0.0897  1.1883  0.4276
 6798TIP3   OH241808   3.006   1.570  11.920 -1.0370  0.1845  0.2698
 6798TIP3    H141809   2.912   1.589  11.926 -0.5489  2.5614  2.5724
 6798TIP3    H241810   3.023   1.510  11.994 -0.9983 -1.9801 -1.3962
 6799TIP3   OH241811   6.270   2.134  12.719 -0.6786  0.0877 -0.2874
 6799TIP3    H141812   6.235   2.155  12.633 -1.5861 -1.0940 -0.2357
 6799TIP3    H241813   6.332   2.062  12.703  0.1408  0.7365 -0.1039
 6800TIP3   OH241814   2.131   1.871  13.514 -0.4758 -0.5431 -0.0719
 6800TIP3    H141815   2.036   1.865  13.521 -0.4084 -0.2934  1.5308
 6800TIP3    H241816   2.156   1.937  13.579  0.5711  1.5731 -2.4470
 6801TIP3   OH241817   0.866   4.545   1.147  0.4782  0.3123  0.4560
 6801TIP3    H141818   0.915   4.462   1.149  1.1525  0.7052  2.6862
 6801TIP3    H241819   0.934   4.612   1.147 -0.0748  0.8864 -0.2507
 6802TIP3   OH241820   2.963   3.852   3.190  0.5358 -0.1985  0.1281
 6802TIP3    H141821   2.900   3.860   3.119  0.7794 -1.0068 -0.1833
 6802TIP3    H241822   3.046   3.880   3.151  0.4395  0.5797  0.4561
 6803TIP3   OH241823   2.127   5.983  15.037  1.0246 -0.2190 -0.1117
 6803TIP3    H141824   2.167   5.957  14.954  0.9387  0.3156 -0.3247
 6803TIP3    H241825   2.165   6.068  15.057 -0.9968  0.9697 -1.0157
 6804TIP3   OH241826   1.960   5.404   0.779 -0.1052  0.2907  0.4336
 6804TIP3    H141827   1.922   5.317   0.787  0.2348 -0.0911 -1.6174
 6804TIP3    H241828   1.898   5.453   0.725  0.8253  0.5862 -0.3977
 6805TIP3   OH241829   5.671   3.801   0.893  0.1334  0.4663 -0.4868
 6805TIP3    H141830   5.626   3.728   0.934  1.0800 -0.1868 -0.5919
 6805TIP3    H241831   5.760   3.797   0.928  0.5066  0.8768 -1.3723
 6806TIP3   OH241832   6.624   3.848   6.245 -0.3767 -0.0835  0.1499
 6806TIP3    H141833   6.653   3.809   6.327 -1.8516 -0.1339  0.6903
 6806TIP3    H241834   6.628   3.942   6.260  0.1217 -0.0811 -0.0052
 6807TIP3   OH241835   2.963   0.688   2.870 -0.3236 -0.3532 -0.0254
 6807TIP3    H141836   2.885   0.734   2.840 -1.1950 -0.9736  1.1770
 6807TIP3    H241837   2.931   0.628   2.938  1.1298 -0.9753  0.1596
 6808TIP3   OH241838   0.951   0.707  14.474  0.3529  0.7174 -0.4415
 6808TIP3    H141839   0.956   0.624  14.428  1.8746 -0.7552  2.1279
 6808TIP3    H241840   0.860   0.712  14.504  0.4001 -0.3842 -0.0655
 6809TIP3   OH241841   6.409   6.533   3.838 -0.2630 -0.3838 -0.2327
 6809TIP3    H141842   6.428   6.444   3.809 -1.5499 -1.5690  2.2622
 6809TIP3    H241843   6.314   6.536   3.847 -0.1469  0.8498  0.8632
 6810TIP3   OH241844   1.625   4.120  12.205  0.4227 -0.5972 -0.0580
 6810TIP3    H141845   1.708   4.168  12.197  0.1169  0.0444  0.5291
 6810TIP3    H241846   1.558   4.186  12.189 -0.0366 -0.5900  1.6760
 6811TIP3   OH241847   5.377   2.822   1.400  0.4361  0.4383  0.2275
 6811TIP3    H141848   5.362   2.916   1.398  1.5601  0.6405 -1.8253
 6811TIP3    H241849   5.297   2.784   1.364 -0.0653  0.5726  1.1698
 6812TIP3   OH241850   1.561   2.885   2.347 -0.1307 -0.2427  0.1084
 6812TIP3    H141851   1.517   2.832   2.413  3.6553 -2.9665  0.8121
 6812TIP3    H241852   1.560   2.830   2.268  2.5586 -0.9015  0.4276
 6813TIP3   OH241853   0.487   2.722  16.335  0.5111 -0.0229 -0.6466
 6813TIP3    H141854   0.449   2.710  16.248  2.6890  1.3994 -1.9084
 6813TIP3    H241855   0.492   2.633  16.372 -2.0476 -0.4569 -1.1935
 6814TIP3   OH241856   3.431   4.224  12.494  0.1315 -0.1450  0.6574
 6814TIP3    H141857   3.501   4.175  12.537  0.3366  0.3343  0.8816
 6814TIP3    H241858   3.395   4.163  12.430  0.8660 -0.3428  0.4161
 6815TIP3   OH241859   5.611   3.410   5.061 -0.5528  0.5363  0.3358
 6815TIP3    H141860   5.625   3.501   5.088  1.5123  0.5586 -0.6209
 6815TIP3    H241861   5.553   3.415   4.985 -1.1258  0.9665  0.7939
 6816TIP3   OH241862   4.686   5.114  16.210 -0.8259 -0.7812  0.4828
 6816TIP3    H141863   4.637   5.153  16.283  0.5628 -0.6417  1.4066
 6816TIP3    H241864   4.758   5.176  16.195 -0.2761 -1.5274 -0.0289
 6817TIP3   OH241865   2.885   6.607   1.588 -1.2011 -0.1295 -0.8769
 6817TIP3    H141866   2.908   6.689   1.545 -0.7843 -0.5114 -1.3967
 6817TIP3    H241867   2.797   6.621   1.623 -0.3214  1.2776  0.8997
 6818TIP3   OH241868   6.464   6.582   4.141  0.3338  0.3547 -0.2525
 6818TIP3    H141869   6.477   6.561   4.048 -0.7416  1.3522 -0.6640
 6818TIP3    H241870   6.376   6.620   4.144  0.5743  0.8574  1.0904
 6819TIP3   OH241871   1.936   5.306   5.231 -0.3017 -0.1900  0.1540
 6819TIP3    H141872   1.987   5.231   5.200  0.2650  0.3202 -0.1676
 6819TIP3    H241873   2.001   5.364   5.270 -0.7727  0.0197  0.6308
 6820TIP3   OH241874   3.276   4.735  12.479 -0.4613 -0.0534 -0.1067
 6820TIP3    H141875   3.214   4.779  12.537 -1.6382 -0.8394 -0.7326
 6820TIP3    H241876   3.347   4.706  12.537 -1.0107  0.2492  0.7343
 6821TIP3   OH241877   3.996   4.496   5.910 -0.2095 -0.0453 -0.8862
 6821TIP3    H141878   4.080   4.542   5.917 -0.5567  0.4082  0.6679
 6821TIP3    H241879   4.011   4.411   5.952 -0.5889  0.1458 -0.3530
 6822TIP3   OH241880   3.034   2.661  11.240 -0.8168 -0.7467  0.2964
 6822TIP3    H141881   2.955   2.654  11.292 -0.6401 -2.2839  0.4016
 6822TIP3    H241882   3.026   2.591  11.174  0.6048 -1.1865  0.5485
 6823TIP3   OH241883   4.685   2.867  14.942 -0.0123  0.5288  0.2263
 6823TIP3    H141884   4.699   2.871  14.847 -1.5360 -0.7419 -0.1195
 6823TIP3    H241885   4.607   2.920  14.956 -1.4678 -1.4878  0.2785
 6824TIP3   OH241886   5.441   2.180   2.496  0.1821  0.4178  0.5551
 6824TIP3    H141887   5.482   2.107   2.542 -0.3812  0.8103  1.7367
 6824TIP3    H241888   5.377   2.214   2.558 -0.8575  0.7753 -0.6694
 6825TIP3   OH241889   4.099   4.403  11.146 -0.5524  0.4680  0.3922
 6825TIP3    H141890   4.099   4.492  11.182  0.6132 -0.1140  1.9068
 6825TIP3    H241891   4.015   4.397  11.100 -2.2849  1.2138  3.1895
 6826TIP3   OH241892   4.750   5.386  13.922 -0.2326 -0.1928 -0.3001
 6826TIP3    H141893   4.809   5.442  13.870  0.3214 -0.9153 -0.4688
 6826TIP3    H241894   4.794   5.377  14.006 -1.4334  1.4994  0.5744
 6827TIP3   OH241895   2.402   4.237  12.217 -1.0296 -0.7115  0.0962
 6827TIP3    H141896   2.433   4.266  12.303  1.6135 -0.2962 -0.8920
 6827TIP3    H241897   2.482   4.209  12.172 -2.2468 -0.2860 -2.4558
 6828TIP3   OH241898   1.680   3.736  12.743  0.5590 -0.2661 -0.7306
 6828TIP3    H141899   1.714   3.691  12.821 -2.1076 -0.3192  0.5131
 6828TIP3    H241900   1.631   3.811  12.778 -0.8538 -0.3849 -2.3129
 6829TIP3   OH241901   3.790   0.547   0.584  0.3091 -0.4501 -0.1062
 6829TIP3    H141902   3.778   0.557   0.490  2.5750 -1.5174 -0.5786
 6829TIP3    H241903   3.757   0.460   0.604 -1.9265  0.4694  0.5022
 6830TIP3   OH241904   5.966   5.651   4.848 -0.1556  0.2939  0.0599
 6830TIP3    H141905   5.888   5.647   4.794  0.7160  1.0866 -1.3484
 6830TIP3    H241906   6.037   5.624   4.790  0.6931  0.1916  1.1080
 6831TIP3   OH241907   5.545   1.235  15.471 -0.2128  0.2348 -0.0670
 6831TIP3    H141908   5.509   1.191  15.394  0.3753 -2.1375  0.9065
 6831TIP3    H241909   5.629   1.270  15.442 -0.8573  1.0592 -0.9696
 6832TIP3   OH241910   3.403   5.908  11.987 -0.2520  0.0930 -0.0032
 6832TIP3    H141911   3.346   5.875  11.918 -1.9895 -1.6096  2.0929
 6832TIP3    H241912   3.474   5.845  11.992  1.1358  1.4266 -1.6299
 6833TIP3   OH241913   4.788   1.597  16.421  0.0276  0.0040 -0.4760
 6833TIP3    H141914   4.767   1.560  16.335 -0.1212 -0.1337 -0.3827
 6833TIP3    H241915   4.884   1.601  16.422  0.0252  0.1523 -0.7082
 6834TIP3   OH241916   1.286   1.182  15.613 -0.6526  0.6094 -0.1049
 6834TIP3    H141917   1.263   1.148  15.527 -0.3062 -0.7687  0.3215
 6834TIP3    H241918   1.241   1.125  15.675  0.2376  0.6992  0.6519
 6835TIP3   OH241919   1.939   1.934  13.707 -0.6533  0.7530 -0.0172
 6835TIP3    H141920   1.976   1.849  13.731 -1.9626 -0.6102 -2.4086
 6835TIP3    H241921   2.015   1.991  13.698  0.4588 -0.6876 -0.2112
 6836TIP3   OH241922   2.874   2.894  17.139  0.1530 -0.3102  0.3933
 6836TIP3    H141923   2.906   2.935  17.219 -1.1777  0.3643  0.5969
 6836TIP3    H241924   2.947   2.903  17.077 -0.2938  3.0708  0.1868
 6837TIP3   OH241925   2.096   4.146  15.392  0.2967 -0.2042  0.6702
 6837TIP3    H141926   2.110   4.103  15.476 -0.2783 -1.1077  0.3234
 6837TIP3    H241927   2.001   4.149  15.382  0.3621 -0.9638 -0.3490
 6838TIP3   OH241928   4.184   5.097  16.454  0.3030  0.0954  0.0733
 6838TIP3    H141929   4.243   5.079  16.528 -0.8764 -2.1859  0.5707
 6838TIP3    H241930   4.135   5.175  16.481  0.4213 -0.2547  1.3905
 6839TIP3   OH241931   1.400   0.019  16.703  0.3965  0.2112  0.2818
 6839TIP3    H141932   1.455  -0.007  16.630 -0.3464 -0.8827  0.0970
 6839TIP3    H241933   1.423   0.111  16.718  0.5574  0.4736 -1.3337
 6840TIP3   OH241934   2.170   2.563  17.093  0.5935 -0.3558 -0.6590
 6840TIP3    H141935   2.125   2.481  17.111 -0.5975  0.7698  2.0384
 6840TIP3    H241936   2.263   2.542  17.098  0.3180 -1.6627 -0.7943
 6841TIP3   OH241937   0.151   2.673  13.497 -0.3796  0.1408 -0.4106
 6841TIP3    H141938   0.165   2.763  13.525  0.0072 -0.3230  0.9539
 6841TIP3    H241939   0.058   2.657  13.509 -0.4710  0.3958 -0.7760
 6842TIP3   OH241940   4.379   3.151   4.344  0.7548 -0.2802  0.2269
 6842TIP3    H141941   4.366   3.080   4.281  0.9307 -1.4252  1.4437
 6842TIP3    H241942   4.464   3.132   4.384  0.2109 -0.1299  1.4895
 6843TIP3   OH241943   3.933   4.928  15.914  0.6282  0.6029 -0.3557
 6843TIP3    H141944   3.888   4.844  15.909 -1.5979  1.6639  0.3471
 6843TIP3    H241945   3.980   4.925  15.997 -1.0035  0.7084  0.6205
 6844TIP3   OH241946   2.218   5.153   3.882  0.0274 -0.0117  0.2258
 6844TIP3    H141947   2.138   5.196   3.911  0.6645  0.0706  1.9837
 6844TIP3    H241948   2.187   5.081   3.826 -1.4394 -1.1541  2.3468
 6845TIP3   OH241949   3.898   2.302   1.334  0.2899 -0.6363 -0.2604
 6845TIP3    H141950   3.826   2.344   1.381  2.0360 -0.1484  2.1175
 6845TIP3    H241951   3.977   2.331   1.378  1.9694 -1.6566 -2.3856
 6846TIP3   OH241952   0.537   5.391   5.675 -0.6513 -0.0834 -1.2116
 6846TIP3    H141953   0.540   5.296   5.675 -0.4052 -0.1012  0.3747
 6846TIP3    H241954   0.616   5.418   5.628  0.1890 -0.6804 -0.1858
 6847TIP3   OH241955   5.973   3.463   0.377  0.1087 -0.4051  0.9960
 6847TIP3    H141956   5.936   3.466   0.289 -1.4855 -1.6557  1.5664
 6847TIP3    H241957   6.037   3.534   0.378 -0.8763  0.6051 -0.7022
 6848TIP3   OH241958   2.836   4.500  12.313 -0.0249 -0.3035 -0.3774
 6848TIP3    H141959   2.926   4.485  12.284 -0.0104  1.0729 -1.0979
 6848TIP3    H241960   2.841   4.576  12.371 -0.5502 -1.0036  0.6084
 6849TIP3   OH241961   6.621   5.858   0.046 -0.0527 -0.3545 -0.1210
 6849TIP3    H141962   6.529   5.869   0.023 -0.4971 -0.7469  1.3371
 6849TIP3    H241963   6.644   5.939   0.091  0.2263 -0.3806 -0.2152
 6850TIP3   OH241964   5.751   6.017  11.059  0.3517  0.1932  0.0972
 6850TIP3    H141965   5.738   5.926  11.082  2.6416 -0.2383 -0.1558
 6850TIP3    H241966   5.776   6.015  10.966 -1.7325  1.3096 -0.5716
 6851TIP3   OH241967   5.924   2.135   4.616 -0.1311 -0.3885 -0.3179
 6851TIP3    H141968   5.855   2.168   4.674 -0.9427 -2.2195 -0.1611
 6851TIP3    H241969   5.922   2.040   4.628 -0.3276 -0.8714 -3.3225
 6852TIP3   OH241970   3.431   4.768  15.566 -0.1463  0.0642  0.4202
 6852TIP3    H141971   3.444   4.783  15.473  0.4309  0.4550  0.5543
 6852TIP3    H241972   3.368   4.835  15.593 -2.1671 -1.5165 -0.1326
 6853TIP3   OH241973   3.815   1.057  12.209 -0.0420  0.1046 -0.2448
 6853TIP3    H141974   3.781   1.002  12.280 -0.9542  1.5621  0.5021
 6853TIP3    H241975   3.904   1.078  12.236 -0.0363 -0.1818 -0.0355
 6854TIP3   OH241976   1.288   0.827  15.570 -0.1554 -0.2824  0.2954
 6854TIP3    H141977   1.275   0.767  15.644  0.4560 -0.6914  0.0756
 6854TIP3    H241978   1.380   0.817  15.547 -0.3451 -0.1683 -0.5329
 6855TIP3   OH241979   5.644   6.231  13.629 -0.9244 -0.3159 -0.2213
 6855TIP3    H141980   5.613   6.203  13.714  0.8155 -1.5289  0.0766
 6855TIP3    H241981   5.580   6.197  13.567 -1.3815 -0.7649  0.4865
 6856TIP3   OH241982   3.005   3.487  14.937  0.5675  0.8004 -0.4338
 6856TIP3    H141983   3.071   3.519  14.999  0.0515  1.6852 -0.3253
 6856TIP3    H241984   3.018   3.540  14.859  0.4708  0.4623 -0.6807
 6857TIP3   OH241985   5.736   2.623  14.126  1.0996  0.1104 -0.3462
 6857TIP3    H141986   5.828   2.639  14.149  1.0779  0.8422 -0.7289
 6857TIP3    H241987   5.725   2.664  14.040  0.2147  0.7683  0.0539
 6858TIP3   OH241988   4.885   6.714   1.030 -0.0829  0.3900  0.0016
 6858TIP3    H141989   4.866   6.711   1.123 -0.9683  1.2012 -0.1320
 6858TIP3    H241990   4.832   6.787   0.997 -1.5611 -1.2558 -1.5058
 6859TIP3   OH241991   1.118   5.955   5.519 -0.1067  0.5525 -0.2600
 6859TIP3    H141992   1.065   5.972   5.441 -0.6862 -1.2450 -0.3029
 6859TIP3    H241993   1.056   5.923   5.584  0.5668  0.8364  0.5357
 6860TIP3   OH241994   1.866   0.444  14.224 -0.7583  0.0527 -0.4276
 6860TIP3    H141995   1.789   0.412  14.270 -0.3070  0.3093  0.5150
 6860TIP3    H241996   1.865   0.398  14.140 -0.9834 -1.2556  0.2733
 6861TIP3   OH241997   5.813   6.746  16.333 -0.0127  0.2726 -0.2212
 6861TIP3    H141998   5.774   6.816  16.384  0.0110  0.0176  0.1497
 6861TIP3    H241999   5.770   6.752  16.248 -2.3963 -1.2737  0.7644
 6862TIP3   OH242000   6.207   6.343  13.874  0.3879  0.2021  0.9363
 6862TIP3    H142001   6.199   6.251  13.849  2.1120  0.6356 -1.5787
 6862TIP3    H242002   6.273   6.343  13.944  1.2576 -0.3942  0.1451
 6863TIP3   OH242003   0.632   1.294  14.391  0.4534 -0.1887  0.0809
 6863TIP3    H142004   0.638   1.387  14.412  1.0487 -0.2014 -0.0345
 6863TIP3    H242005   0.636   1.251  14.477  0.1130 -0.1081  0.1401
 6864TIP3   OH242006   6.406   1.219   6.156 -0.0185  0.2784 -0.2717
 6864TIP3    H142007   6.407   1.169   6.237  0.2182  1.5589  0.5415
 6864TIP3    H242008   6.342   1.173   6.101 -1.2560  0.1835  1.1689
 6865TIP3   OH242009   2.881   1.250  11.309  0.5782  0.9414  0.4647
 6865TIP3    H142010   2.807   1.225  11.254  0.2613  2.1307  0.3191
 6865TIP3    H242011   2.954   1.261  11.248  0.3873  1.6438  0.3633
 6866TIP3   OH242012   0.843   5.568  16.644  0.0911 -0.2722  0.0675
 6866TIP3    H142013   0.770   5.569  16.582 -0.3987 -0.3062  0.6410
 6866TIP3    H242014   0.911   5.620  16.601 -0.6166  0.5829 -0.0564
 6867TIP3   OH242015   6.296   0.469   3.252  0.4760  0.7220 -0.0572
 6867TIP3    H142016   6.390   0.489   3.245  0.5052  0.8656  0.6084
 6867TIP3    H242017   6.292   0.382   3.290  0.3334  0.1558 -1.3129
 6868TIP3   OH242018   1.562   4.891  14.589 -0.2681  0.6341 -0.3090
 6868TIP3    H142019   1.598   4.974  14.558 -0.5711  0.2466 -1.7687
 6868TIP3    H242020   1.470   4.893  14.564 -0.2551 -0.1786 -0.4538
 6869TIP3   OH242021   2.790   0.945   0.328 -0.0050  0.0639 -0.4313
 6869TIP3    H142022   2.732   1.020   0.343  0.4734  0.3301  0.1413
 6869TIP3    H242023   2.809   0.948   0.234 -0.6221  0.1893 -0.5574
 6870TIP3   OH242024   6.465   2.905   6.227 -0.3287 -0.4269 -0.0057
 6870TIP3    H142025   6.529   2.843   6.260 -0.2174 -0.5859 -0.5092
 6870TIP3    H242026   6.441   2.958   6.303  0.1234 -0.6038  0.2636
 6871TIP3   OH242027   6.079   4.584  15.758 -0.1552  0.1360 -0.1121
 6871TIP3    H142028   6.086   4.575  15.663 -0.8578  1.2766 -0.2961
 6871TIP3    H242029   6.159   4.545  15.793  0.1787 -0.1485 -1.1762
 6872TIP3   OH242030   0.190   5.587  15.772  0.1085 -0.4495 -0.3657
 6872TIP3    H142031   0.238   5.574  15.690  1.9367  3.2176 -0.1163
 6872TIP3    H242032   0.253   5.563  15.840 -0.6171 -1.3553  0.0015
 6873TIP3   OH242033   4.203   1.321  10.991  0.1745  0.0510  0.0118
 6873TIP3    H142034   4.268   1.285  11.051  0.6516 -1.2925 -1.2577
 6873TIP3    H242035   4.119   1.288  11.024  0.2018  1.0188  1.1081
 6874TIP3   OH242036   6.727   1.074  12.252  0.4109  0.3576 -0.2655
 6874TIP3    H142037   6.740   1.046  12.342 -1.1537  2.4961  0.7000
 6874TIP3    H242038   6.808   1.119  12.229 -0.1876  2.2120  1.0819
 6875TIP3   OH242039   2.376   4.752   5.045  0.1419  0.0867  0.1512
 6875TIP3    H142040   2.330   4.790   4.970 -0.4293 -0.0950  0.4005
 6875TIP3    H242041   2.328   4.785   5.121 -1.4575 -2.4037  0.3629
 6876TIP3   OH242042   0.174   3.116  15.641 -0.1005 -0.1325  0.7784
 6876TIP3    H142043   0.123   3.062  15.701  0.1667 -0.8381  0.3852
 6876TIP3    H242044   0.122   3.195  15.629 -0.7632 -0.5347  0.9464
 6877TIP3   OH242045   2.322   1.796  17.114  0.6263  0.5315 -0.1598
 6877TIP3    H142046   2.229   1.775  17.102  0.5166  1.4681 -1.0641
 6877TIP3    H242047   2.340   1.774  17.206 -0.2633 -0.4702 -0.2037
 6878TIP3   OH242048   4.076   1.320  13.396  0.2231  0.1039 -0.2839
 6878TIP3    H142049   4.137   1.343  13.326  1.1449  0.0625  0.4854
 6878TIP3    H242050   4.118   1.351  13.476 -0.7980  0.1299  0.2677
 6879TIP3   OH242051   1.129   5.238   3.882 -0.1709  0.2663  0.3821
 6879TIP3    H142052   1.154   5.150   3.909  0.7338  0.6955  0.9784
 6879TIP3    H242053   1.189   5.296   3.929 -2.1476  1.3473  1.6992
 6880TIP3   OH242054   3.543   6.246   1.746  0.3766  0.0521 -0.1717
 6880TIP3    H142055   3.553   6.154   1.723 -0.4083 -0.7536  2.3645
 6880TIP3    H242056   3.455   6.270   1.715  0.5131 -0.1124 -0.6765
 6881TIP3   OH242057   1.245   3.216  13.071  0.1082  0.0075 -0.3599
 6881TIP3    H142058   1.337   3.226  13.046  0.7499  0.0021  1.8244
 6881TIP3    H242059   1.210   3.151  13.010  2.7536 -3.4243  1.4547
 6882TIP3   OH242060   2.688   5.082  14.458 -0.3140 -0.2984 -0.1394
 6882TIP3    H142061   2.717   5.144  14.526 -0.6434  0.9823 -1.1356
 6882TIP3    H242062   2.593   5.080  14.467 -0.3412 -0.2743 -0.4358
 6883TIP3   OH242063   2.146   1.045  13.291 -0.1155  0.1058  0.6028
 6883TIP3    H142064   2.079   1.062  13.357 -1.6967  0.6192 -1.0350
 6883TIP3    H242065   2.162   0.951  13.298 -0.4431  0.1055  1.5386
 6884TIP3   OH242066   6.004   1.391   5.118  0.3211  0.4584  0.5046
 6884TIP3    H142067   5.917   1.391   5.077  0.1373  0.4962  0.8865
 6884TIP3    H242068   6.004   1.470   5.172  1.0048  1.0469 -0.3392
 6885TIP3   OH242069   1.319   5.684  14.056  0.5248 -0.3353 -0.4591
 6885TIP3    H142070   1.299   5.665  14.148  0.5218  0.5582 -0.2716
 6885TIP3    H242071   1.386   5.620  14.033 -0.5897 -1.6009 -0.3077
 6886TIP3   OH242072   5.165   6.095  16.636 -0.8895  0.4340  0.0815
 6886TIP3    H142073   5.168   6.164  16.702  1.1884  0.5458 -0.0884
 6886TIP3    H242074   5.238   6.113  16.578 -0.5993 -1.5970 -0.2775
 6887TIP3   OH242075   4.987   6.120  12.589  0.2853  0.1716  0.4759
 6887TIP3    H142076   5.070   6.089  12.551  0.1875  0.4975 -0.0081
 6887TIP3    H242077   4.924   6.051  12.567  0.2556  0.3015  0.1489
 6888TIP3   OH242078   5.117   6.765   4.658  0.6310 -0.1516 -0.1481
 6888TIP3    H142079   5.079   6.738   4.574  2.4598  0.4532 -1.2262
 6888TIP3    H242080   5.055   6.733   4.724  0.3904 -2.9035 -1.5698
 6889TIP3   OH242081   0.876   3.662   4.920  0.5701  0.5805  0.2186
 6889TIP3    H142082   0.919   3.595   4.973  1.3861  1.1316  0.2875
 6889TIP3    H242083   0.900   3.641   4.830  1.0204  0.8987  0.2584
 6890TIP3   OH242084   4.087   2.552   1.225 -0.7512  0.8069 -0.6958
 6890TIP3    H142085   4.112   2.541   1.134 -0.4019  1.2140 -0.6559
 6890TIP3    H242086   4.132   2.481   1.271 -2.9941 -0.9871 -1.1689
 6891TIP3   OH242087   1.047   3.143  12.063  0.0593  0.1074  0.3558
 6891TIP3    H142088   0.979   3.088  12.026 -0.8692  0.1634  1.9099
 6891TIP3    H242089   1.124   3.086  12.067  0.1931  0.0763 -1.5049
 6892TIP3   OH242090   1.017   4.917  16.155 -0.3875 -0.3276 -0.1645
 6892TIP3    H142091   1.022   5.010  16.134 -0.1118 -0.0952  0.9078
 6892TIP3    H242092   0.965   4.880  16.084  2.7009 -0.0419 -2.8585
 6893TIP3   OH242093   6.426   0.362  13.635 -0.1806  0.3128  0.2186
 6893TIP3    H142094   6.420   0.271  13.605 -1.3863  0.4904 -0.1315
 6893TIP3    H242095   6.366   0.410  13.579  1.6027  1.6379 -0.6519
 6894TIP3   OH242096   3.865   6.127   5.248  0.0286  0.0619 -0.2897
 6894TIP3    H142097   3.914   6.061   5.200  0.3355  1.4729 -2.0656
 6894TIP3    H242098   3.921   6.205   5.245  0.7231 -0.0819  3.6896
 6895TIP3   OH242099   0.518   1.655   5.628  0.1160  0.3369  0.0633
 6895TIP3    H142100   0.448   1.593   5.610  1.8992 -1.3481 -1.4566
 6895TIP3    H242101   0.475   1.726   5.676 -3.1592  0.6834 -3.0011
 6896TIP3   OH242102   2.275   4.006  11.617 -0.6371  0.3375  0.1377
 6896TIP3    H142103   2.225   4.070  11.567 -1.6509 -0.6994 -0.2082
 6896TIP3    H242104   2.239   4.011  11.705 -0.0996  0.8751  0.3291
 6897TIP3   OH242105   3.357   2.470   2.711 -0.4513 -0.2180  0.1366
 6897TIP3    H142106   3.448   2.473   2.679 -0.3577  1.7774  0.4665
 6897TIP3    H242107   3.359   2.405   2.781  0.4697 -0.9701 -0.5561
 6898TIP3   OH242108   1.375   3.182  15.700 -0.9728  0.5384 -0.0754
 6898TIP3    H142109   1.346   3.247  15.764  0.6189  1.7712 -0.5525
 6898TIP3    H242110   1.463   3.210  15.675 -0.4129 -1.5505 -0.6558
 6899TIP3   OH242111   2.151   1.101  15.954 -0.0519 -0.2944  0.0850
 6899TIP3    H142112   2.202   1.020  15.954 -0.0008 -0.3691  3.1937
 6899TIP3    H242113   2.083   1.087  16.020 -2.1045  1.0387 -1.6170
 6900TIP3   OH242114   6.198   1.052   5.989  0.2227 -0.1364  0.0147
 6900TIP3    H142115   6.115   1.051   5.943  0.8118 -1.1392 -1.0644
 6900TIP3    H242116   6.188   0.986   6.058 -0.1362  0.3075  0.3973
 6901TIP3   OH242117   5.664   5.656   0.644  0.1886 -0.3598 -0.4855
 6901TIP3    H142118   5.637   5.578   0.692 -1.2113  1.7856  2.5858
 6901TIP3    H242119   5.749   5.679   0.681  0.2951 -0.0593 -0.9032
 6902TIP3   OH242120   0.495   3.887   4.270  0.2407  0.8845 -0.6546
 6902TIP3    H142121   0.420   3.948   4.275 -0.8936 -0.4022 -1.3539
 6902TIP3    H242122   0.508   3.859   4.360 -0.1296  1.1067 -0.5247
 6903TIP3   OH242123   5.447   6.724  16.407  0.1260 -0.1974  0.2845
 6903TIP3    H142124   5.455   6.728  16.312 -0.2608  0.4571  0.2694
 6903TIP3    H242125   5.439   6.631  16.427  0.0418 -0.3288 -0.3391
 6904TIP3   OH242126   6.068   5.568   1.314 -0.2580  0.1011 -0.1998
 6904TIP3    H142127   6.133   5.611   1.370 -1.1393  2.4117 -0.8101
 6904TIP3    H242128   6.116   5.498   1.269  1.8323  1.7184 -0.6398
 6905TIP3   OH242129   1.096   3.656   0.338 -0.3274  0.8351 -0.3001
 6905TIP3    H142130   1.137   3.594   0.399  0.4034  1.0872 -0.5205
 6905TIP3    H242131   1.023   3.693   0.387  0.8057  1.7305  0.7862
 6906TIP3   OH242132   5.988   0.206   0.860  0.4306  0.2826  0.3554
 6906TIP3    H142133   5.979   0.206   0.955  1.4484  1.9721  0.4959
 6906TIP3    H242134   5.929   0.275   0.830 -1.9535 -1.9604 -0.5679
 6907TIP3   OH242135   5.096   3.160   2.068  0.1450 -0.2024 -0.6084
 6907TIP3    H142136   5.131   3.082   2.111  1.5928  0.7015 -0.0576
 6907TIP3    H242137   5.141   3.233   2.110 -1.0908  0.9414 -1.1836
 6908TIP3   OH242138   1.795   0.013   2.385 -0.0675 -0.2557  0.2575
 6908TIP3    H142139   1.746  -0.047   2.441  0.0944  0.7942  1.5658
 6908TIP3    H242140   1.745   0.094   2.386 -0.1642 -0.2627 -1.3087
 6909TIP3   OH242141   4.223   5.948   2.981  0.1266  0.2914  0.1644
 6909TIP3    H142142   4.233   5.881   2.914  0.6483 -1.0595  1.5551
 6909TIP3    H242143   4.150   6.002   2.949  0.1466 -0.5028 -1.3172
 6910TIP3   OH242144   2.335   4.732  15.599 -0.2123  0.6304  0.5530
 6910TIP3    H142145   2.254   4.735  15.549  0.2390  0.4312 -0.2076
 6910TIP3    H242146   2.309   4.748  15.689 -1.3180 -1.1196  0.5754
 6911TIP3   OH242147   1.646   6.246  16.258  0.5725  0.1352  0.0487
 6911TIP3    H142148   1.570   6.272  16.206  1.3076 -2.2804 -2.4677
 6911TIP3    H242149   1.718   6.243  16.196  2.1161 -0.4231  1.7652
 6912TIP3   OH242150   5.918   3.563   0.702  0.2043  0.7043  0.1123
 6912TIP3    H142151   6.007   3.546   0.733 -0.1597  0.5624  1.1390
 6912TIP3    H242152   5.899   3.490   0.643 -0.3363 -1.0783  2.3473
 6913TIP3   OH242153   3.071   0.305  16.800  0.3372 -0.4855  0.0278
 6913TIP3    H142154   3.097   0.336  16.714  0.6624 -1.9186 -0.4052
 6913TIP3    H242155   3.150   0.313  16.853  0.0331  0.7792  0.3388
 6914TIP3   OH242156   3.035   1.990  16.196 -0.4202  0.3268 -0.4473
 6914TIP3    H142157   3.083   2.020  16.273  1.0479  0.2929 -1.3183
 6914TIP3    H242158   2.950   1.963  16.230 -0.1979  1.3195  0.9991
 6915TIP3   OH242159   0.042   6.005   2.264 -0.3183 -0.0707 -0.7711
 6915TIP3    H142160   0.132   6.038   2.262 -0.4512  0.3210 -0.3623
 6915TIP3    H242161   0.013   6.019   2.353 -0.3331 -1.4640 -0.5297
 6916TIP3   OH242162   5.755   2.800  11.325 -0.2516  0.2597 -0.2439
 6916TIP3    H142163   5.791   2.789  11.413  0.8625  0.3538 -0.6757
 6916TIP3    H242164   5.831   2.804  11.268 -0.9578  0.3422 -1.2065
 6917TIP3   OH242165   3.903   6.267   0.407  0.2627  0.5941  0.0020
 6917TIP3    H142166   3.932   6.210   0.478 -0.4488 -0.4535 -0.5386
 6917TIP3    H242167   3.978   6.325   0.391  0.8044  0.1544  0.8994
 6918TIP3   OH242168   2.778   0.098   1.532 -0.2880 -0.1701  0.0569
 6918TIP3    H142169   2.747   0.136   1.615 -0.6539  0.5770 -0.4124
 6918TIP3    H242170   2.704   0.049   1.498 -0.2460 -0.2048  0.0154
 6919TIP3   OH242171   4.135   1.665  14.183 -0.4834 -0.4243  0.3923
 6919TIP3    H142172   4.163   1.706  14.101 -0.9687  0.7611  0.8013
 6919TIP3    H242173   4.139   1.571  14.165  0.6649 -0.2143 -0.5641
 6920TIP3   OH242174   4.255   0.566  13.703 -0.3750  0.6082  0.0435
 6920TIP3    H142175   4.331   0.609  13.663  0.6504 -0.4477  0.8089
 6920TIP3    H242176   4.257   0.595  13.795 -0.4440 -0.0413  0.2516
 6921TIP3   OH242177   5.853   4.672   0.142 -0.0426  0.1480 -0.3790
 6921TIP3    H142178   5.895   4.586   0.150  2.2239  1.3452  1.9282
 6921TIP3    H242179   5.787   4.673   0.211 -1.4101 -0.3645 -1.6268
 6922TIP3   OH242180   1.740   1.547  10.465 -0.1635  0.0243  0.4926
 6922TIP3    H142181   1.654   1.584  10.484  0.1646 -0.1728  2.6125
 6922TIP3    H242182   1.727   1.452  10.470  0.1403 -0.0109  0.6193
 6923TIP3   OH242183   4.566   1.879  16.895 -0.1489 -0.2204  0.5516
 6923TIP3    H142184   4.520   1.834  16.824 -0.1473  1.1639 -0.3714
 6923TIP3    H242185   4.497   1.919  16.948 -0.0897  0.8152 -0.1206
 6924TIP3   OH242186   1.361   4.398  15.305  0.4324  0.4452 -0.0883
 6924TIP3    H142187   1.324   4.483  15.329  1.2447  0.8096 -0.0990
 6924TIP3    H242188   1.289   4.336  15.316 -1.5241  1.6875 -4.1576
 6925TIP3   OH242189   1.483   0.672  12.709 -0.5633  0.2648  0.4683
 6925TIP3    H142190   1.417   0.706  12.649  0.6524  0.1169 -1.0295
 6925TIP3    H242191   1.527   0.750  12.742 -0.4352  0.3197  0.1795
 6926TIP3   OH242192   6.288   0.660  11.964 -0.1380  0.2124 -0.4946
 6926TIP3    H142193   6.382   0.661  11.945  0.5364 -1.0545  2.1442
 6926TIP3    H242194   6.255   0.583  11.919  1.0258 -1.7232  1.7414
 6927TIP3   OH242195   5.790   1.770  10.292 -0.2447 -0.0320 -0.8361
 6927TIP3    H142196   5.745   1.688  10.270 -0.8334  0.1878 -0.4675
 6927TIP3    H242197   5.869   1.769  10.237  0.3472 -1.3694 -0.0219
 6928TIP3   OH242198   1.603   2.602  13.730  0.1662  0.9663  0.0708
 6928TIP3    H142199   1.528   2.579  13.784 -1.0507  2.0128 -1.0976
 6928TIP3    H242200   1.629   2.689  13.762 -1.7732  2.4802 -2.1408
 6929TIP3   OH242201   4.843   0.066   4.112  0.3619  0.1879 -0.3498
 6929TIP3    H142202   4.918   0.100   4.161  0.8383  0.5537 -1.2834
 6929TIP3    H242203   4.870  -0.022   4.085  0.1862  0.0664 -0.1283
 6930TIP3   OH242204   0.782   2.146  12.293 -0.3015 -0.0825 -0.4305
 6930TIP3    H142205   0.762   2.070  12.348  0.9939 -2.3732 -2.8712
 6930TIP3    H242206   0.718   2.142  12.222  0.0459  0.8858 -0.8208
 6931TIP3   OH242207   5.789   4.480   0.852  0.2574  0.4210  0.6686
 6931TIP3    H142208   5.707   4.502   0.806  0.4823 -0.0248  0.0355
 6931TIP3    H242209   5.848   4.451   0.782  0.3484 -1.0581  1.3290
 6932TIP3   OH242210   5.290   1.103   5.549  0.5584  0.2743  0.3479
 6932TIP3    H142211   5.287   1.098   5.645 -2.4364 -2.8428  0.2704
 6932TIP3    H242212   5.283   1.197   5.530 -3.7583  0.8589  3.2905
 6933TIP3   OH242213   4.929   1.893   2.217 -0.5278  1.0729 -0.0651
 6933TIP3    H142214   4.908   1.878   2.309  0.9229  0.8020  0.2427
 6933TIP3    H242215   4.872   1.966   2.191 -1.2291  0.8969  0.9200
 6934TIP3   OH242216   3.545   6.015   4.468 -0.0770  0.9071 -0.0287
 6934TIP3    H142217   3.602   5.941   4.491 -1.0830 -0.4720 -1.7565
 6934TIP3    H242218   3.604   6.091   4.468  1.0903  0.0568  1.3105
 6935TIP3   OH242219   6.101   0.885  12.468  0.3938  0.8822 -0.3399
 6935TIP3    H142220   6.157   0.962  12.460 -0.2041  1.3099 -0.4086
 6935TIP3    H242221   6.043   0.889  12.392  0.8029  0.0001 -0.7104
 6936TIP3   OH242222   4.210   1.113   2.473  0.6331 -0.0855  0.4562
 6936TIP3    H142223   4.157   1.104   2.394 -0.7096  0.2391  1.2886
 6936TIP3    H242224   4.148   1.102   2.545  1.7791 -0.1009  1.4688
 6937TIP3   OH242225   2.695   3.316   5.350  0.1966 -0.5193  0.2785
 6937TIP3    H142226   2.698   3.256   5.276 -1.1338  0.3598 -0.5397
 6937TIP3    H242227   2.649   3.267   5.419 -0.5989 -0.5624 -0.2709
 6938TIP3   OH242228   3.264   4.789   2.685  0.1544 -0.0482  0.1563
 6938TIP3    H142229   3.236   4.698   2.687  0.0887 -0.1734 -2.6303
 6938TIP3    H242230   3.183   4.839   2.674  0.3079  0.2625  0.4057
 6939TIP3   OH242231   6.339   0.773  13.569  0.5125  0.3631  0.0930
 6939TIP3    H142232   6.431   0.787  13.591  0.7731  0.0182 -0.7346
 6939TIP3    H242233   6.298   0.859  13.581  1.1679  0.7816 -0.5951
 6940TIP3   OH242234   0.290   3.214  13.269 -0.1682 -0.0215 -0.0516
 6940TIP3    H142235   0.292   3.306  13.296  0.1293 -0.6401  2.1698
 6940TIP3    H242236   0.231   3.213  13.194 -0.3984  1.9267  0.0395
 6941TIP3   OH242237   3.665   1.016  11.708  0.1518  0.0665 -0.1681
 6941TIP3    H142238   3.599   1.085  11.708  0.7609  0.6936 -1.4678
 6941TIP3    H242239   3.736   1.050  11.763  0.0873  0.1159 -0.1171
 6942TIP3   OH242240   6.591   6.522   1.387 -0.4333 -0.0147 -0.0551
 6942TIP3    H142241   6.528   6.451   1.401  0.1198 -0.3327  0.9172
 6942TIP3    H242242   6.629   6.503   1.301 -1.3512 -0.0549 -0.4588
 6943TIP3   OH242243   6.102   6.120  11.376 -0.1159 -0.2637 -0.2282
 6943TIP3    H142244   6.036   6.146  11.312  0.3432 -0.0313 -0.6056
 6943TIP3    H242245   6.063   6.144  11.461  0.1933  1.4550 -0.5436
 6944TIP3   OH242246   6.722   6.183   3.824  0.6307 -0.3327  0.2526
 6944TIP3    H142247   6.742   6.149   3.912  1.9252 -2.5806 -0.8327
 6944TIP3    H242248   6.792   6.246   3.807  1.0850 -0.7978  0.3673
 6945TIP3   OH242249   5.302   2.122   5.876 -0.5062 -0.5845  0.0905
 6945TIP3    H142250   5.307   2.208   5.833 -1.6961  0.6325  2.1787
 6945TIP3    H242251   5.350   2.063   5.818 -0.3913  1.2977 -1.8765
 6946TIP3   OH242252   6.721   6.635   4.213 -0.0471  0.3251  0.3172
 6946TIP3    H142253   6.731   6.698   4.141  1.8861 -0.0299  0.2242
 6946TIP3    H242254   6.627   6.624   4.221 -0.3736  1.6884 -1.0128
 6947TIP3   OH242255   2.782   5.081   4.133 -0.0292  0.3710  0.2299
 6947TIP3    H142256   2.716   5.103   4.067  0.1173  1.0323  0.3001
 6947TIP3    H242257   2.747   5.003   4.176 -1.0308  1.0304  0.6431
 6948TIP3   OH242258   1.122   0.669  15.110 -0.0383  0.3591 -0.2993
 6948TIP3    H142259   1.038   0.669  15.064 -1.0140 -2.0199  1.3336
 6948TIP3    H242260   1.125   0.754  15.153 -0.6994  1.2340 -1.8749
 6949TIP3   OH242261   0.081   1.546  15.033 -0.1871  0.4708  0.1888
 6949TIP3    H142262   0.015   1.532  14.965 -1.1856 -1.6739  1.5121
 6949TIP3    H242263   0.163   1.513  14.993 -0.8956 -1.4617  0.2084
 6950TIP3   OH242264   2.297   6.763  14.193  0.0692 -0.2800 -0.5131
 6950TIP3    H142265   2.349   6.719  14.260 -0.0023 -0.4225 -0.5504
 6950TIP3    H242266   2.211   6.723  14.198  0.0510 -0.2633 -0.6628
 6951TIP3   OH242267   4.127   0.789  15.119  0.2011  0.2361  0.6251
 6951TIP3    H142268   4.210   0.757  15.083 -0.0853  1.3275 -1.1148
 6951TIP3    H242269   4.128   0.759  15.210  1.5317 -1.5717  0.0770
 6952TIP3   OH242270   3.731   0.676   1.283  0.1566 -0.1086  0.2263
 6952TIP3    H142271   3.654   0.622   1.298 -0.1471  0.1814 -0.2451
 6952TIP3    H242272   3.798   0.615   1.251  0.0493 -0.3183  0.4001
 6953TIP3   OH242273   5.856   1.963   3.535 -0.1591 -0.4580 -0.1386
 6953TIP3    H142274   5.849   2.009   3.451  0.5397 -0.6505 -0.3143
 6953TIP3    H242275   5.776   1.985   3.582  0.9401  2.5721  0.5905
 6954TIP3   OH242276   3.949   0.543  15.622 -0.3597  0.0342 -0.1883
 6954TIP3    H142277   3.897   0.504  15.551  0.9298  0.8717 -1.6450
 6954TIP3    H242278   4.024   0.484  15.632 -0.5306 -0.0773  0.5135
 6955TIP3   OH242279   4.615   6.701   6.004 -0.1519  0.0160  0.3965
 6955TIP3    H142280   4.616   6.789   6.041  0.9912  0.4729 -0.6181
 6955TIP3    H242281   4.525   6.687   5.976 -1.4213 -0.8704  4.3641
 6956TIP3   OH242282   2.680   5.132   0.597  0.0502 -0.0333  0.4232
 6956TIP3    H142283   2.602   5.119   0.650 -0.7552  2.1963 -0.0974
 6956TIP3    H242284   2.739   5.183   0.654  1.2657 -1.8376  0.8796
 6957TIP3   OH242285   1.057   5.604  10.966  0.3900 -0.5378 -0.0867
 6957TIP3    H142286   0.994   5.541  10.932  0.1865 -0.3079 -0.1424
 6957TIP3    H242287   1.114   5.623  10.891 -1.4179  1.6861 -1.0494
 6958TIP3   OH242288   1.966   4.654  15.142  0.1050 -0.2039 -0.0272
 6958TIP3    H142289   2.049   4.607  15.136 -0.4564 -1.7763  2.6797
 6958TIP3    H242290   1.992   4.746  15.148  1.5431 -0.5343 -0.6284
 6959TIP3   OH242291   1.022   0.516  11.810  0.0408  0.4405 -0.0230
 6959TIP3    H142292   1.046   0.605  11.783 -1.1415  0.2352 -2.0122
 6959TIP3    H242293   1.086   0.460  11.766 -0.1769  0.2420 -0.0898
 6960TIP3   OH242294   0.432   3.454   0.508 -0.1681  0.0307  0.2182
 6960TIP3    H142295   0.460   3.528   0.562 -0.3059 -1.0295  1.8132
 6960TIP3    H242296   0.384   3.397   0.568 -0.9786 -0.8621 -1.2093
 6961TIP3   OH242297   3.479   5.884  17.207 -0.5742 -0.4463  0.0077
 6961TIP3    H142298   3.385   5.885  17.189 -0.2524 -0.5240 -1.9110
 6961TIP3    H242299   3.501   5.975  17.227 -0.8694 -0.2026 -0.7406
 6962TIP3   OH242300   4.262   2.259  15.137 -0.3478 -0.6523  0.0157
 6962TIP3    H142301   4.342   2.244  15.088  0.1945  2.2132 -0.1782
 6962TIP3    H242302   4.285   2.240  15.228 -0.3280 -2.5788 -0.3640
 6963TIP3   OH242303   6.128   0.042  14.359 -0.3249 -0.4619 -0.1493
 6963TIP3    H142304   6.198  -0.022  14.376  0.5593  0.0750 -1.5815
 6963TIP3    H242305   6.076   0.042  14.440  1.0904 -1.1761  0.8156
 6964TIP3   OH242306   4.774   4.794  14.254 -0.4189  0.4279 -0.2200
 6964TIP3    H142307   4.743   4.884  14.269 -0.2735  0.8497 -2.1482
 6964TIP3    H242308   4.816   4.798  14.168 -0.6002 -1.5513 -0.4319
 6965TIP3   OH242309   2.050   0.799   4.309  0.2812 -0.6734 -0.2209
 6965TIP3    H142310   2.078   0.771   4.222  2.0042  2.3072 -0.7682
 6965TIP3    H242311   2.051   0.719   4.362  2.2232 -2.0686 -2.1956
 6966TIP3   OH242312   1.368   5.997  14.284 -0.0016  0.5327  0.1464
 6966TIP3    H142313   1.430   6.044  14.341  0.0762 -0.1324  0.6195
 6966TIP3    H242314   1.421   5.930  14.241 -0.4828 -0.3836  0.9510
 6967TIP3   OH242315   4.734   3.935  11.928 -0.4417  0.0997  0.2210
 6967TIP3    H142316   4.703   3.890  12.007 -1.3617  1.0982  0.4621
 6967TIP3    H242317   4.806   3.881  11.896  1.2854  0.6406  2.8475
 6968TIP3   OH242318   3.383   6.191   5.927  0.2951 -0.6534 -0.2132
 6968TIP3    H142319   3.288   6.190   5.945  0.2182 -0.9751 -0.6303
 6968TIP3    H242320   3.402   6.282   5.905  0.1080 -0.5591  0.0088
 6969TIP3   OH242321   3.450   5.011  14.832 -0.8095  0.1859 -0.5584
 6969TIP3    H142322   3.531   5.008  14.781 -1.3126 -1.3366 -1.3133
 6969TIP3    H242323   3.478   5.039  14.919  0.9130 -2.4162 -0.1648
 6970TIP3   OH242324   6.662   2.666   5.071  0.1422 -0.0030 -0.1756
 6970TIP3    H142325   6.596   2.730   5.095 -1.0412 -0.2556 -2.4607
 6970TIP3    H242326   6.741   2.694   5.117  0.8163  5.4128 -3.7011
 6971TIP3   OH242327   2.774   2.776  11.115 -0.4120 -0.1785 -0.1556
 6971TIP3    H142328   2.782   2.737  11.028 -0.9684 -0.3409 -0.1381
 6971TIP3    H242329   2.864   2.797  11.141 -0.1750 -0.8294 -0.4499
 6972TIP3   OH242330   2.928   3.051  15.888 -0.1242  0.2333 -0.0613
 6972TIP3    H142331   2.997   3.054  15.954  1.2402  1.4118 -1.4556
 6972TIP3    H242332   2.856   3.102  15.926  0.4857  0.5727  0.6629
 6973TIP3   OH242333   3.682   3.430   5.582  0.2441  0.4605 -0.2224
 6973TIP3    H142334   3.758   3.420   5.524  0.1961 -1.6341 -0.0033
 6973TIP3    H242335   3.617   3.370   5.547 -0.6390  0.8598  0.6801
 6974TIP3   OH242336   2.401   5.209   2.201 -0.3931 -0.3362  0.5056
 6974TIP3    H142337   2.408   5.305   2.196 -0.8827 -0.3464 -0.5692
 6974TIP3    H242338   2.309   5.191   2.182 -0.5857 -0.9590  1.8994
 6975TIP3   OH242339   1.820   3.064   4.212  0.6573 -0.0808  0.3123
 6975TIP3    H142340   1.883   3.015   4.265 -0.2184 -0.0736  1.3752
 6975TIP3    H242341   1.860   3.150   4.201  0.9699 -0.1703  0.7318
 6976TIP3   OH242342   2.968   4.791   0.606  0.3086  0.1355 -0.0237
 6976TIP3    H142343   3.024   4.866   0.627 -0.8491  0.9721  0.1706
 6976TIP3    H242344   3.021   4.715   0.628  0.1872  0.8901  3.4232
 6977TIP3   OH242345   5.474   3.996  13.848 -0.0677 -0.4974  0.6145
 6977TIP3    H142346   5.453   3.953  13.931  1.2483 -1.5425  0.4359
 6977TIP3    H242347   5.570   3.992  13.842 -0.0382  0.8215 -0.3044
 6978TIP3   OH242348   0.211   5.878   3.612 -0.1140  0.1459 -0.9458
 6978TIP3    H142349   0.129   5.868   3.660  0.0826 -1.5364 -0.9214
 6978TIP3    H242350   0.193   5.950   3.550 -0.7019  1.6358  0.8530
 6979TIP3   OH242351   2.452   1.702  14.170  0.3028 -0.1109 -0.1982
 6979TIP3    H142352   2.545   1.722  14.175  0.5086 -1.0924  0.0616
 6979TIP3    H242353   2.433   1.651  14.248 -0.2858 -0.5726 -0.6299
 6980TIP3   OH242354   5.181   4.606   5.071 -0.2800  0.6464 -0.4595
 6980TIP3    H142355   5.166   4.645   5.157 -2.5857  0.1877 -0.5808
 6980TIP3    H242356   5.185   4.512   5.089 -0.4383  0.5741 -0.8044
 6981TIP3   OH242357   6.780   0.935  11.156  0.3199 -0.2656  0.7600
 6981TIP3    H142358   6.781   0.841  11.171  0.5249 -0.4097 -0.0722
 6981TIP3    H242359   6.861   0.953  11.107  0.1374  0.2900  0.6489
 6982TIP3   OH242360   0.467   5.176  11.475  0.0860 -0.7044  0.3965
 6982TIP3    H142361   0.511   5.090  11.475  0.9641 -0.2989 -1.3440
 6982TIP3    H242362   0.536   5.237  11.503 -0.6506 -0.5776  2.0458
 6983TIP3   OH242363   2.741   0.279   0.607 -0.6541 -0.0581  0.3130
 6983TIP3    H142364   2.808   0.343   0.583 -1.5368  0.6320 -0.3687
 6983TIP3    H242365   2.728   0.226   0.529 -0.4216 -0.6509  0.6627
 6984TIP3   OH242366   1.802   6.273  17.202  0.1559 -0.0122 -0.2656
 6984TIP3    H142367   1.884   6.238  17.168  0.7641  1.0137  0.1097
 6984TIP3    H242368   1.736   6.245  17.138  0.9098 -0.1581 -1.0023
 6985TIP3   OH242369   0.173   5.120   3.334 -0.5162 -0.0232 -0.2892
 6985TIP3    H142370   0.161   5.052   3.401 -3.2209 -0.6646 -1.2833
 6985TIP3    H242371   0.134   5.198   3.371  1.1974  0.6263  0.2310
 6986TIP3   OH242372   5.120   5.969   2.432  0.6342  0.8455 -0.4578
 6986TIP3    H142373   5.115   5.875   2.445 -0.5606  1.0454  0.6769
 6986TIP3    H242374   5.175   6.001   2.503 -0.1378  1.1511  0.0143
 6987TIP3   OH242375   5.698   4.824  15.366 -0.1660 -0.1460  0.2405
 6987TIP3    H142376   5.781   4.790  15.400 -0.0020 -0.2237 -0.2361
 6987TIP3    H242377   5.640   4.748  15.364 -0.5399  0.0803  1.4268
 6988TIP3   OH242378   6.028   5.330  14.544 -0.2820  0.8419 -0.0902
 6988TIP3    H142379   6.120   5.357  14.551 -0.2886  0.7983  0.1504
 6988TIP3    H242380   6.012   5.279  14.623 -1.1245  2.5643  0.9013
 6989TIP3   OH242381   1.950   5.976  11.715  0.2502  0.2612 -0.8318
 6989TIP3    H142382   1.927   5.982  11.808 -0.5273 -0.9863 -0.9088
 6989TIP3    H242383   1.925   5.887  11.691  3.1200 -0.4574 -1.5419
 6990TIP3   OH242384   6.438   3.014   4.537  0.1993  0.7115  0.1565
 6990TIP3    H142385   6.443   3.053   4.449 -0.8959  0.9258  0.1786
 6990TIP3    H242386   6.365   2.953   4.533  1.5456 -0.9783  0.2932
 6991TIP3   OH242387   2.731   0.918  12.711 -0.2189 -0.3064 -0.8940
 6991TIP3    H142388   2.771   0.970  12.641 -0.2007  0.0282 -0.6376
 6991TIP3    H242389   2.660   0.871  12.667  0.0851 -0.4542 -1.2317
 6992TIP3   OH242390   3.046   3.933   4.338  0.5481  0.3330  0.4219
 6992TIP3    H142391   3.084   3.853   4.301  1.1204  1.2477 -1.0494
 6992TIP3    H242392   3.117   3.975   4.384  1.0185  1.3546 -1.1664
 6993TIP3   OH242393   5.953   4.168   0.405 -0.1220  0.0586  0.4041
 6993TIP3    H142394   6.014   4.211   0.465 -0.0155  0.3402  0.0941
 6993TIP3    H242395   5.887   4.129   0.462 -0.3733  0.8655  0.6767
 6994TIP3   OH242396   5.156   0.999  12.542 -0.0827  0.0491 -0.0289
 6994TIP3    H142397   5.163   1.085  12.501  0.8170  0.2359  0.4847
 6994TIP3    H242398   5.246   0.965  12.543 -0.3528 -0.6861  0.2226
 6995TIP3   OH242399   6.625   6.223   4.095  0.2037 -0.2171  0.0438
 6995TIP3    H142400   6.577   6.237   4.177 -0.7152 -0.2847 -0.4782
 6995TIP3    H242401   6.686   6.297   4.091  0.8983 -0.6951  1.2337
 6996TIP3   OH242402   5.522   4.516   5.817 -0.1208  0.6588  0.0049
 6996TIP3    H142403   5.491   4.425   5.809 -0.3139  0.7784 -0.6535
 6996TIP3    H242404   5.444   4.569   5.803  0.2575  0.9501 -1.0402
 6997TIP3   OH242405   0.584   5.463   6.071 -0.0454 -0.3133 -0.3162
 6997TIP3    H142406   0.535   5.502   6.143  1.4421  2.1938 -0.5093
 6997TIP3    H242407   0.676   5.474   6.096  0.5560  1.4007 -2.8459
 6998TIP3   OH242408   5.056   2.881  14.856 -0.6036  0.0125  0.7846
 6998TIP3    H142409   5.046   2.883  14.761 -0.1660  0.7816  0.7406
 6998TIP3    H242410   5.082   2.791  14.876  0.6605  0.1825  0.0182
 6999TIP3   OH242411   2.950   2.005   4.797  0.2637  0.4298  0.1100
 6999TIP3    H142412   3.020   2.039   4.854  1.1955 -1.4654  0.1598
 6999TIP3    H242413   2.992   1.995   4.711 -0.3231  0.4966 -0.1891
 7000TIP3   OH242414   2.049   5.367   1.924 -0.0263 -0.9366 -0.1883
 7000TIP3    H142415   2.093   5.451   1.933  1.1684 -1.5801  0.3263
 7000TIP3    H242416   1.956   5.388   1.923  0.2041  0.3075  1.0070
 7001TIP3   OH242417   6.168   3.660  11.133 -0.2095 -0.7671  0.3375
 7001TIP3    H142418   6.164   3.566  11.116  0.0959 -0.3963 -2.1320
 7001TIP3    H242419   6.255   3.686  11.103 -0.9826  0.5925 -0.8398
 7002TIP3   OH242420   2.524   2.612   1.610  0.5568 -0.7769  0.2102
 7002TIP3    H142421   2.607   2.658   1.622  0.4390 -0.6387  0.5008
 7002TIP3    H242422   2.547   2.531   1.566  0.8691 -0.8164  0.4448
 7003TIP3   OH242423   5.378   5.951   4.416  0.2241 -0.4076 -0.3522
 7003TIP3    H142424   5.412   5.902   4.341  0.0951 -0.6179 -0.2754
 7003TIP3    H242425   5.391   5.892   4.490  0.7317 -0.0378 -0.1405
 7004TIP3   OH242426   5.824   5.983  10.735  0.0671 -0.1732 -0.5638
 7004TIP3    H142427   5.919   5.997  10.731  0.0483  0.0673 -0.2309
 7004TIP3    H242428   5.786   6.070  10.723 -0.1920 -0.5657 -3.0896
 7005TIP3   OH242429   2.040   1.306   4.821  0.7660  0.5471 -0.3017
 7005TIP3    H142430   2.093   1.253   4.880  1.2985  0.7639 -0.5783
 7005TIP3    H242431   2.000   1.243   4.761 -1.1663  0.1372  1.3270
 7006TIP3   OH242432   0.497   1.516   2.917  0.5137 -0.0586  0.2874
 7006TIP3    H142433   0.453   1.441   2.876  1.9359 -0.3393 -0.7832
 7006TIP3    H242434   0.505   1.580   2.846 -0.1891  0.9078  1.0551
 7007TIP3   OH242435   2.057   6.234  15.643  0.1734 -0.7579  0.6940
 7007TIP3    H142436   2.038   6.291  15.717 -0.5439 -1.0593  0.7530
 7007TIP3    H242437   2.150   6.250  15.623 -0.2517  1.1865  0.0561
 7008TIP3   OH242438   1.894   3.033  11.102  0.7048 -0.4427  0.1364
 7008TIP3    H142439   1.882   3.120  11.064 -0.0756 -0.8492 -0.5580
 7008TIP3    H242440   1.884   2.972  11.029  0.1520 -1.1809  0.8111
 7009TIP3   OH242441   2.587   3.717  11.182 -0.7556 -0.0897  0.0213
 7009TIP3    H142442   2.540   3.740  11.102 -1.2136  0.0725  0.3309
 7009TIP3    H242443   2.539   3.643  11.218 -1.3164  0.6308  0.7982
 7010TIP3   OH242444   4.438   0.964  13.361  0.1189  0.0573  0.5958
 7010TIP3    H142445   4.532   0.949  13.357  0.0949  0.0744 -0.4274
 7010TIP3    H242446   4.399   0.884  13.326 -0.2987 -0.3757  2.0106
 7011TIP3   OH242447   4.487   3.190  11.924  0.9319 -0.3056  0.0798
 7011TIP3    H142448   4.445   3.109  11.893  0.4240 -0.1071  0.2428
 7011TIP3    H242449   4.438   3.213  12.003  0.6804  0.4956 -0.3050
 7012TIP3   OH242450   3.075   2.443   4.697  0.0918  0.2712 -0.2509
 7012TIP3    H142451   2.988   2.481   4.712 -0.6996 -0.9861 -1.3836
 7012TIP3    H242452   3.119   2.505   4.640  0.1249  1.1385  0.6934
 7013TIP3   OH242453   5.203   1.567   3.226 -0.1903 -0.5727  0.9271
 7013TIP3    H142454   5.227   1.488   3.177  0.2800 -0.2002  0.5400
 7013TIP3    H242455   5.270   1.574   3.294  0.6548  0.2966  0.0400
 7014TIP3   OH242456   3.353   4.275  11.125  0.3847  0.7007 -0.6068
 7014TIP3    H142457   3.427   4.320  11.168  1.3527 -0.1882 -1.2920
 7014TIP3    H242458   3.343   4.194  11.173  0.2187  0.5687 -0.8638
 7015TIP3   OH242459   2.747   2.228   3.574  0.3970  0.0112 -0.2645
 7015TIP3    H142460   2.833   2.196   3.550  0.4371 -0.6773  0.7386
 7015TIP3    H242461   2.763   2.284   3.650  0.0012  0.1853 -0.3066
 7016TIP3   OH242462   1.788   5.818  11.198  0.1742 -0.2387 -0.0683
 7016TIP3    H142463   1.696   5.793  11.196 -0.3999  1.7106 -2.0673
 7016TIP3    H242464   1.787   5.913  11.203  2.1572 -0.2460  2.2144
 7017TIP3   OH242465   3.630   1.023   2.609 -0.0376 -0.3948 -0.2079
 7017TIP3    H142466   3.678   1.067   2.538  1.5541  0.5459  1.3697
 7017TIP3    H242467   3.539   1.023   2.579  0.3933  1.1071 -1.7125
 7018TIP3   OH242468   3.692   4.822   0.059  0.6156  0.1544 -0.8165
 7018TIP3    H142469   3.622   4.840   0.121  2.0406  0.4816  0.7579
 7018TIP3    H242470   3.746   4.901   0.060  2.7772 -1.2306  0.5001
 7019TIP3   OH242471   4.183   6.016   5.905 -0.2484 -0.1291 -0.1470
 7019TIP3    H142472   4.225   5.941   5.947  1.8212  0.8660 -0.3305
 7019TIP3    H242473   4.183   6.084   5.972  0.6711  0.6356 -0.8922
 7020TIP3   OH242474   4.668   0.879  15.501  0.0571 -0.2042  0.3352
 7020TIP3    H142475   4.636   0.789  15.505  1.8442 -0.9724 -1.2512
 7020TIP3    H242476   4.697   0.890  15.411 -1.3350  2.4531  0.1298
 7021TIP3   OH242477   1.608   5.830  14.383 -0.1525 -0.1511  0.1241
 7021TIP3    H142478   1.684   5.854  14.330  0.6633 -1.1164  0.8071
 7021TIP3    H242479   1.630   5.744  14.418 -1.1393 -0.0115  1.1365
 7022TIP3   OH242480   1.870   3.191   4.813  0.5614 -0.5144  0.1895
 7022TIP3    H142481   1.802   3.250   4.846 -1.2450 -0.5153 -3.1094
 7022TIP3    H242482   1.835   3.103   4.828 -1.8907 -0.5437 -4.1316
 7023TIP3   OH242483   0.052   4.318   0.878 -0.0765 -0.0754 -0.5172
 7023TIP3    H142484   0.033   4.229   0.906 -1.1052  0.2836  0.0040
 7023TIP3    H242485  -0.026   4.345   0.830 -0.0440  0.7482 -0.1334
 7024TIP3   OH242486   6.604   1.050   2.936  0.3314  0.3504  0.3339
 7024TIP3    H142487   6.594   1.070   2.843 -1.1580  1.3621  0.6715
 7024TIP3    H242488   6.598   0.955   2.940  2.5730  0.0939 -0.7951
 7025TIP3   OH242489   6.753   0.096   2.388 -0.0684  0.0172 -0.1457
 7025TIP3    H142490   6.748   0.155   2.313  3.0757  1.7053  0.7855
 7025TIP3    H242491   6.847   0.086   2.404 -0.5937 -0.3641  3.4921
 7026TIP3   OH242492   3.961   1.106   1.604 -0.6323  0.1271  0.0853
 7026TIP3    H142493   4.022   1.032   1.614 -1.2512 -0.2761  0.9633
 7026TIP3    H242494   3.946   1.112   1.509  1.2446  0.6362 -0.2252
 7027TIP3   OH242495   3.234   0.158  13.670  0.2412  0.2722  0.1332
 7027TIP3    H142496   3.285   0.082  13.642  0.8122  0.3075  1.0287
 7027TIP3    H242497   3.297   0.230  13.671  0.2280  0.2777  1.4438
 7028TIP3   OH242498   4.068   4.218   4.349  0.1163  0.9252 -0.6959
 7028TIP3    H142499   4.004   4.149   4.369  0.6675 -0.1328 -2.3388
 7028TIP3    H242500   4.107   4.239   4.433  0.4305 -1.3151 -0.2013
 7029TIP3   OH242501   2.249   0.357   4.329  0.4034 -0.0716 -0.5293
 7029TIP3    H142502   2.232   0.423   4.261  0.1473  0.0341 -0.3673
 7029TIP3    H242503   2.295   0.287   4.284  0.3147  0.0384 -0.7943
 7030TIP3   OH242504   2.214   5.683   5.930  0.2130  0.3565 -0.0234
 7030TIP3    H142505   2.122   5.708   5.944 -0.3240 -1.5092  0.0236
 7030TIP3    H242506   2.220   5.594   5.964  1.8417  0.1231 -0.8358
 7031TIP3   OH242507   3.815   6.202  13.136 -0.0242 -0.3763 -0.2554
 7031TIP3    H142508   3.755   6.182  13.207  1.7454 -0.0846  1.4041
 7031TIP3    H242509   3.803   6.130  13.074 -2.9116  0.3167 -0.6114
 7032TIP3   OH242510   2.015   1.453  15.670  0.2807 -0.1289  0.0253
 7032TIP3    H142511   2.058   1.482  15.750  0.5582  0.5463 -0.3668
 7032TIP3    H242512   2.052   1.507  15.601 -0.5385 -0.1579 -0.4522
 7033TIP3   OH242513   6.308   4.365  11.965  0.1426  0.4370  0.4950
 7033TIP3    H142514   6.372   4.369  12.036 -0.8744  0.8306  1.4152
 7033TIP3    H242515   6.268   4.452  11.964 -0.3649  0.2029 -0.0807
 7034TIP3   OH242516   2.425   6.453   2.687 -0.6242 -0.4134  0.3809
 7034TIP3    H142517   2.462   6.478   2.602 -1.8433 -2.3056 -0.7842
 7034TIP3    H242518   2.420   6.534   2.736  4.0679  0.2105  0.3147
 7035TIP3   OH242519   6.277   3.180  12.794  0.4077 -0.0028  0.1350
 7035TIP3    H142520   6.329   3.250  12.832  2.4110 -2.1603  1.6309
 7035TIP3    H242521   6.332   3.143  12.726 -0.4149 -0.4792 -0.2910
 7036TIP3   OH242522   2.922   3.540  13.121  0.0518  0.8507  0.2971
 7036TIP3    H142523   2.933   3.634  13.136 -1.2852  0.7355  2.4074
 7036TIP3    H242524   2.827   3.528  13.114  0.1201 -0.4795  1.2477
 7037TIP3   OH242525   0.312   4.531   4.068  0.3152  0.0819 -0.2074
 7037TIP3    H142526   0.225   4.516   4.106 -1.1151 -0.5643 -3.4179
 7037TIP3    H242527   0.308   4.620   4.033  1.1764  0.2477  0.0920
 7038TIP3   OH242528   5.245   4.780  12.549  0.2436 -0.1462  0.0103
 7038TIP3    H142529   5.208   4.798  12.463  2.5474  0.0830 -0.9970
 7038TIP3    H242530   5.223   4.689  12.567  0.5276 -0.4723 -1.2369
 7039TIP3   OH242531   1.005   3.700   1.399  0.5854  0.8218  0.3076
 7039TIP3    H142532   0.959   3.784   1.393  2.1956  1.6972 -0.8108
 7039TIP3    H242533   1.076   3.708   1.335 -0.4496 -2.2272 -1.4245
 7040TIP3   OH242534   0.424   2.138  15.177  0.1549 -0.2217  0.0087
 7040TIP3    H142535   0.366   2.207  15.207 -0.7089 -1.4575  1.2897
 7040TIP3    H242536   0.376   2.056  15.194  1.7624 -1.2212 -0.0180
 7041TIP3   OH242537   0.902   6.714   0.355  0.1731 -0.1048 -0.0507
 7041TIP3    H142538   0.839   6.783   0.378  0.1677 -0.2481  0.3915
 7041TIP3    H242539   0.924   6.730   0.264 -0.1242  0.2503 -0.0627
 7042TIP3   OH242540   0.488   1.962   1.642  0.1622 -0.0040  0.1706
 7042TIP3    H142541   0.558   2.020   1.614  0.2550  0.0720  0.5523
 7042TIP3    H242542   0.413   1.986   1.587  0.0112  0.9119  0.7474
 7043TIP3   OH242543   3.075   4.490  13.751  0.0907 -0.4853  0.0813
 7043TIP3    H142544   3.043   4.454  13.833 -0.7016 -2.2684 -0.9662
 7043TIP3    H242545   3.171   4.488  13.760  0.0137 -0.2621  1.0894
 7044TIP3   OH242546   2.410   2.815  17.031 -0.5074  0.2805  0.4437
 7044TIP3    H142547   2.421   2.720  17.027  1.5945  0.4778  0.4641
 7044TIP3    H242548   2.389   2.840  16.942  0.4213 -0.0849  0.1013
 7045TIP3   OH242549   3.866   3.033   2.563  0.0704  0.3287 -0.8472
 7045TIP3    H142550   3.777   3.058   2.586 -0.4516 -0.1713 -2.1869
 7045TIP3    H242551   3.865   2.938   2.560  0.6826  0.3132 -0.7437
 7046TIP3   OH242552   4.905   6.653  15.921 -0.2896  0.9068  0.8494
 7046TIP3    H142553   4.816   6.629  15.895 -0.2419 -2.7976  3.3755
 7046TIP3    H242554   4.959   6.635  15.843 -1.3062 -0.5367  0.4320
 7047TIP3   OH242555   0.175   0.472  15.534  0.3388 -0.1858 -0.1261
 7047TIP3    H142556   0.146   0.383  15.554  1.6110 -0.6063 -0.0812
 7047TIP3    H242557   0.167   0.518  15.617 -0.3487 -0.2350 -0.1545
 7048TIP3   OH242558   4.991   0.074   2.907  0.0858 -0.3057  0.0700
 7048TIP3    H142559   4.926   0.064   2.837  0.2080  0.1098 -0.1034
 7048TIP3    H242560   5.067   0.114   2.864  1.0165 -2.0838 -0.0499
 7049TIP3   OH242561   2.778   4.644   2.801 -0.1410  0.1039 -0.1784
 7049TIP3    H142562   2.809   4.576   2.860 -2.5676  0.5608  1.7701
 7049TIP3    H242563   2.836   4.719   2.819 -0.6520  0.1427  1.4687
 7050TIP3   OH242564   1.781   4.432  12.017  0.1588  0.0666  0.4747
 7050TIP3    H142565   1.700   4.475  11.989 -0.0938 -0.3535  0.5495
 7050TIP3    H242566   1.846   4.503  12.019 -0.1315  0.3510  0.1227
 7051TIP3   OH242567   2.599   4.237   3.025  0.1236  0.3173 -0.3626
 7051TIP3    H142568   2.631   4.263   2.938  0.4457  2.9910  0.4533
 7051TIP3    H242569   2.506   4.261   3.024  0.5314  2.0790  0.5691
 7052TIP3   OH242570   3.682   2.574   6.188 -0.0229 -0.1342 -0.3352
 7052TIP3    H142571   3.755   2.558   6.128 -0.1352 -0.4623 -0.3916
 7052TIP3    H242572   3.660   2.666   6.176  0.1422 -0.1264 -0.5878
 7053TIP3   OH242573   6.199   4.983  16.801 -0.5074  0.0298  0.4418
 7053TIP3    H142574   6.129   4.993  16.865 -0.9432  0.6941 -0.1249
 7053TIP3    H242575   6.236   5.072  16.793  1.0256 -0.4706  1.4207
 7054TIP3   OH242576   1.958   5.592  12.309  0.0821  0.0819  0.6298
 7054TIP3    H142577   2.024   5.542  12.259  1.2585 -0.0735  2.2658
 7054TIP3    H242578   2.005   5.625  12.385 -1.2728  1.6993  0.8328
 7055TIP3   OH242579   4.737   2.448  15.842  0.6909  0.2983 -0.1497
 7055TIP3    H142580   4.817   2.475  15.797  0.2484 -0.9342 -1.7509
 7055TIP3    H242581   4.730   2.509  15.915  3.6469 -0.1847  0.7040
 7056TIP3   OH242582   4.534   4.802  13.857  0.3883  0.8693  0.2515
 7056TIP3    H142583   4.453   4.760  13.828  1.7643 -1.7174 -0.1015
 7056TIP3    H242584   4.603   4.738  13.839  2.6438  3.1951 -0.0223
 7057TIP3   OH242585   4.508   4.837   4.449  0.3570 -0.0680  0.5934
 7057TIP3    H142586   4.451   4.764   4.425 -0.9401  0.9369  0.4889
 7057TIP3    H242587   4.578   4.836   4.383 -0.2312 -0.5771 -0.0297
 7058TIP3   OH242588   4.715   0.108  11.532  0.0762 -0.2093  0.5139
 7058TIP3    H142589   4.786   0.126  11.470 -1.2461  1.9407 -0.4997
 7058TIP3    H242590   4.655   0.051  11.483  0.2050 -0.5118  0.7059
 7059TIP3   OH242591   5.942   2.201   2.051 -0.2162 -0.5780  0.6855
 7059TIP3    H142592   6.012   2.157   2.002 -1.2445  0.0862 -1.5046
 7059TIP3    H242593   5.961   2.294   2.039  0.8575 -0.3095  3.6704
 7060TIP3   OH242594   5.947   2.485  13.637 -0.1328  0.4628  0.3169
 7060TIP3    H142595   5.922   2.565  13.591  0.4264  0.1537 -0.5647
 7060TIP3    H242596   5.899   2.488  13.719 -0.8763  1.2253 -0.1309
 7061TIP3   OH242597   1.598   5.617  15.231 -0.3723  0.2377 -0.2232
 7061TIP3    H142598   1.603   5.671  15.152 -1.1197  0.0265 -0.4223
 7061TIP3    H242599   1.587   5.527  15.199  1.6428 -0.1744  0.0858
 7062TIP3   OH242600   0.068   5.721   0.341  0.7678  0.4258  0.1500
 7062TIP3    H142601   0.036   5.687   0.258  0.1737 -0.4101  0.7118
 7062TIP3    H242602   0.029   5.664   0.407  0.3254  1.7682  1.0753
 7063TIP3   OH242603   0.055   5.739   3.345 -0.2195  0.0445  0.3530
 7063TIP3    H142604   0.092   5.816   3.299 -1.0579  0.2013 -0.0711
 7063TIP3    H242605  -0.034   5.731   3.311 -0.7366 -0.0793  1.6800
 7064TIP3   OH242606   5.045   0.958   0.649 -0.4761 -0.1099  0.6633
 7064TIP3    H142607   5.049   1.027   0.715  1.7062 -0.2659  0.7598
 7064TIP3    H242608   4.951   0.946   0.633 -0.9525  3.6459 -0.2454
 7065TIP3   OH242609   0.808   1.740  12.365  0.2575 -0.4830 -0.1156
 7065TIP3    H142610   0.888   1.771  12.321  0.7339 -0.5550  0.6731
 7065TIP3    H242611   0.826   1.648  12.384 -0.4637 -0.7979 -0.9109
 7066TIP3   OH242612   3.278   3.320   3.563  0.2554 -0.1066 -0.3784
 7066TIP3    H142613   3.215   3.326   3.491 -0.8500 -1.6940  0.3860
 7066TIP3    H242614   3.256   3.393   3.621  0.5851  0.6577 -1.1917
 7067TIP3   OH242615   5.682   6.048   2.954 -0.4652 -0.5388  0.1081
 7067TIP3    H142616   5.614   6.100   2.910 -0.5708 -1.0766 -0.3883
 7067TIP3    H242617   5.717   5.992   2.884  1.1102  0.3438  0.1510
 7068TIP3   OH242618   4.579   0.783   1.527  0.4474 -0.1390  0.1103
 7068TIP3    H142619   4.621   0.732   1.595 -1.3021  0.2467  1.5648
 7068TIP3    H242620   4.588   0.874   1.555  0.9250  0.1418 -0.9071
 7069TIP3   OH242621   3.050   5.324  17.051 -0.1644 -0.3254  0.7457
 7069TIP3    H142622   3.042   5.257  17.119  0.0122 -1.3026 -0.1598
 7069TIP3    H242623   3.009   5.402  17.088 -0.9666 -1.1234  1.5888
 7070TIP3   OH242624   0.990   2.178   2.631 -0.5148  0.1014 -0.3998
 7070TIP3    H142625   0.906   2.160   2.673  0.6835 -1.8948  1.3174
 7070TIP3    H242626   1.043   2.218   2.700  0.7098 -0.9162 -0.7205
 7071TIP3   OH242627   5.403   2.871  14.420 -0.0149 -0.1213 -0.2967
 7071TIP3    H142628   5.346   2.795  14.414  0.1054 -0.1042 -3.9392
 7071TIP3    H242629   5.481   2.847  14.371  0.6566  1.8544 -0.3013
 7072TIP3   OH242630   2.037   5.906   3.811 -0.0409  0.4530  0.6809
 7072TIP3    H142631   1.976   5.858   3.754 -0.1633 -0.3708  1.4870
 7072TIP3    H242632   2.123   5.872   3.788 -0.1116 -0.0443  1.1328
 7073TIP3   OH242633   5.968   5.403   5.717  0.2809 -0.2398  0.2659
 7073TIP3    H142634   6.026   5.479   5.714  0.9378 -0.7576 -1.2549
 7073TIP3    H242635   6.020   5.331   5.682 -1.1152 -0.8054 -0.7645
 7074TIP3   OH242636   1.281   4.363   0.605 -0.1816  0.2845  0.6243
 7074TIP3    H142637   1.231   4.440   0.629 -0.1872  0.3867  0.2902
 7074TIP3    H242638   1.224   4.315   0.544  0.2624  0.5825 -0.0354
 7075TIP3   OH242639   3.645   2.461   2.660  0.0233  0.0705 -0.0079
 7075TIP3    H142640   3.680   2.413   2.585 -0.7326  0.3548 -0.5469
 7075TIP3    H242641   3.723   2.486   2.710  0.5836  0.3951 -1.0103
 7076TIP3   OH242642   3.798   4.513   0.967  0.4562  0.6090 -0.0352
 7076TIP3    H142643   3.826   4.486   1.055 -1.6475 -0.6529  0.3172
 7076TIP3    H242644   3.710   4.548   0.980  1.0972  2.8602 -1.3235
 7077TIP3   OH242645   4.661   0.911  12.710 -0.1759  0.4737 -0.3376
 7077TIP3    H142646   4.593   0.977  12.725  0.4640  1.5346 -1.9019
 7077TIP3    H242647   4.723   0.953  12.652  0.8291 -1.1612 -0.5067
 7078TIP3   OH242648   2.044   5.096   5.061  0.0930 -0.5749  0.0324
 7078TIP3    H142649   2.012   5.113   4.972 -0.4072 -1.2997  0.0643
 7078TIP3    H242650   2.102   5.021   5.051  1.0739  0.1521  0.1240
 7079TIP3   OH242651   0.027   0.984  12.524 -0.4610  0.1746  0.2906
 7079TIP3    H142652   0.102   1.040  12.546  0.6764 -0.4220 -1.7832
 7079TIP3    H242653   0.053   0.897  12.552 -0.5817  0.0588  0.0488
 7080TIP3   OH242654   5.216   0.359  16.642 -0.0127 -0.1131 -0.1128
 7080TIP3    H142655   5.240   0.276  16.601  0.9848  0.9706 -1.8811
 7080TIP3    H242656   5.121   0.356  16.649 -0.0807 -0.9706 -1.1721
 7081TIP3   OH242657   3.711   6.426   2.393  0.3994  0.0933  0.2538
 7081TIP3    H142658   3.628   6.378   2.389  0.4559 -0.0118  0.3499
 7081TIP3    H242659   3.698   6.500   2.334  0.9585 -1.0057 -1.3103
 7082TIP3   OH242660   4.121   0.370   2.617 -0.3042  0.3438  0.0195
 7082TIP3    H142661   4.074   0.431   2.673 -1.8718 -1.0244  0.2878
 7082TIP3    H242662   4.105   0.402   2.528 -0.0512  1.0252  0.2145
 7083TIP3   OH242663   5.485   0.968   3.807 -0.4175 -0.2486 -0.1799
 7083TIP3    H142664   5.479   0.937   3.898 -0.1052 -0.3117 -0.1828
 7083TIP3    H242665   5.540   1.046   3.812  1.2656 -1.3828 -0.6002
 7084TIP3   OH242666   1.597   3.641  15.149  0.0654 -0.1251  0.0924
 7084TIP3    H142667   1.540   3.716  15.165 -0.5171 -0.3394 -0.9107
 7084TIP3    H242668   1.682   3.680  15.129  0.3585  0.1935  1.7686
 7085TIP3   OH242669   6.206   5.419  11.309  0.1426  0.5429 -0.3636
 7085TIP3    H142670   6.223   5.438  11.401 -3.2392  0.9773  0.2876
 7085TIP3    H242671   6.112   5.433  11.298  0.0696 -1.3951 -3.4510
 7086TIP3   OH242672   4.379   3.184   6.162  0.3041  0.5174 -0.1962
 7086TIP3    H142673   4.345   3.136   6.086 -0.5933  0.6094  0.1410
 7086TIP3    H242674   4.472   3.159   6.166  0.4122  0.6628 -1.4334
 7087TIP3   OH242675   2.980   0.333   1.149  0.6719  0.4441 -0.6789
 7087TIP3    H142676   2.982   0.363   1.240  1.8903 -1.2612 -0.0903
 7087TIP3    H242677   2.955   0.411   1.099 -0.7203  1.2509  1.1513
 7088TIP3   OH242678   5.720   6.176  14.285 -0.3075  0.3988  0.0143
 7088TIP3    H142679   5.641   6.201  14.237  1.3704  2.1895 -2.0108
 7088TIP3    H242680   5.736   6.086  14.259  0.9437  1.4919 -3.6406
 7089TIP3   OH242681   0.278   4.102   4.152  0.2407 -0.1380  0.6049
 7089TIP3    H142682   0.283   4.042   4.078 -0.4763 -1.4134  1.5631
 7089TIP3    H242683   0.328   4.179   4.123  1.2514 -1.1969 -0.6246
 7090TIP3   OH242684   0.015   0.534   0.041 -0.4702  0.1486 -1.0962
 7090TIP3    H142685  -0.039   0.575   0.108  2.0812  0.5686  0.8676
 7090TIP3    H242686   0.050   0.608  -0.009  1.7412  0.3262  0.5396
 7091TIP3   OH242687   3.881   2.373   3.874  0.1417  0.0233  0.3897
 7091TIP3    H142688   3.824   2.421   3.814  0.3451 -0.1718  0.0423
 7091TIP3    H242689   3.839   2.288   3.884  0.1009  0.0603  0.5347
 7092TIP3   OH242690   2.568   5.616   3.595 -0.2870  0.3337  0.4418
 7092TIP3    H142691   2.645   5.660   3.558 -0.7462 -0.1637 -1.1732
 7092TIP3    H242692   2.593   5.597   3.685  1.4326  0.3252 -0.0023
 7093TIP3   OH242693   3.454   3.267   1.722 -0.7014  0.0874  0.7964
 7093TIP3    H142694   3.479   3.340   1.779  0.3706 -0.8551  1.5991
 7093TIP3    H242695   3.537   3.222   1.704 -0.6381  1.4697 -3.1980
 7094TIP3   OH242696   4.548   4.114  11.254  0.1636  0.1081  0.1368
 7094TIP3    H142697   4.535   4.078  11.342  0.9290  1.6872  0.9508
 7094TIP3    H242698   4.461   4.113  11.214  0.2237 -3.0786 -0.1397
 7095TIP3   OH242699   4.560   1.443   5.490  0.0211  0.6031  0.2949
 7095TIP3    H142700   4.654   1.461   5.495  0.3409 -0.6096 -0.8561
 7095TIP3    H242701   4.544   1.375   5.556 -0.0537  0.7951  0.4771
 7096TIP3   OH242702   3.204   4.480  11.284 -0.7940 -0.0344  0.1199
 7096TIP3    H142703   3.285   4.431  11.272 -1.3628 -0.6959 -1.2384
 7096TIP3    H242704   3.182   4.468  11.377  0.4630 -0.1404  0.4155
 7097TIP3   OH242705   3.916   3.637   0.400 -0.1682  0.0790 -0.1785
 7097TIP3    H142706   3.839   3.694   0.403 -0.1187  0.1889 -0.8362
 7097TIP3    H242707   3.967   3.669   0.326  1.1708  0.8504  1.0172
 7098TIP3   OH242708   3.681   3.962   5.476  0.0954  0.1831 -0.3555
 7098TIP3    H142709   3.726   3.936   5.556  1.2124  0.2487 -0.9446
 7098TIP3    H242710   3.593   3.986   5.505  0.5894  0.5675  0.9108
 7099TIP3   OH242711   2.989   1.390  12.451  0.0613  0.2649  0.0182
 7099TIP3    H142712   2.988   1.330  12.377 -0.6649  0.0200  0.2162
 7099TIP3    H242713   2.981   1.334  12.528 -3.1879  0.6641  0.1280
 7100TIP3   OH242714   6.242   0.241  15.003  0.0971 -0.2340 -0.1004
 7100TIP3    H142715   6.160   0.202  14.972  0.4721 -1.5060  0.4769
 7100TIP3    H242716   6.229   0.335  14.991 -0.8743 -0.5105 -1.4010
 7101TIP3   OH242717   2.090   0.121   0.931  0.6897 -0.8802  0.5398
 7101TIP3    H142718   1.998   0.096   0.940  0.7738 -1.0763  0.8853
 7101TIP3    H242719   2.107   0.118   0.837 -0.2686  1.3590  0.2254
 7102TIP3   OH242720   1.766   1.843  14.437  0.5804  0.3773  0.1256
 7102TIP3    H142721   1.837   1.906  14.448  0.5528  0.3563  0.4347
 7102TIP3    H242722   1.784   1.800  14.354 -0.9135  2.7728 -1.5849
 7103TIP3   OH242723   0.762   5.857  15.230 -0.0791 -0.2820  0.2896
 7103TIP3    H142724   0.811   5.934  15.203 -0.2367 -0.4615 -0.5294
 7103TIP3    H242725   0.670   5.881  15.217 -0.1083 -0.8063 -0.5422
 7104TIP3   OH242726   1.213   3.444   4.534  0.6218  0.7385  0.0971
 7104TIP3    H142727   1.207   3.462   4.440  1.0983 -0.3886 -0.1663
 7104TIP3    H242728   1.287   3.384   4.542  0.3439  0.5239  1.1445
 7105TIP3   OH242729   0.162   4.325   2.456 -0.1533 -0.6614  0.3448
 7105TIP3    H142730   0.135   4.245   2.500 -2.1332 -0.7533 -0.9094
 7105TIP3    H242731   0.085   4.352   2.405  1.4208  0.3889 -1.6420
 7106TIP3   OH242732   0.596   5.133   1.016 -0.0313  0.2312 -0.6130
 7106TIP3    H142733   0.566   5.204   0.958 -0.5418  0.1520 -0.4504
 7106TIP3    H242734   0.583   5.053   0.966 -0.7780  0.1337 -0.2761
 7107TIP3   OH242735   0.780   2.572   4.998  0.5455 -0.6101  0.3102
 7107TIP3    H142736   0.735   2.656   4.999  1.5596 -0.0462 -0.1318
 7107TIP3    H242737   0.732   2.520   4.934  0.4578 -0.0617 -0.0745
 7108TIP3   OH242738   2.827   0.307   2.680  0.9507 -0.2816 -0.3059
 7108TIP3    H142739   2.870   0.223   2.665  0.1762 -0.4815 -1.6140
 7108TIP3    H242740   2.885   0.371   2.637  2.1165  0.0433  1.6392
 7109TIP3   OH242741   5.011   5.396  15.549 -0.1219 -0.2171  0.0266
 7109TIP3    H142742   5.017   5.358  15.637 -0.9992 -0.4130  0.0131
 7109TIP3    H242743   5.038   5.487  15.560 -1.8621  0.2375  0.8471
 7110TIP3   OH242744   4.172   4.324   1.390  0.3336  0.5127 -0.3203
 7110TIP3    H142745   4.243   4.300   1.330 -0.1924  1.5566 -1.4074
 7110TIP3    H242746   4.206   4.302   1.477  1.6687  0.2429 -0.8765
 7111TIP3   OH242747   5.369   3.137   2.428  0.1104 -0.0913  0.1549
 7111TIP3    H142748   5.373   3.169   2.338 -0.8970  0.2541  0.2196
 7111TIP3    H242749   5.304   3.066   2.425  0.2689 -0.2537  0.5535
 7112TIP3   OH242750   0.442   1.799  14.179  0.5086 -0.3245  0.0197
 7112TIP3    H142751   0.371   1.850  14.217  0.0764 -0.9420  0.0615
 7112TIP3    H242752   0.404   1.712  14.165  1.1048 -0.5169 -0.4354
 7113TIP3   OH242753   3.574   2.034  10.843 -0.3223 -0.1438 -0.0324
 7113TIP3    H142754   3.509   1.973  10.807  0.8866 -0.4608 -1.7951
 7113TIP3    H242755   3.537   2.120  10.825 -0.5456 -0.3244 -0.4777
 7114TIP3   OH242756   0.314   2.940   5.038 -0.3325 -0.4137  0.4585
 7114TIP3    H142757   0.340   3.010   4.978  0.5533 -0.3809  0.8782
 7114TIP3    H242758   0.304   2.983   5.123 -0.1269 -0.7277  0.6425
 7115TIP3   OH242759   2.563   3.794  15.135 -0.0416 -0.2631 -0.2567
 7115TIP3    H142760   2.527   3.707  15.120 -1.2976  0.3228 -0.8129
 7115TIP3    H242761   2.583   3.796  15.228 -0.5884 -0.9268 -0.1196
 7116TIP3   OH242762   0.857   0.799  16.625 -0.0556 -0.0680  0.0738
 7116TIP3    H142763   0.828   0.827  16.712  0.4508  2.2894 -0.4299
 7116TIP3    H242764   0.784   0.746  16.591 -1.9699  2.0912  0.5205
 7117TIP3   OH242765   5.228   4.471   0.788 -0.4442  0.1559  0.1170
 7117TIP3    H142766   5.138   4.466   0.757 -0.3425 -0.4198 -0.0856
 7117TIP3    H242767   5.222   4.519   0.871 -0.8121  1.0203 -0.3935
 7118TIP3   OH242768   2.910   0.040   2.731 -0.1094  0.3701  0.3908
 7118TIP3    H142769   2.847  -0.032   2.720 -0.1952  0.5328 -0.2413
 7118TIP3    H242770   2.993  -0.003   2.750 -0.2904  0.1282  0.6398
 7119TIP3   OH242771   2.543   3.835  16.857 -0.0979  0.3822 -0.3447
 7119TIP3    H142772   2.567   3.767  16.920 -2.0770  0.4605  0.5932
 7119TIP3    H242773   2.626   3.867  16.823  0.9632 -1.1032  0.6945
 7120TIP3   OH242774   5.268   1.514  12.468  0.0960  0.5003 -0.1464
 7120TIP3    H142775   5.269   1.440  12.528  0.4327  0.3526 -0.3321
 7120TIP3    H242776   5.183   1.556  12.483 -0.6894 -0.7166 -0.9871
 7121TIP3   OH242777   4.889   5.894   0.458  0.0926  0.0095 -0.1371
 7121TIP3    H142778   4.956   5.938   0.510  0.7144 -0.5285 -0.4532
 7121TIP3    H242779   4.817   5.957   0.453  1.2278  1.3012 -1.1825
 7122TIP3   OH242780   5.919   1.523   4.457  1.1257 -0.3311  0.9021
 7122TIP3    H142781   5.922   1.467   4.379 -0.0711  1.0302 -0.1802
 7122TIP3    H242782   5.865   1.474   4.519 -0.7771 -0.0311 -0.4000
 7123TIP3   OH242783   2.396   4.692   2.052  0.1701  0.9591  0.1940
 7123TIP3    H142784   2.464   4.672   1.988 -0.1127  0.5857  0.0087
 7123TIP3    H242785   2.403   4.786   2.066  1.7037  0.7089  1.2888
 7124TIP3   OH242786   6.735   2.571   5.394 -0.2604  0.7099  0.3980
 7124TIP3    H142787   6.774   2.650   5.430 -1.8321  0.6211  2.4668
 7124TIP3    H242788   6.646   2.596   5.369 -0.1964  0.0009 -0.6274
 7125TIP3   OH242789   3.570   1.214  15.792  0.4342 -0.8411 -0.5541
 7125TIP3    H142790   3.490   1.164  15.806  0.0262 -0.4342 -1.3389
 7125TIP3    H242791   3.619   1.164  15.728  2.4875 -2.9147  2.3940
 7126TIP3   OH242792   0.978   0.316   4.771  0.2366  0.2587  0.3236
 7126TIP3    H142793   1.022   0.241   4.812 -1.8882 -1.1696  0.1368
 7126TIP3    H242794   0.935   0.361   4.843 -0.7118 -0.3038  0.1313
 7127TIP3   OH242795   3.174   0.989   6.458 -0.2211 -1.0333  0.2098
 7127TIP3    H142796   3.105   1.043   6.497 -0.0599  0.1899 -1.1103
 7127TIP3    H242797   3.248   0.997   6.518 -0.4646 -0.4249  0.4418
 7128TIP3   OH242798   0.768   2.417   2.785 -0.6928 -0.1208 -0.3452
 7128TIP3    H142799   0.792   2.509   2.783  0.8758 -0.5075 -0.1836
 7128TIP3    H242800   0.761   2.392   2.693  0.2359 -0.1715 -0.4072
 7129TIP3   OH242801   4.802   2.790   2.992  0.1398  0.7152 -0.4488
 7129TIP3    H142802   4.842   2.871   3.025  0.4351  1.3896 -2.3200
 7129TIP3    H242803   4.773   2.812   2.903 -1.2081 -0.7973 -0.4306
 7130TIP3   OH242804   6.175   6.633  11.947  0.1521 -0.5636 -0.3258
 7130TIP3    H142805   6.106   6.588  11.997  0.6881 -0.9322  0.0983
 7130TIP3    H242806   6.147   6.725  11.946  0.6720 -0.3322  1.6474
 7131TIP3   OH242807   1.664   2.356   4.538  0.2763 -0.3625  0.3223
 7131TIP3    H142808   1.669   2.445   4.504  3.5052 -1.3769 -2.4261
 7131TIP3    H242809   1.697   2.362   4.627  2.5618  1.0310 -0.5236
 7132TIP3   OH242810   3.199   4.336   4.560  0.3027 -0.3380 -0.4043
 7132TIP3    H142811   3.122   4.340   4.504 -0.2674  1.8339  0.4484
 7132TIP3    H242812   3.191   4.411   4.619  1.9312 -1.3488  1.2214
 7133TIP3   OH242813   5.765   6.676   2.035  0.3373  0.2663  0.8393
 7133TIP3    H142814   5.795   6.639   1.952 -1.7787  0.8380 -0.2495
 7133TIP3    H242815   5.769   6.602   2.096 -0.8984 -1.0244 -0.5455
 7134TIP3   OH242816   5.648   2.546  12.312  0.4473  0.5512  0.7623
 7134TIP3    H142817   5.560   2.526  12.344  0.8355 -0.2571  1.3349
 7134TIP3    H242818   5.666   2.480  12.246  1.3719 -0.4881  2.0128
 7135TIP3   OH242819   1.993   4.552   3.394  0.2417  0.7575 -0.7717
 7135TIP3    H142820   2.087   4.535   3.404  0.1132  0.4858  0.0509
 7135TIP3    H242821   1.953   4.509   3.470 -0.5870  0.5429 -1.3168
 7136TIP3   OH242822   0.949   3.240  13.336  0.0034 -0.1478 -0.4072
 7136TIP3    H142823   0.881   3.213  13.273 -1.5523  1.6041  0.4036
 7136TIP3    H242824   0.962   3.333  13.317  0.0435  0.2274  1.3569
 7137TIP3   OH242825   1.446   6.574  11.568  0.3470 -0.1623 -0.4461
 7137TIP3    H142826   1.507   6.598  11.637 -1.4772 -1.0773  1.5838
 7137TIP3    H242827   1.369   6.629  11.583 -0.3055 -0.7618 -1.4271
 7138TIP3   OH242828   3.622   0.796   2.948  0.7663 -0.2376  0.2152
 7138TIP3    H142829   3.541   0.751   2.924  1.5757 -1.4842 -0.2818
 7138TIP3    H242830   3.594   0.880   2.983 -0.7648 -0.8400  0.4848
 7139TIP3   OH242831   1.839   4.534   2.867 -0.0191 -0.4630 -0.2129
 7139TIP3    H142832   1.793   4.524   2.783  2.4872 -1.0689 -1.6090
 7139TIP3    H242833   1.884   4.618   2.859  0.9635 -0.9493  0.1338
 7140TIP3   OH242834   6.024   3.982   1.275 -0.3727  0.3495 -0.0921
 7140TIP3    H142835   5.955   3.933   1.231 -1.0246  0.2311  1.0457
 7140TIP3    H242836   6.040   4.057   1.217 -1.1188  0.1362 -0.5912
 7141TIP3   OH242837   3.207   0.641   0.826  0.7455 -0.1711 -0.2820
 7141TIP3    H142838   3.189   0.558   0.869  2.4043 -0.9327 -0.9486
 7141TIP3    H242839   3.302   0.640   0.812  0.8335  1.9245 -0.1449
 7142TIP3   OH242840   1.361   5.650  12.556 -0.4433 -0.0326 -0.6584
 7142TIP3    H142841   1.271   5.627  12.536  0.4225 -2.5513 -2.1459
 7142TIP3    H242842   1.410   5.626  12.477  1.3740  2.7666 -0.5533
 7143TIP3   OH242843   4.177   3.125   5.272  0.0887 -0.6842  0.4767
 7143TIP3    H142844   4.213   3.066   5.206  2.2978 -2.0004  2.6742
 7143TIP3    H242845   4.227   3.205   5.263 -0.9597 -0.1177 -0.6425
 7144TIP3   OH242846   0.647   3.401   2.441  0.2905 -0.0502  0.2115
 7144TIP3    H142847   0.713   3.344   2.480 -0.5159  0.0926  1.9131
 7144TIP3    H242848   0.565   3.371   2.479 -0.2098  1.8778  0.7714
 7145TIP3   OH242849   0.847   3.171   0.540 -0.7794 -0.2631 -0.4922
 7145TIP3    H142850   0.801   3.246   0.502  0.9687  0.0905 -2.0574
 7145TIP3    H242851   0.846   3.105   0.470 -1.3252 -1.3137  0.4725
 7146TIP3   OH242852   3.765   4.328  16.830  0.5876 -0.0969 -0.3998
 7146TIP3    H142853   3.816   4.247  16.831  2.3746  0.9888  0.0912
 7146TIP3    H242854   3.801   4.377  16.756  0.6427  0.9299  0.3045
 7147TIP3   OH242855   0.464   4.709   2.617 -0.0467  0.4889  0.0115
 7147TIP3    H142856   0.415   4.786   2.644 -0.4225  0.1920  0.1981
 7147TIP3    H242857   0.397   4.647   2.589 -0.1209 -1.1623  3.2895
 7148TIP3   OH242858   6.094   1.986   0.144 -0.4654 -0.8549 -0.1393
 7148TIP3    H142859   6.050   2.053   0.196 -0.4291 -0.2372 -0.8886
 7148TIP3    H242860   6.105   1.913   0.204  1.2745  0.5030  1.3115
 7149TIP3   OH242861   4.587   1.248   2.353 -0.1058  0.0170 -0.4856
 7149TIP3    H142862   4.617   1.326   2.399 -0.2006 -1.2654  1.9213
 7149TIP3    H242863   4.666   1.212   2.313  0.5176 -0.1803  0.8650
 7150TIP3   OH242864   4.131   0.132  16.684  0.3915  0.4828  0.4184
 7150TIP3    H142865   4.080   0.166  16.611  0.3778  4.4181  2.0133
 7150TIP3    H242866   4.068   0.125  16.756  0.7441 -1.6434  0.5702
 7151TIP3   OH242867   6.772   2.500   4.285 -0.0243  0.3790 -0.1994
 7151TIP3    H142868   6.797   2.422   4.235  1.1469  0.6736 -0.1076
 7151TIP3    H242869   6.766   2.569   4.219 -0.3276  0.3658 -0.1837
 7152TIP3   OH242870   1.552   1.175   5.816  0.2291  0.0258  0.3779
 7152TIP3    H142871   1.491   1.121   5.867  0.3132 -1.2376 -0.8135
 7152TIP3    H242872   1.624   1.116   5.794  0.4909  0.7102 -0.6845
 7153TIP3   OH242873   4.304   1.183   4.288  0.3214 -0.6635  0.3119
 7153TIP3    H142874   4.365   1.219   4.352  1.8060  0.5464 -1.6899
 7153TIP3    H242875   4.236   1.250   4.280  0.1413 -0.8102  0.5921
 7154TIP3   OH242876   5.988   5.751  11.004  0.1615 -0.0835 -0.0681
 7154TIP3    H142877   6.022   5.804  11.076 -0.6879  0.9882 -0.4103
 7154TIP3    H242878   5.893   5.749  11.018  0.1390 -1.2496 -0.2607
 7155TIP3   OH242879   4.713   4.972  12.875  0.6645  0.1014  0.3561
 7155TIP3    H142880   4.696   4.880  12.893 -0.2456  0.2672  0.3915
 7155TIP3    H242881   4.678   4.986  12.787 -0.2700  0.6747  0.7984
 7156TIP3   OH242882   6.532   4.073  13.224 -0.3211  0.2119  0.4687
 7156TIP3    H142883   6.470   4.095  13.294 -0.4284  3.1261 -0.3888
 7156TIP3    H242884   6.600   4.140  13.231  0.3843 -0.2662 -1.3655
 7157TIP3   OH242885   5.034   3.351  11.825  0.3807  0.1835 -0.1515
 7157TIP3    H142886   4.942   3.336  11.844  0.6060 -0.8014  0.2153
 7157TIP3    H242887   5.081   3.307  11.896  1.1397  0.3504 -0.5372
 7158TIP3   OH242888   6.190   0.292  14.620  0.2797 -0.1349  0.3035
 7158TIP3    H142889   6.129   0.252  14.681 -0.3023  1.8186  1.0750
 7158TIP3    H242890   6.134   0.340  14.558  0.9727  1.5881  0.9515
 7159TIP3   OH242891   1.915   6.205   5.624  0.5515 -0.4337  0.2083
 7159TIP3    H142892   1.873   6.258   5.556  0.4934 -1.1030 -0.2891
 7159TIP3    H242893   1.924   6.118   5.584  2.9104 -0.1931  0.0944
 7160TIP3   OH242894   4.900   6.493  15.586 -0.8271 -0.7024  0.5670
 7160TIP3    H142895   4.969   6.558  15.598 -0.4934 -0.7542 -0.8655
 7160TIP3    H242896   4.942   6.410  15.608  0.1043 -0.9314 -1.7542
 7161TIP3   OH242897   0.608   3.190  15.548 -0.0376 -0.4118  0.3227
 7161TIP3    H142898   0.701   3.188  15.524  0.2637  0.2108  1.3550
 7161TIP3    H242899   0.579   3.278  15.522 -0.2611 -0.5014  0.2669
 7162TIP3   OH242900   2.885   1.073   0.629 -0.2861 -0.1110 -0.8422
 7162TIP3    H142901   2.830   1.033   0.696 -1.7571  4.7392  1.2786
 7162TIP3    H242902   2.829   1.081   0.552 -0.8404  0.2286 -0.4051
 7163TIP3   OH242903   4.314   2.219   2.000  0.9890  0.2053  0.4538
 7163TIP3    H142904   4.250   2.285   1.972  1.7700  0.3346 -1.1407
 7163TIP3    H242905   4.398   2.250   1.966  1.7347 -0.5314  1.5488
 7164TIP3   OH242906   4.383   1.934  12.096 -1.0901 -0.0342 -0.3756
 7164TIP3    H142907   4.382   2.004  12.031 -1.2289  1.8123  1.5222
 7164TIP3    H242908   4.292   1.925  12.123 -0.8510  0.1529  0.5137
 7165TIP3   OH242909   5.556   6.777   2.769  0.0674 -0.2686 -0.0408
 7165TIP3    H142910   5.568   6.871   2.778 -0.5502 -0.3167  1.5188
 7165TIP3    H242911   5.581   6.740   2.853 -1.4913 -1.2996  0.0276
 7166TIP3   OH242912   1.580   3.699   3.872 -0.1224  0.2128  0.1615
 7166TIP3    H142913   1.633   3.619   3.873 -0.8363 -0.2771  1.6494
 7166TIP3    H242914   1.613   3.750   3.946 -2.2828 -0.5193  1.7222
 7167TIP3   OH242915   2.444   2.826  13.335  0.4290  0.3494  0.2132
 7167TIP3    H142916   2.406   2.891  13.393 -1.3001 -1.3716  1.0908
 7167TIP3    H242917   2.478   2.758  13.393  1.0269 -0.1782 -0.7162
 7168TIP3   OH242918   2.705   4.018   3.126 -0.1725 -0.5251  0.1223
 7168TIP3    H142919   2.669   4.102   3.096 -0.6067 -1.0934 -0.9940
 7168TIP3    H242920   2.767   4.042   3.195  2.8713  1.0800 -2.9003
 7169TIP3   OH242921   4.491   6.023   2.793 -0.5403 -0.3409 -0.1300
 7169TIP3    H142922   4.519   6.102   2.839 -0.5598 -1.3333  1.6908
 7169TIP3    H242923   4.400   6.039   2.769 -0.3238  0.4603 -0.4345
 7170TIP3   OH242924   0.984   3.189   0.990 -0.5058 -0.2363 -0.2731
 7170TIP3    H142925   0.943   3.144   0.916 -0.6951 -2.0216  0.8590
 7170TIP3    H242926   0.911   3.210   1.048 -0.0405 -2.3257  1.1767
 7171TIP3   OH242927   5.597   4.340  15.762  0.2939  0.4143 -0.2584
 7171TIP3    H142928   5.545   4.324  15.683 -2.0966  1.8775  0.9219
 7171TIP3    H242929   5.617   4.433  15.760  2.3375  0.0394 -0.2706
 7172TIP3   OH242930   6.247   5.100  13.768 -0.9172  0.2112  0.5006
 7172TIP3    H142931   6.331   5.139  13.744 -0.2423 -0.5627  1.5370
 7172TIP3    H242932   6.184   5.172  13.759  0.1476  1.3194  1.4606
 7173TIP3   OH242933   2.746   6.681  13.964 -0.2903 -0.6646  0.3254
 7173TIP3    H142934   2.789   6.595  13.964  0.3241 -0.3642  0.0258
 7173TIP3    H242935   2.677   6.673  13.897 -0.8715 -1.2242  0.9760
 7174TIP3   OH242936   3.477   1.199  13.723  0.4497  0.1791  0.4541
 7174TIP3    H142937   3.399   1.195  13.777 -1.1257 -0.6654 -1.7352
 7174TIP3    H242938   3.547   1.166  13.779 -1.2859 -1.6936  1.6329
 7175TIP3   OH242939   0.851   0.903  13.862  0.1500 -0.4366 -0.4706
 7175TIP3    H142940   0.896   0.886  13.945 -0.1582 -2.7531 -0.7019
 7175TIP3    H242941   0.848   0.998  13.855  1.3633 -0.1964  1.5236
 7176TIP3   OH242942   3.085   3.412  12.575  0.2225 -0.2070  0.3977
 7176TIP3    H142943   3.119   3.460  12.651  0.1278  1.4019 -0.5248
 7176TIP3    H242944   3.002   3.455  12.556 -0.3160 -1.3722  0.0829
 7177TIP3   OH242945   3.866   5.407  16.857 -0.4777  0.3811  0.0596
 7177TIP3    H142946   3.828   5.458  16.928 -1.1094 -0.7868  0.5944
 7177TIP3    H242947   3.903   5.329  16.901 -0.3735 -0.0813 -0.8241
 7178TIP3   OH242948   1.285   6.209  13.913 -0.0678  0.4094 -0.3064
 7178TIP3    H142949   1.191   6.195  13.925  0.2658 -1.7895  0.1506
 7178TIP3    H242950   1.326   6.128  13.944  2.1167  1.9394  1.1322
 7179TIP3   OH242951   6.769   3.294   5.548 -0.3279 -0.1620  0.1969
 7179TIP3    H142952   6.844   3.292   5.607 -0.4146 -0.9459  0.2871
 7179TIP3    H242953   6.703   3.241   5.592 -1.2980  1.2958  0.5803
 7180TIP3   OH242954   0.295   2.542  16.945  0.8620 -0.5343  0.4451
 7180TIP3    H142955   0.327   2.460  16.905  0.2721  0.4814 -2.3671
 7180TIP3    H242956   0.374   2.596  16.955  0.8769 -0.3134 -0.6963
 7181TIP3   OH242957   0.617   4.475   0.772 -0.1839  0.3115  0.0371
 7181TIP3    H142958   0.605   4.557   0.819 -0.1174  0.6029 -0.4597
 7181TIP3    H242959   0.696   4.437   0.812 -0.8345 -0.0441  1.0188
 7182TIP3   OH242960   4.040   6.697  11.957 -0.6750 -0.0658  0.3494
 7182TIP3    H142961   3.972   6.758  11.929  0.5983  1.9701  1.4257
 7182TIP3    H242962   4.046   6.709  12.052  0.5328 -0.8695  0.3976
 7183TIP3   OH242963   3.576   3.925   3.723  0.5188  0.2642  1.1253
 7183TIP3    H142964   3.610   3.897   3.808 -0.2980  2.0923  2.1363
 7183TIP3    H242965   3.489   3.961   3.743 -0.0196  0.0363 -0.6229
 7184TIP3   OH242966   3.418   1.680  16.099  0.0104 -0.1467  0.1207
 7184TIP3    H142967   3.406   1.597  16.054 -2.7012 -0.3159  0.9778
 7184TIP3    H242968   3.469   1.658  16.177  0.8571 -0.6384 -0.5517
 7185TIP3   OH242969   0.068   3.034   4.808  0.4284  0.5644  0.8083
 7185TIP3    H142970   0.103   2.946   4.795  0.9970  0.9386 -0.2413
 7185TIP3    H242971   0.135   3.079   4.860  0.1083  0.3745  1.4008
 7186TIP3   OH242972   2.747   4.569   0.853  0.4216 -0.1919 -0.6657
 7186TIP3    H142973   2.670   4.610   0.892  1.3771 -0.5624  1.7969
 7186TIP3    H242974   2.713   4.494   0.804 -0.8964  0.6303 -1.0598
 7187TIP3   OH242975   5.793   3.089   4.834  0.0491 -0.4520 -0.1213
 7187TIP3    H142976   5.859   3.081   4.766  2.3083  2.2925  1.4992
 7187TIP3    H242977   5.822   3.031   4.904  1.8959  1.9669  1.2752
 7188TIP3   OH242978   4.015   1.688   4.425  0.2395  0.2203  0.0909
 7188TIP3    H142979   4.053   1.627   4.361  0.6927  0.5327  0.0576
 7188TIP3    H242980   4.080   1.758   4.434 -1.0449  1.6789 -1.2654
 7189TIP3   OH242981   3.501   3.394   3.396  0.2773 -0.5371 -0.6269
 7189TIP3    H142982   3.549   3.375   3.315 -0.1773  0.0409 -1.0466
 7189TIP3    H242983   3.457   3.312   3.418  0.3442 -0.6806 -1.0119
 7190TIP3   OH242984   5.060   4.540   4.566  0.3748 -0.0689  0.3514
 7190TIP3    H142985   5.066   4.635   4.559  0.2877 -0.1681 -1.2903
 7190TIP3    H242986   5.094   4.507   4.483  2.1348 -1.5512  1.5840
 7191TIP3   OH242987   5.717   2.015  13.058  0.6001 -0.5007 -0.1631
 7191TIP3    H142988   5.654   1.971  13.115 -0.9748  0.5325 -1.0359
 7191TIP3    H242989   5.800   1.972  13.076 -0.4497 -2.2963  0.6084
 7192TIP3   OH242990   6.750   2.495  16.500  0.2851  0.0904  0.0688
 7192TIP3    H142991   6.680   2.536  16.449  0.9603  1.9204  0.5317
 7192TIP3    H242992   6.709   2.420  16.543 -1.5356  1.4037  0.7323
 7193TIP3   OH242993   5.355   3.042  13.482  0.1225  0.1864  0.1832
 7193TIP3    H142994   5.354   3.040  13.386  0.7572 -0.3629  0.1816
 7193TIP3    H242995   5.393   3.128  13.503  0.0637  0.2723 -0.0616
 7194TIP3   OH242996   1.988   5.293   4.024 -0.6577  0.0473 -0.5925
 7194TIP3    H142997   1.972   5.283   4.117 -0.1097  0.3085 -0.4642
 7194TIP3    H242998   2.026   5.380   4.015  1.5133 -0.8518 -0.7418
 7195TIP3   OH242999   1.568   5.634   5.318  0.7227 -0.2057 -0.1077
 7195TIP3    H143000   1.641   5.577   5.343  1.2543  0.4666 -0.1192
 7195TIP3    H243001   1.600   5.722   5.332  0.5693  0.1689 -1.8906
 7196TIP3   OH243002   5.706   4.443   2.280 -0.0290 -0.3196 -0.3135
 7196TIP3    H143003   5.684   4.465   2.189 -0.9711  1.6092  0.3300
 7196TIP3    H243004   5.800   4.459   2.287  0.1514 -0.9854 -1.0573
 7197TIP3   OH243005   6.097   0.550   1.108  0.5845  0.6450 -0.0852
 7197TIP3    H143006   6.138   0.561   1.193  1.1304 -0.5699 -0.1718
 7197TIP3    H243007   6.123   0.627   1.058  0.3382  1.3186  0.8026
 7198TIP3   OH243008   4.479   3.245   1.096 -0.4586 -0.1851  0.0441
 7198TIP3    H143009   4.443   3.158   1.080 -0.0344 -0.3464 -0.0284
 7198TIP3    H243010   4.568   3.229   1.126  0.2651  0.2979 -1.7716
 7199TIP3   OH243011   5.852   1.380   3.098  0.1525  0.7494  0.0640
 7199TIP3    H143012   5.759   1.402   3.088 -0.3346 -0.8452  0.7016
 7199TIP3    H243013   5.885   1.444   3.161 -1.0380  0.1353  1.3826
 7200TIP3   OH243014   1.002   5.883   1.787  0.0993 -0.4557 -0.6586
 7200TIP3    H143015   1.020   5.830   1.709  0.8305  0.7380 -1.3422
 7200TIP3    H243016   0.917   5.923   1.770 -0.7153 -1.8059  0.1068
 7201TIP3   OH243017   1.328   1.103  15.289  0.5132  0.2328 -0.0759
 7201TIP3    H143018   1.342   1.023  15.341 -1.6510  0.3346  0.8046
 7201TIP3    H243019   1.376   1.088  15.208  0.8907 -1.6034  0.4350
 7202TIP3   OH243020   1.958   1.868  15.831  0.0167  0.4742  0.4970
 7202TIP3    H143021   1.959   1.936  15.763  2.3803 -0.4459 -0.5209
 7202TIP3    H243022   1.905   1.797  15.793 -1.0400  1.0613  0.8477
 7203TIP3   OH243023   2.849   1.474  15.260  0.3365 -0.4171  0.0350
 7203TIP3    H143024   2.903   1.490  15.183 -0.2522  0.0717 -0.2841
 7203TIP3    H243025   2.760   1.489  15.230 -0.1197 -2.5057  0.2065
 7204TIP3   OH243026   3.847   0.357  15.210  0.2552  0.4231 -0.5248
 7204TIP3    H143027   3.815   0.427  15.267  1.6891 -0.1087  1.0180
 7204TIP3    H243028   3.882   0.403  15.133 -0.6066  1.2451 -0.4473
 7205TIP3   OH243029   2.137   6.136   2.540 -0.7832 -0.2387  0.0845
 7205TIP3    H143030   2.113   6.051   2.502 -0.2500  0.0994 -1.0718
 7205TIP3    H243031   2.208   6.167   2.484  2.3209 -1.1309  3.1716
 7206TIP3   OH243032   6.573   1.456   0.978  0.5340 -0.1701 -0.9664
 7206TIP3    H143033   6.628   1.501   1.043 -0.9522  2.5462 -1.4417
 7206TIP3    H243034   6.623   1.377   0.955  2.6052  0.4285  1.0803
 7207TIP3   OH243035   2.231   6.364  16.780  0.0415  0.1850 -0.4207
 7207TIP3    H143036   2.212   6.278  16.744 -0.0944  0.5185 -1.1636
 7207TIP3    H243037   2.299   6.400  16.723 -1.1155  1.2538 -1.1832
 7208TIP3   OH243038   3.206   2.140   3.168  0.1006 -0.4337 -0.5601
 7208TIP3    H143039   3.183   2.219   3.217  0.6565 -0.9494  0.5566
 7208TIP3    H243040   3.121   2.098   3.150 -0.0482 -0.9546  1.2106
 7209TIP3   OH243041   3.309   3.833   2.685 -0.4239 -0.0788  0.2327
 7209TIP3    H143042   3.307   3.756   2.743 -1.0494  0.9208  1.5966
 7209TIP3    H243043   3.395   3.830   2.645 -1.0706 -2.4924 -1.1822
 7210TIP3   OH243044   0.890   6.428  13.997  0.1251  0.6358 -0.4099
 7210TIP3    H143045   0.939   6.494  13.947  0.7438 -0.8807 -1.9187
 7210TIP3    H243046   0.945   6.350  13.993 -0.3122  0.1583  1.8439
 7211TIP3   OH243047   6.316   6.018  13.286 -0.2986  0.4661  0.5325
 7211TIP3    H143048   6.332   5.925  13.268 -1.2861  0.0954  1.4995
 7211TIP3    H243049   6.248   6.018  13.354  0.1675  1.8806  1.0270
 7212TIP3   OH243050   6.016   6.292   5.549  0.1070  0.2365  0.2109
 7212TIP3    H143051   5.989   6.267   5.638  0.0296  0.4457  0.2458
 7212TIP3    H243052   5.960   6.365   5.526 -0.4651 -0.3610 -0.3469
 7213TIP3   OH243053   3.593   0.731  13.174  0.0116 -0.0887 -0.0648
 7213TIP3    H143054   3.623   0.795  13.239 -0.1272  0.9904 -1.0286
 7213TIP3    H243055   3.580   0.783  13.094 -0.8707 -1.1922 -0.6586
 7214TIP3   OH243056   6.461   4.846   5.125 -0.5684  0.2899 -0.0323
 7214TIP3    H143057   6.428   4.935   5.121 -0.1855  0.4183 -0.3752
 7214TIP3    H243058   6.458   4.823   5.218  1.0438  1.3194  0.3031
 7215TIP3   OH243059   4.018   2.128  13.766  0.0299  0.4618 -0.3601
 7215TIP3    H143060   4.023   2.223  13.780  0.4637  0.5536 -1.1147
 7215TIP3    H243061   4.079   2.111  13.694 -1.2386 -0.1736 -1.3030
 7216TIP3   OH243062   6.256   6.472   3.165 -0.0334  0.0954 -0.0911
 7216TIP3    H143063   6.310   6.394   3.153  1.6534  0.9909  1.1931
 7216TIP3    H243064   6.263   6.519   3.082 -0.7831 -0.9145 -0.7528
 7217TIP3   OH243065   5.090   4.631   2.805  0.9532 -0.4032  0.1961
 7217TIP3    H143066   5.169   4.667   2.766  1.8240 -0.9114  1.4183
 7217TIP3    H243067   5.018   4.666   2.752  2.0037 -0.1251 -1.0830
 7218TIP3   OH243068   3.629   3.190   2.093  0.3906  0.0377  0.0651
 7218TIP3    H143069   3.713   3.219   2.129 -0.6825 -0.6361  3.4223
 7218TIP3    H243070   3.566   3.257   2.120 -0.7083 -1.2298  0.7632
 7219TIP3   OH243071   4.247   0.843  11.621 -0.3450  0.4293 -0.6544
 7219TIP3    H143072   4.161   0.827  11.583 -0.4413  1.5460 -0.9306
 7219TIP3    H243073   4.307   0.839  11.546 -0.1325 -0.4901 -0.4413
 7220TIP3   OH243074   6.547   4.624  13.893 -0.5209  0.2001 -0.2759
 7220TIP3    H143075   6.610   4.558  13.922 -0.2627  0.7566  0.4682
 7220TIP3    H243076   6.555   4.624  13.798  1.6237  1.2154 -0.1445
 7221TIP3   OH243077   2.762   0.356  12.670 -0.0273 -0.0211  0.1094
 7221TIP3    H143078   2.763   0.439  12.622 -0.6097 -0.9534 -1.5975
 7221TIP3    H243079   2.704   0.299  12.620 -1.8131 -0.6672  2.7049
 7222TIP3   OH243080   5.514   4.130  14.339  0.2106  0.4355 -0.0052
 7222TIP3    H143081   5.606   4.124  14.315 -0.3200  0.5847 -2.3235
 7222TIP3    H243082   5.504   4.219  14.372  0.7523  0.7000 -0.5209
 7223TIP3   OH243083   4.108   6.141  10.666 -0.3854 -0.2475 -0.3351
 7223TIP3    H143084   4.189   6.191  10.679 -0.9897  0.4756  0.7746
 7223TIP3    H243085   4.138   6.054  10.639  0.8367 -0.4644  1.5702
 7224TIP3   OH243086   3.727   5.526  16.363 -0.1354  0.0680  0.3722
 7224TIP3    H143087   3.795   5.460  16.353 -0.6518 -0.6383  1.3183
 7224TIP3    H243088   3.674   5.519  16.284 -0.3674 -0.8833  0.5980
 7225TIP3   OH243089   1.084   3.256  13.625 -0.4220  0.4344  0.1422
 7225TIP3    H143090   1.025   3.230  13.554  0.4450 -1.5608  0.0844
 7225TIP3    H243091   1.165   3.206  13.609  0.3096  1.0332  1.7269
 7226TIP3   OH243092   2.972   0.499  10.753  1.2031  0.3206  0.2863
 7226TIP3    H143093   2.947   0.563  10.820  0.5305  1.2669 -0.8499
 7226TIP3    H243094   2.895   0.444  10.743  0.4512  1.6002 -1.3184
 7227TIP3   OH243095   5.394   2.364  12.872 -0.4996  0.1101  0.3248
 7227TIP3    H143096   5.473   2.416  12.891  0.1502 -0.9875  0.7511
 7227TIP3    H243097   5.363   2.335  12.958 -1.7362  1.0243  0.2066
 7228TIP3   OH243098   2.301   5.390  13.837 -0.2236 -0.2054 -0.4725
 7228TIP3    H143099   2.331   5.423  13.753  0.7898 -0.3802 -0.1892
 7228TIP3    H243100   2.273   5.300  13.819 -2.1409  0.4508 -1.0585
 7229TIP3   OH243101   3.624   1.729   0.951 -0.7740 -0.1243 -0.6267
 7229TIP3    H143102   3.634   1.649   0.900 -1.3932  0.0331 -0.9990
 7229TIP3    H243103   3.654   1.705   1.039 -0.2710 -0.5574 -0.9092
 7230TIP3   OH243104   6.213   0.849  12.168  0.3470 -0.5261 -0.3994
 7230TIP3    H143105   6.118   0.849  12.163  0.2780  0.8520  0.2435
 7230TIP3    H243106   6.241   0.778  12.111 -0.9348  1.3775 -3.6948
 7231TIP3   OH243107   3.897   2.020  14.183 -0.0562 -0.1130 -0.2837
 7231TIP3    H143108   3.913   1.958  14.254 -1.5739 -0.5996 -0.3198
 7231TIP3    H243109   3.958   2.092  14.199 -1.2289  0.4126  2.2709
 7232TIP3   OH243110   0.040   2.227  15.401  0.4381 -0.0669  0.2266
 7232TIP3    H143111   0.094   2.304  15.382  0.4769  0.0069  0.6265
 7232TIP3    H243112  -0.023   2.224  15.329  0.0283  0.7123  0.5391
 7233TIP3   OH243113   1.991   4.425   4.157  0.0587 -0.1183 -0.1371
 7233TIP3    H143114   2.049   4.420   4.232  0.7596 -0.1468 -0.6658
 7233TIP3    H243115   2.043   4.393   4.084 -1.3576 -2.3898 -0.2509
 7234TIP3   OH243116   2.737   2.763  15.505  0.2073 -0.1391 -0.3735
 7234TIP3    H143117   2.749   2.792  15.414 -2.5585  3.5314  0.1734
 7234TIP3    H243118   2.803   2.811  15.554  1.2931 -1.6436 -0.3137
 7235TIP3   OH243119   4.423   4.761  14.390 -0.0418 -0.1205 -0.2402
 7235TIP3    H143120   4.350   4.809  14.352  0.7600  0.3618 -1.2188
 7235TIP3    H243121   4.480   4.829  14.426  0.7260 -0.3740 -0.9514
 7236TIP3   OH243122   5.397   6.270   0.458 -0.2029 -0.6463  0.1023
 7236TIP3    H143123   5.458   6.199   0.474 -0.4565 -1.0652 -0.7113
 7236TIP3    H243124   5.411   6.331   0.530 -0.1781 -1.6498  0.9587
 7237TIP3   OH243125   4.617   5.166   4.177 -0.0438  0.0438 -0.4627
 7237TIP3    H143126   4.527   5.191   4.156 -0.3693  0.9869  1.8091
 7237TIP3    H243127   4.671   5.225   4.125 -0.7020 -0.3354 -1.6287
 7238TIP3   OH243128   2.585   1.703   0.174  0.1574  0.4915 -0.1597
 7238TIP3    H143129   2.583   1.772   0.107 -0.7192  2.3719  1.6928
 7238TIP3    H243130   2.620   1.746   0.252 -2.9734 -0.3108  1.8576
 7239TIP3   OH243131   2.428   1.110  16.958 -0.1043  0.2042 -0.2166
 7239TIP3    H143132   2.420   1.176  17.026  1.0553 -0.8472  1.0122
 7239TIP3    H243133   2.515   1.072  16.971 -1.4171 -2.8970  0.4249
 7240TIP3   OH243134   4.960   0.365   4.157 -0.2546  0.5424 -0.5003
 7240TIP3    H143135   5.039   0.370   4.211 -0.5595  1.1288 -0.0929
 7240TIP3    H243136   4.900   0.309   4.207  0.0994 -0.3628 -1.0732
 7241TIP3   OH243137   6.624   1.335  14.149 -0.0773  0.7863 -0.1690
 7241TIP3    H143138   6.624   1.336  14.245 -0.1301  0.5375 -0.1668
 7241TIP3    H243139   6.585   1.251  14.125  0.9955  0.3312 -0.4004
 7242TIP3   OH243140   3.825   2.601   2.835 -0.5389 -0.0704  0.1160
 7242TIP3    H143141   3.888   2.672   2.828 -1.3781  0.7850  1.0639
 7242TIP3    H243142   3.847   2.557   2.918 -2.7400  1.8381  1.8345
 7243TIP3   OH243143   4.219   5.073  11.008 -0.1400 -0.0271  0.0376
 7243TIP3    H143144   4.249   5.040  10.923  1.2818 -0.5878  0.7213
 7243TIP3    H243145   4.143   5.018  11.030  1.2440 -1.8733  0.4397
 7244TIP3   OH243146   4.708   0.685   0.362 -0.0430 -0.1797  0.5316
 7244TIP3    H143147   4.747   0.638   0.436  0.4728 -1.5122 -0.5395
 7244TIP3    H243148   4.614   0.685   0.380 -0.2120 -2.7411  0.0187
 7245TIP3   OH243149   5.774   5.268  12.007  0.0196 -0.1457  0.1282
 7245TIP3    H143150   5.707   5.207  11.976  0.2121  0.0959 -0.7952
 7245TIP3    H243151   5.833   5.214  12.059 -0.4926 -0.5035  0.3452
 7246TIP3   OH243152   2.871   0.343   6.155  0.1681  0.1983  0.2494
 7246TIP3    H143153   2.949   0.289   6.166  0.2766  0.0740 -0.9742
 7246TIP3    H243154   2.842   0.363   6.244  1.1570 -0.3832  0.7115
 7247TIP3   OH243155   4.657   3.005  15.763 -0.2016  0.7386  0.5812
 7247TIP3    H143156   4.596   3.077  15.778  0.5064  1.3617  0.5613
 7247TIP3    H243157   4.644   2.982  15.671  0.7544  2.0173  0.0816
 7248TIP3   OH243158   5.080   1.394   1.226 -0.1252  0.5994 -0.9863
 7248TIP3    H143159   5.125   1.330   1.171 -0.0018 -2.2993  2.1913
 7248TIP3    H243160   5.017   1.435   1.166  2.4255  0.4038 -4.1041
 7249TIP3   OH243161   6.228   5.461  11.581 -0.3611  0.0720  0.4245
 7249TIP3    H143162   6.259   5.476  11.671  0.6588  0.4127  0.0278
 7249TIP3    H243163   6.170   5.385  11.588  0.9516 -0.8914  1.1151
 7250TIP3   OH243164   4.210   4.351  13.721 -0.0426  0.5170 -0.3286
 7250TIP3    H143165   4.185   4.427  13.774  0.6404 -0.0305  0.8184
 7250TIP3    H243166   4.130   4.330  13.672 -0.1338  2.1809 -0.9609
 7251TIP3   OH243167   4.975   2.586   2.452 -0.5807  0.2212 -0.5206
 7251TIP3    H143168   4.956   2.501   2.412 -0.5063  0.3785 -0.8937
 7251TIP3    H243169   4.923   2.648   2.401  1.7330  0.8373 -2.3177
 7252TIP3   OH243170   0.913   4.757  12.581  0.5874 -0.5045  0.1475
 7252TIP3    H143171   0.890   4.705  12.505  0.0873 -0.7246  0.4482
 7252TIP3    H243172   1.000   4.792  12.561  0.2936 -0.2452 -0.6893
 7253TIP3   OH243173   4.807   3.863  16.606  0.2524 -0.0005 -0.5934
 7253TIP3    H143174   4.850   3.808  16.540 -0.9802 -1.9085  0.1098
 7253TIP3    H243175   4.725   3.890  16.564  0.4725  0.6230 -0.6274
 7254TIP3   OH243176   0.332   1.371   4.346 -0.3499  0.1405 -0.0269
 7254TIP3    H143177   0.317   1.277   4.349 -0.7736  0.0532 -2.6519
 7254TIP3    H243178   0.246   1.408   4.325  0.4140  0.7526 -2.3944
 7255TIP3   OH243179   3.217   3.298   1.242 -0.6934 -0.5367 -0.0636
 7255TIP3    H143180   3.256   3.361   1.181  0.2253 -0.2537  0.7923
 7255TIP3    H243181   3.256   3.319   1.327 -3.4967  0.4706  1.1099
 7256TIP3   OH243182   1.764   6.232  12.281  0.2953  0.0671  0.3914
 7256TIP3    H143183   1.688   6.183  12.250  0.7698  0.4327 -1.4708
 7256TIP3    H243184   1.834   6.166  12.288 -0.0690 -0.2026  1.7562
 7257TIP3   OH243185   5.711   5.831   4.349  0.0819 -0.5979  0.2901
 7257TIP3    H143186   5.699   5.811   4.442 -1.1979  1.4928  0.6401
 7257TIP3    H243187   5.624   5.820   4.311  0.4076 -0.5502 -0.4835
 7258TIP3   OH243188   2.805   5.782  15.263  0.0600 -0.2588 -0.2175
 7258TIP3    H143189   2.780   5.762  15.353  1.0109 -0.6072 -0.0158
 7258TIP3    H243190   2.728   5.761  15.211 -1.0888  1.4817  0.6752
 7259TIP3   OH243191   4.787   2.173   4.343 -0.3121  0.6594  0.1696
 7259TIP3    H143192   4.869   2.138   4.378 -1.3867 -1.7270  0.4833
 7259TIP3    H243193   4.718   2.127   4.392 -1.9028 -1.6372 -3.7176
 7260TIP3   OH243194   3.403   4.783  11.564 -0.3067 -0.2084 -0.1291
 7260TIP3    H143195   3.321   4.745  11.533 -1.4545  2.1663 -0.2512
 7260TIP3    H243196   3.422   4.738  11.646 -1.2308 -1.4097 -0.5490
 7261TIP3   OH243197   1.260   1.885   4.473 -0.2038  0.0369  0.1661
 7261TIP3    H143198   1.341   1.878   4.523 -0.1070  0.6427  0.1092
 7261TIP3    H243199   1.289   1.908   4.384 -0.3635 -1.2149 -0.2223
 7262TIP3   OH243200   2.036   3.438   3.400 -0.2528  0.0045  0.0374
 7262TIP3    H143201   2.066   3.358   3.444  0.4274  0.0203 -0.4031
 7262TIP3    H243202   2.024   3.501   3.472  1.3968  0.2072  0.1713
 7263TIP3   OH243203   0.826   6.548  11.626 -0.2057  0.0704  0.3235
 7263TIP3    H143204   0.749   6.604  11.625 -1.7707 -1.9362  1.0050
 7263TIP3    H243205   0.870   6.564  11.542 -1.0023  1.6862  0.1857
 7264TIP3   OH243206   0.518   1.464   1.023  0.1157 -0.6467 -0.2134
 7264TIP3    H143207   0.562   1.403   0.964  0.3523  0.3670 -1.1001
 7264TIP3    H243208   0.500   1.412   1.102  0.9900 -1.6455 -0.6559
 7265TIP3   OH243209   4.717   2.495  15.348  0.1350  0.5688  0.1667
 7265TIP3    H143210   4.796   2.550  15.353  0.7674 -0.2947 -0.1411
 7265TIP3    H243211   4.665   2.534  15.277  1.5378 -0.4088 -1.4790
 7266TIP3   OH243212   5.841   0.563   4.331  0.9660 -0.1663 -0.3002
 7266TIP3    H143213   5.870   0.596   4.246  1.8043 -1.4635 -0.5398
 7266TIP3    H243214   5.922   0.554   4.382  0.7512 -1.6160 -0.1797
 7267TIP3   OH243215   1.093   4.031  13.239 -0.4977 -0.3954 -0.1579
 7267TIP3    H143216   1.141   4.011  13.158 -1.8376 -0.3979 -0.9746
 7267TIP3    H243217   1.001   4.030  13.213 -0.8824  4.2024  0.2593
 7268TIP3   OH243218   2.641   3.700   5.218  0.2335 -0.0196 -0.3201
 7268TIP3    H143219   2.709   3.655   5.168  0.8873  1.3738 -0.7451
 7268TIP3    H243220   2.566   3.640   5.217  0.4794 -0.3695 -2.3408
 7269TIP3   OH243221   3.042   4.138  16.116 -0.2583 -0.0596 -0.0764
 7269TIP3    H143222   3.129   4.101  16.104 -0.3814 -0.0617 -0.9963
 7269TIP3    H243223   2.985   4.085  16.060 -0.7943  0.1767  0.2310
 7270TIP3   OH243224   2.162   3.352  12.672 -0.2383 -0.1471 -0.2585
 7270TIP3    H143225   2.190   3.300  12.597  0.0671 -0.1568 -0.1409
 7270TIP3    H243226   2.078   3.315  12.698 -0.5529  0.1310 -0.8604
 7271TIP3   OH243227   3.253   4.935  15.261 -0.3988  0.1973 -0.1502
 7271TIP3    H143228   3.348   4.921  15.268  0.4107  4.3538  0.3134
 7271TIP3    H243229   3.224   4.949  15.351 -1.3117 -0.2703 -0.3599
 7272TIP3   OH243230   4.757   3.954  12.371  0.4392 -0.9029 -0.0960
 7272TIP3    H143231   4.841   3.998  12.383  0.4674 -1.3488  1.6236
 7272TIP3    H243232   4.764   3.911  12.286  1.6830 -0.3616 -0.2777
 7273TIP3   OH243233   5.692   2.644  12.814  0.0068  0.7679 -0.3214
 7273TIP3    H143234   5.628   2.678  12.751  1.4404  2.6557 -0.8385
 7273TIP3    H243235   5.650   2.657  12.899 -0.1821  2.3769 -0.6157
 7274TIP3   OH243236   4.832   5.892   4.779  0.0170  0.6995  0.5523
 7274TIP3    H143237   4.746   5.871   4.815 -0.1270  1.1478  0.4695
 7274TIP3    H243238   4.893   5.874   4.851  0.3401 -3.3437 -0.4660
 7275TIP3   OH243239   2.890   2.880  14.865 -0.2588  0.0443 -0.2165
 7275TIP3    H143240   2.923   2.849  14.949  0.4476 -1.9287 -1.1629
 7275TIP3    H243241   2.945   2.836  14.800 -2.5256 -0.6677 -1.7839
 7276TIP3   OH243242   4.547   2.298   3.102  0.5234 -0.4753 -0.4886
 7276TIP3    H143243   4.577   2.359   3.034 -0.0361  0.7505  0.3264
 7276TIP3    H243244   4.627   2.259   3.137  1.0392  1.1405  0.1937
 7277TIP3   OH243245   1.010   2.801   0.413 -0.8323 -0.6369  0.0790
 7277TIP3    H143246   1.081   2.866   0.416  0.2513 -1.7996  1.2651
 7277TIP3    H243247   1.047   2.729   0.363 -0.6574 -1.7771  1.7554
 7278TIP3   OH243248   0.270   5.880   2.527 -0.0397 -0.3546 -0.0920
 7278TIP3    H143249   0.285   5.975   2.527  1.8863 -0.6125  0.4044
 7278TIP3    H243250   0.237   5.862   2.615  0.8635 -0.2767  0.2836
 7279TIP3   OH243251   1.499   5.885  12.757 -0.0073 -0.2139  0.0671
 7279TIP3    H143252   1.491   5.945  12.831  0.9644 -2.1329  1.8528
 7279TIP3    H243253   1.588   5.850  12.764 -0.1912 -1.1275 -1.4891
 7280TIP3   OH243254   4.270   0.725  17.057 -0.0271  0.8264  0.0451
 7280TIP3    H143255   4.346   0.766  17.098  0.6562  0.0465 -0.4017
 7280TIP3    H243256   4.256   0.775  16.977  1.7822 -0.6700 -1.3170
 7281TIP3   OH243257   2.120   6.377   3.505  0.4505  0.2722 -0.0246
 7281TIP3    H143258   2.213   6.366   3.482 -0.3115  0.6714 -3.7808
 7281TIP3    H243259   2.076   6.303   3.463 -1.0342  0.0719  1.7287
 7282TIP3   OH243260   1.969   3.100  12.121  0.4939 -0.2146 -0.0206
 7282TIP3    H143261   2.011   3.183  12.145  1.1506 -0.5952  0.1839
 7282TIP3    H243262   1.906   3.124  12.053 -0.3868  0.6712  1.0726
 7283TIP3   OH243263   2.127   0.679   1.683 -0.7986 -0.2202 -0.0649
 7283TIP3    H143264   2.121   0.584   1.681 -0.3566 -0.2399 -1.4416
 7283TIP3    H243265   2.040   0.710   1.659 -0.4852 -0.3092 -1.3695
 7284TIP3   OH243266   6.040   1.533  12.768  0.8868 -0.4675 -0.1327
 7284TIP3    H143267   6.102   1.604  12.782 -0.2801  0.5240  0.1956
 7284TIP3    H243268   5.954   1.574  12.775  0.1735 -1.4894 -2.0633
 7285TIP3   OH243269   0.236   2.999   3.545  0.5344  0.1426 -0.4368
 7285TIP3    H143270   0.159   2.942   3.542 -0.0711  0.7620  1.6534
 7285TIP3    H243271   0.202   3.085   3.521  0.0712  0.8112  2.2594
 7286TIP3   OH243272   1.781   5.935   2.916  0.5572 -0.5960 -0.2136
 7286TIP3    H143273   1.821   6.007   2.867 -1.5090 -0.2299 -1.4983
 7286TIP3    H243274   1.692   5.966   2.934 -0.5938 -3.0456 -1.3226
 7287TIP3   OH243275   1.922   3.852   4.249  0.2397  0.1501 -0.0215
 7287TIP3    H143276   1.864   3.852   4.325  0.5170 -1.0356  0.2062
 7287TIP3    H243277   1.970   3.934   4.256 -0.0429  0.2564  0.8471
 7288TIP3   OH243278   0.174   6.320   1.244  0.3474 -0.1447  0.2497
 7288TIP3    H143279   0.214   6.233   1.235  0.7778  0.0733 -0.0293
 7288TIP3    H243280   0.081   6.306   1.225  0.0638 -0.8550  2.0039
 7289TIP3   OH243281   5.086   0.735  13.692  0.3039 -0.4762 -0.0506
 7289TIP3    H143282   5.107   0.759  13.602 -0.4063 -1.2924 -0.4391
 7289TIP3    H243283   4.992   0.718  13.692  0.0714  0.5961  1.1014
 7290TIP3   OH243284   3.468   0.312  14.134  0.1723  0.1498  0.4454
 7290TIP3    H143285   3.383   0.350  14.113 -0.1641 -1.4197 -1.2671
 7290TIP3    H243286   3.530   0.384  14.124 -0.8072  1.0122  0.5114
 7291TIP3   OH243287   2.547   2.624  13.493  0.1508 -0.2132 -0.7953
 7291TIP3    H143288   2.527   2.550  13.551 -2.0561 -0.5344 -1.8393
 7291TIP3    H243289   2.611   2.676  13.541 -0.3045 -1.3555  1.1744
 7292TIP3   OH243290   4.050   5.643  12.972 -0.3918  0.3225  0.1461
 7292TIP3    H143291   4.140   5.657  12.943 -0.7062 -1.1088 -1.7055
 7292TIP3    H243292   4.024   5.726  13.012  2.2993  0.2175  2.4358
 7293TIP3   OH243293   0.573   6.529   2.759  0.5148  0.0383  0.1761
 7293TIP3    H143294   0.581   6.445   2.803  0.0236 -0.5615 -0.8602
 7293TIP3    H243295   0.650   6.534   2.702 -0.6659 -0.8488 -1.6029
 7294TIP3   OH243296   3.629   6.371  16.110  0.2661 -0.5136 -0.0131
 7294TIP3    H143297   3.653   6.393  16.020 -0.2700  0.2766  0.0310
 7294TIP3    H243298   3.612   6.455  16.152  1.8440 -0.7639  1.2224
 7295TIP3   OH243299   1.178   0.429  11.597  0.1342 -0.3786  0.2642
 7295TIP3    H143300   1.213   0.372  11.529 -0.2533 -0.1844 -0.1087
 7295TIP3    H243301   1.125   0.493  11.549  1.2445  0.8256  0.5884
 7296TIP3   OH243302   5.478   2.569  14.562  0.0061 -0.2001  0.3146
 7296TIP3    H143303   5.517   2.499  14.510 -1.2165 -1.2215  0.7138
 7296TIP3    H243304   5.501   2.649  14.516  0.1743 -0.9734 -0.9956
 7297TIP3   OH243305   5.058   2.508   0.685  0.6512  0.2568  0.2498
 7297TIP3    H143306   5.004   2.489   0.608 -0.7423  2.0619  0.7126
 7297TIP3    H243307   5.146   2.483   0.659  0.0898  0.0208 -1.6181
 7298TIP3   OH243308   4.180   3.251  16.458 -0.1160 -0.1919  0.2576
 7298TIP3    H143309   4.191   3.335  16.503  1.8993 -0.5638  0.5728
 7298TIP3    H243310   4.150   3.191  16.526 -1.0257  0.1374  0.1558
 7299TIP3   OH243311   4.795   4.258  10.763 -0.2729 -0.3252  0.5767
 7299TIP3    H143312   4.856   4.185  10.749 -0.9832 -0.6434 -1.1074
 7299TIP3    H243313   4.710   4.223  10.737 -0.9798  0.5061  1.6846
 7300TIP3   OH243314   2.232   5.588  16.080 -0.3752 -0.5736  0.4114
 7300TIP3    H143315   2.188   5.505  16.061 -1.5574 -0.2614  1.5920
 7300TIP3    H243316   2.168   5.654  16.055  0.4819 -0.0059 -0.3282
 7301TIP3   OH243317   6.227   3.415   3.073 -0.2086 -0.3265  0.1239
 7301TIP3    H143318   6.281   3.442   3.148 -0.6099  0.7317  0.0401
 7301TIP3    H243319   6.137   3.423   3.104 -0.4057  0.8510 -0.7026
 7302TIP3   OH243320   3.147   5.258  13.030  0.1573  0.2700 -0.0486
 7302TIP3    H143321   3.066   5.307  13.015  0.1243  0.4713  0.7170
 7302TIP3    H243322   3.212   5.300  12.975  0.1210  1.1695  0.5680
 7303TIP3   OH243323   6.082   0.726  16.867  0.4900 -0.3816 -0.1787
 7303TIP3    H143324   6.053   0.635  16.877  0.1956 -0.3328 -0.5827
 7303TIP3    H243325   6.082   0.761  16.956  3.2892 -1.5806  0.4140
 7304TIP3   OH243326   1.477   3.335   1.338  0.4769  0.1248 -0.4443
 7304TIP3    H143327   1.529   3.262   1.306  0.9643  1.0640 -1.8630
 7304TIP3    H243328   1.540   3.404   1.357  0.3083 -0.4938  3.1813
 7305TIP3   OH243329   3.288   1.526   1.038 -0.6291 -0.2808 -0.2610
 7305TIP3    H143330   3.317   1.509   0.948  0.5872 -0.5242  0.1607
 7305TIP3    H243331   3.263   1.440   1.071 -0.8417 -0.2287 -0.2863
 7306TIP3   OH243332   4.359   4.001   6.632  0.1532 -0.2613 -0.8727
 7306TIP3    H143333   4.334   4.092   6.648  0.7423  0.0632 -1.7652
 7306TIP3    H243334   4.278   3.959   6.603 -0.1705 -0.0862 -0.2456
 7307TIP3   OH243335   5.613   1.410   1.086 -0.8500 -0.8093 -0.2287
 7307TIP3    H143336   5.558   1.468   1.033  0.6589 -0.4569 -1.5216
 7307TIP3    H243337   5.698   1.456   1.090 -0.2011 -2.0149  0.3824
 7308TIP3   OH243338   2.017   2.741  16.426  0.4756  0.2673  0.2306
 7308TIP3    H143339   1.935   2.693  16.437  1.2563 -1.4335 -0.9850
 7308TIP3    H243340   1.999   2.828  16.463 -1.1761 -0.7449  1.9952
 7309TIP3   OH243341   3.638   0.358   3.640  0.2219 -0.2627 -0.6665
 7309TIP3    H143342   3.701   0.353   3.713 -0.5665  1.9633  0.2784
 7309TIP3    H243343   3.666   0.435   3.591 -1.0555  0.0567 -0.9186
 7310TIP3   OH243344   1.596   2.591  16.807 -0.2412 -0.3116 -0.3590
 7310TIP3    H143345   1.520   2.579  16.750  0.6476  1.4633 -2.0705
 7310TIP3    H243346   1.630   2.503  16.822 -0.8593 -0.8853 -2.1047
 7311TIP3   OH243347   4.399   2.104   5.186 -0.1544 -0.1213  0.0289
 7311TIP3    H143348   4.393   2.009   5.172  0.0881  0.1467 -2.3058
 7311TIP3    H243349   4.492   2.123   5.179 -0.1421  0.2417  1.0593
 7312TIP3   OH243350   2.279   3.678   0.865  0.0134  0.0436  0.0863
 7312TIP3    H143351   2.354   3.646   0.815 -0.1758  0.0462 -0.2060
 7312TIP3    H243352   2.203   3.654   0.811 -0.2339 -0.4953  0.6701
 7313TIP3   OH243353   3.382   6.367  14.903  0.2867 -0.0814  0.3741
 7313TIP3    H143354   3.426   6.283  14.917 -0.3488 -0.4367  0.2718
 7313TIP3    H243355   3.371   6.372  14.808 -0.8661 -0.5034  0.4739
 7314TIP3   OH243356   1.220   0.191   1.259 -0.2107 -0.2593  0.0738
 7314TIP3    H143357   1.248   0.282   1.258  0.2169 -0.3773  0.6026
 7314TIP3    H243358   1.267   0.152   1.333  1.5236 -1.5151 -1.5799
 7315TIP3   OH243359   1.159   4.970  14.740 -0.1879 -0.2991  1.0248
 7315TIP3    H143360   1.246   4.957  14.701 -0.7144  1.5722 -1.0043
 7315TIP3    H243361   1.175   5.032  14.812  0.2476 -0.4475  1.0615
 7316TIP3   OH243362   6.512   5.170   5.658 -0.1277  0.3049  0.2182
 7316TIP3    H143363   6.571   5.173   5.733 -1.1174  1.2966  0.9747
 7316TIP3    H243364   6.447   5.237   5.675 -0.3919  0.5441 -1.5283
 7317TIP3   OH243365   0.996   6.340   5.009 -0.5497 -0.1984  0.5668
 7317TIP3    H143366   0.913   6.361   5.052  0.7767  1.2892  2.6055
 7317TIP3    H243367   1.009   6.247   5.027 -2.2371 -0.7328 -0.7287
 7318TIP3   OH243368   6.363   3.661   5.546  0.0406  0.1427  0.2935
 7318TIP3    H143369   6.299   3.688   5.612 -0.5958 -0.6800  0.0353
 7318TIP3    H243370   6.310   3.620   5.477  0.8596 -0.7462  0.1759
 7319TIP3   OH243371   0.049   6.193  14.203 -0.7932 -0.0661 -0.1296
 7319TIP3    H143372   0.066   6.287  14.214 -3.4314  0.2921  1.7142
 7319TIP3    H243373  -0.046   6.186  14.198 -0.7996 -2.8185  1.6965
 7320TIP3   OH243374   5.387   2.437   0.027 -0.0904 -0.1479  0.1072
 7320TIP3    H143375   5.465   2.490   0.009  0.0286  1.0868  3.5136
 7320TIP3    H243376   5.316   2.482  -0.019  0.8623 -0.3814 -1.7172
 7321TIP3   OH243377   2.867   6.719  17.125  0.0712 -0.5683  0.4275
 7321TIP3    H143378   2.888   6.779  17.054  1.3187  0.2903  1.4825
 7321TIP3    H243379   2.920   6.641  17.108  1.1077  0.0145  0.9125
 7322TIP3   OH243380   4.634   1.487  13.305 -0.0398 -0.2685  0.4531
 7322TIP3    H143381   4.586   1.408  13.279  0.7313 -0.4372 -0.5119
 7322TIP3    H243382   4.708   1.491  13.244 -0.8793  2.0383 -0.5262
 7323TIP3   OH243383   1.735   1.550   2.330 -0.1267 -0.2098  0.0125
 7323TIP3    H143384   1.809   1.493   2.353  0.6414  0.5722 -0.4348
 7323TIP3    H243385   1.733   1.549   2.234 -0.7579 -0.2894  0.0218
 7324TIP3   OH243386   2.263   6.713  13.730 -0.1400 -0.4774 -0.5557
 7324TIP3    H143387   2.229   6.803  13.725  0.7058 -0.1733 -1.1211
 7324TIP3    H243388   2.303   6.698  13.644 -0.8053 -1.6214 -0.6791
 7325TIP3   OH243389   3.839   1.879  12.193 -0.3526 -0.0669 -0.2997
 7325TIP3    H143390   3.825   1.789  12.222  0.5816 -0.4524 -0.9754
 7325TIP3    H243391   3.839   1.873  12.097  3.5507 -0.0820 -0.4483
 7326TIP3   OH243392   0.621   2.656   3.682 -0.0816  0.2759 -0.0018
 7326TIP3    H143393   0.584   2.728   3.733 -0.7206 -1.2958  1.9056
 7326TIP3    H243394   0.623   2.582   3.743  1.6930 -1.0174 -1.5026
 7327TIP3   OH243395   6.280   1.468   0.332  0.1244 -0.5684  0.3855
 7327TIP3    H143396   6.194   1.425   0.327  0.8035 -1.9403  0.2396
 7327TIP3    H243397   6.309   1.475   0.241 -0.1350  0.5599  0.3757
 7328TIP3   OH243398   3.001   3.120  10.702  0.7910  0.2748  0.3781
 7328TIP3    H143399   2.958   3.044  10.741  1.0536  0.0113  0.1534
 7328TIP3    H243400   3.002   3.185  10.773  1.0002 -0.0998  0.7295
 7329TIP3   OH243401   6.115   2.080  14.338  0.2625 -0.4268  0.3545
 7329TIP3    H143402   6.110   2.017  14.267 -0.8039 -0.0144  0.0370
 7329TIP3    H243403   6.198   2.061  14.382 -0.0593 -2.0859  0.3162
 7330TIP3   OH243404   1.736   4.370   1.345  0.2674 -0.5291  0.1433
 7330TIP3    H143405   1.702   4.296   1.296  1.4504 -1.7910  1.1425
 7330TIP3    H243406   1.752   4.437   1.279 -1.4823 -0.8741 -0.6905
 7331TIP3   OH243407   3.824   4.541  16.612  0.2455  0.0377 -0.5456
 7331TIP3    H143408   3.854   4.577  16.696  0.7244 -0.7182 -0.3798
 7331TIP3    H243409   3.834   4.613  16.550  1.3621  0.1476 -0.2641
 7332TIP3   OH243410   5.291   1.410  11.663 -0.4486 -0.3059  0.5725
 7332TIP3    H143411   5.204   1.385  11.632 -0.1203 -2.3679  1.1816
 7332TIP3    H243412   5.344   1.414  11.584 -1.1687  1.5929  0.1122
 7333TIP3   OH243413   0.636   4.863   6.253  0.3783  0.1203 -0.0580
 7333TIP3    H143414   0.712   4.814   6.221 -0.0188 -0.2783 -0.4079
 7333TIP3    H243415   0.654   4.954   6.229  0.3263 -0.1019 -0.9504
 7334TIP3   OH243416   5.458   6.215  10.461  0.1132  0.3484 -0.4898
 7334TIP3    H143417   5.374   6.173  10.441  0.1536 -0.5137  1.0136
 7334TIP3    H243418   5.437   6.308  10.467 -0.3343  0.3793 -2.0460
 7335TIP3   OH243419   0.319   5.390   5.136  0.8280 -0.6335 -0.1642
 7335TIP3    H143420   0.393   5.420   5.188  1.2700  1.0428 -1.6464
 7335TIP3    H243421   0.264   5.467   5.125 -1.1144 -1.8021  0.7726
 7336TIP3   OH243422   6.451   3.502   1.843 -0.1053 -0.0313 -0.2424
 7336TIP3    H143423   6.443   3.444   1.919  0.3193  1.1983  0.7679
 7336TIP3    H243424   6.545   3.514   1.832 -0.1678  2.3623  1.1092
 7337TIP3   OH243425   5.953   2.983  12.168  0.0824  0.3121 -0.7025
 7337TIP3    H143426   5.923   2.894  12.149 -0.5751  0.8734 -2.4494
 7337TIP3    H243427   6.040   2.988  12.129  1.5672 -0.5139  2.1938
 7338TIP3   OH243428   2.396   0.337   5.917 -0.3814 -0.1973 -0.0632
 7338TIP3    H143429   2.444   0.346   5.835  0.5931  1.4024  0.6284
 7338TIP3    H243430   2.316   0.388   5.903 -0.7783 -0.8879 -0.3902
 7339TIP3   OH243431   3.401   3.272   3.020 -0.0061  0.1286  0.1330
 7339TIP3    H143432   3.432   3.245   2.934  2.9073  1.1606  0.7471
 7339TIP3    H243433   3.385   3.190   3.067 -0.0560 -0.4373 -0.8384
 7340TIP3   OH243434   2.035   2.300   3.207 -0.4703  0.2325  0.3800
 7340TIP3    H143435   1.953   2.329   3.247 -0.2471  0.2363  0.8338
 7340TIP3    H243436   2.037   2.345   3.122 -1.2339 -0.2489  0.0962
 7341TIP3   OH243437   6.641   6.245  16.618 -0.0491  0.1832 -0.0713
 7341TIP3    H143438   6.696   6.169  16.598  0.6311  0.5950  0.1835
 7341TIP3    H243439   6.655   6.261  16.711 -0.0697  0.7078 -0.1541
 7342TIP3   OH243440   5.449   5.462   5.305 -0.0070 -0.1691 -0.2097
 7342TIP3    H143441   5.492   5.433   5.386 -0.0819  1.8195  0.6241
 7342TIP3    H243442   5.488   5.548   5.288 -1.0674  0.0845 -1.4693
 7343TIP3   OH243443   4.395   5.935  11.532  0.4230 -0.2506 -0.2272
 7343TIP3    H143444   4.360   5.846  11.536  0.2563 -0.2518 -1.4431
 7343TIP3    H243445   4.481   5.926  11.493 -0.3691  0.2957 -2.2268
 7344TIP3   OH243446   1.280   5.218  11.185 -0.1301 -0.4823 -0.0690
 7344TIP3    H143447   1.300   5.161  11.258 -0.3709 -2.0741 -1.1951
 7344TIP3    H243448   1.184   5.217  11.179 -0.1295 -0.0785 -0.1750
 7345TIP3   OH243449   3.587   0.555   3.942 -0.4547  0.2414  0.2908
 7345TIP3    H143450   3.680   0.564   3.964 -0.8856  0.4484  2.1542
 7345TIP3    H243451   3.556   0.484   3.997 -1.3011 -0.1673 -0.6975
 7346TIP3   OH243452   2.461   4.481  11.956  0.4726 -0.6878 -0.2468
 7346TIP3    H143453   2.547   4.500  11.918  0.1617  0.8130 -0.2396
 7346TIP3    H243454   2.474   4.487  12.051 -0.0340  1.6147 -0.2583
 7347TIP3   OH243455   6.438   1.596   7.017  0.0416  0.3092  0.4039
 7347TIP3    H143456   6.453   1.610   6.924 -2.3430 -1.1880 -0.2851
 7347TIP3    H243457   6.391   1.674   7.046 -0.4197  0.1763  0.0224
 7348TIP3   OH243458   1.974   2.782   0.570 -0.2684  0.0821 -0.5966
 7348TIP3    H143459   1.999   2.873   0.553 -1.7569  0.2880 -1.9276
 7348TIP3    H243460   1.980   2.740   0.484  0.2011 -1.0256 -0.0277
 7349TIP3   OH243461   4.720   0.793   2.756 -0.3815 -0.1127 -0.3323
 7349TIP3    H143462   4.644   0.754   2.712 -0.9558  1.0721 -0.4123
 7349TIP3    H243463   4.737   0.873   2.707  0.6355 -0.1268 -0.0129
 7350TIP3   OH243464   5.827   5.466  10.907  0.4259  0.0631  0.3292
 7350TIP3    H143465   5.762   5.442  10.840 -0.4717 -0.6085  1.4146
 7350TIP3    H243466   5.851   5.556  10.885  0.6458 -0.3492 -1.2824
 7351TIP3   OH243467   1.181   5.598   4.322 -0.0206 -0.1439  0.4236
 7351TIP3    H143468   1.103   5.642   4.356  0.0938 -0.9022  1.7414
 7351TIP3    H243469   1.154   5.565   4.236 -0.6589  0.9236  0.1945
 7352TIP3   OH243470   0.527   2.017  16.424 -0.6217 -0.0557 -0.0237
 7352TIP3    H143471   0.471   2.055  16.355 -2.6295 -1.5575  0.6806
 7352TIP3    H243472   0.500   2.062  16.504  0.1829  0.1684  0.1271
 7353TIP3   OH243473   0.348   4.350   5.417  0.5176  0.1793 -0.0194
 7353TIP3    H143474   0.357   4.445   5.417 -3.3071  0.6942  0.8288
 7353TIP3    H243475   0.405   4.321   5.489  0.3924  2.0314  0.8836
 7354TIP3   OH243476   3.958   2.910  13.944 -0.0496 -0.1183  0.1329
 7354TIP3    H143477   3.913   2.941  13.865 -3.4070 -1.9357  1.0975
 7354TIP3    H243478   4.048   2.894  13.916 -0.0606  2.9592 -2.2350
 7355TIP3   OH243479   5.278   0.148  16.477  0.1707  0.6305 -0.2300
 7355TIP3    H143480   5.315   0.062  16.455  0.5873  0.8088 -0.2236
 7355TIP3    H243481   5.297   0.203  16.401 -1.1075  0.4230 -0.7386
 7356TIP3   OH243482   4.667   6.244   3.436  0.5818  0.1111 -0.2761
 7356TIP3    H143483   4.685   6.278   3.349  0.9579 -0.1418 -0.3000
 7356TIP3    H243484   4.582   6.201   3.428  1.1174 -0.8738 -0.7968
 7357TIP3   OH243485   2.343   3.348  16.322 -0.2508  0.4790 -0.4854
 7357TIP3    H143486   2.348   3.323  16.414 -0.7463  0.6823 -0.4036
 7357TIP3    H243487   2.265   3.403  16.316 -2.2621 -2.3080 -1.6774
 7358TIP3   OH243488   3.284   5.474  16.768  0.1399  0.3267 -0.4979
 7358TIP3    H143489   3.226   5.478  16.844  0.5555 -0.6586 -0.1131
 7358TIP3    H243490   3.226   5.457  16.694  0.0778 -3.7435  0.2417
 7359TIP3   OH243491   3.744   3.808  16.243 -0.4009 -0.1843 -0.0142
 7359TIP3    H143492   3.752   3.903  16.259  1.5852 -0.2890 -0.1776
 7359TIP3    H243493   3.650   3.792  16.248 -0.7082  1.5682  1.3482
 7360TIP3   OH243494   5.493   4.403  16.628  0.5630 -0.2374  0.2221
 7360TIP3    H143495   5.510   4.352  16.707  0.3592 -0.7418 -0.0586
 7360TIP3    H243496   5.579   4.438  16.604  0.9707 -1.6192 -0.3886
 7361TIP3   OH243497   1.244   5.563   0.980  0.7749 -0.3554  0.2529
 7361TIP3    H143498   1.211   5.592   0.896  2.8613  0.1854 -0.4543
 7361TIP3    H243499   1.173   5.512   1.018 -1.1265  1.4206 -0.7230
 7362TIP3   OH243500   1.232   6.129   3.051  0.7896  0.2982 -0.0883
 7362TIP3    H143501   1.191   6.060   3.102  0.2235 -0.4176 -1.4599
 7362TIP3    H243502   1.213   6.210   3.100  1.9558 -0.5225  1.8342
 7363TIP3   OH243503   2.647   5.834  16.775  0.1683 -0.9538  0.6246
 7363TIP3    H143504   2.578   5.881  16.822 -0.5948 -2.3437  0.9492
 7363TIP3    H243505   2.697   5.790  16.845  0.0475 -1.6891  0.2569
 7364TIP3   OH243506   6.275   6.621  14.512  0.0043 -0.2544 -0.2471
 7364TIP3    H143507   6.298   6.549  14.570  0.8349  0.4654  0.3422
 7364TIP3    H243508   6.288   6.700  14.565 -2.4691  0.3004 -0.3354
 7365TIP3   OH243509   4.089   5.239   5.180 -0.3433 -0.0483  0.0752
 7365TIP3    H143510   4.032   5.186   5.124 -0.9404 -1.9431  2.3158
 7365TIP3    H243511   4.034   5.261   5.255  0.0658  3.4074 -0.5092
 7366TIP3   OH243512   5.627   3.674   2.696  0.0062  0.0002 -0.0971
 7366TIP3    H143513   5.609   3.678   2.602  0.5691 -1.3864 -0.2857
 7366TIP3    H243514   5.722   3.685   2.704  0.0019 -0.1858  0.2736
 7367TIP3   OH243515   5.938   5.159  15.549  0.2113  0.3123 -0.6091
 7367TIP3    H143516   5.864   5.159  15.488 -0.6045  0.9468  0.3454
 7367TIP3    H243517   5.990   5.235  15.523 -0.6644  1.1728  0.0737
 7368TIP3   OH243518   0.468   1.196   2.298  0.2807 -0.5305  0.1597
 7368TIP3    H143519   0.376   1.209   2.322  0.6330  0.2039  1.1488
 7368TIP3    H243520   0.508   1.282   2.311  0.6090 -0.1451 -2.6872
 7369TIP3   OH243521   0.569   0.633  11.860  0.1257 -0.5747  0.2412
 7369TIP3    H143522   0.515   0.554  11.872 -0.6819 -0.1821 -0.5871
 7369TIP3    H243523   0.563   0.651  11.766  0.0818  0.6158  0.4520
 7370TIP3   OH243524   4.222   0.624  16.359  0.1071  0.4889  0.6316
 7370TIP3    H143525   4.201   0.706  16.403 -1.3720 -0.0119  0.9272
 7370TIP3    H243526   4.215   0.644  16.265  2.6449  1.3973  0.5617
 7371TIP3   OH243527   1.864   3.515  10.820  0.5605 -0.0558  0.0457
 7371TIP3    H143528   1.800   3.499  10.750  0.3816  1.3859 -0.1655
 7371TIP3    H243529   1.942   3.469  10.791  0.0975 -0.5485 -0.4636
 7372TIP3   OH243530   1.877   4.550   5.269 -0.6043  0.2353  0.5514
 7372TIP3    H143531   1.794   4.564   5.223 -0.4705 -0.4014  0.0937
 7372TIP3    H243532   1.917   4.476   5.222  0.7203  1.2319  0.0660
 7373TIP3   OH243533   4.475   3.197  16.457 -0.1584  0.3531 -0.3704
 7373TIP3    H143534   4.381   3.198  16.472 -0.0602  1.0031  0.2477
 7373TIP3    H243535   4.514   3.195  16.544  0.4023  0.3437 -0.6140
 7374TIP3   OH243536   6.658   1.335  12.594 -0.0880  0.0730  0.2141
 7374TIP3    H143537   6.752   1.340  12.610 -0.0521 -1.2035  0.4805
 7374TIP3    H243538   6.648   1.360  12.502  0.3241  1.6767  0.5626
 7375TIP3   OH243539   4.758   0.617  12.399 -0.1293  0.9416 -0.1881
 7375TIP3    H143540   4.809   0.638  12.477 -0.4216  0.9800 -0.0063
 7375TIP3    H243541   4.823   0.605  12.330  0.4626 -2.5491  0.7650
 7376TIP3   OH243542   1.242   2.274  13.795  0.2476  0.3371 -0.7643
 7376TIP3    H143543   1.273   2.323  13.718  0.6474  0.0625 -0.7847
 7376TIP3    H243544   1.287   2.315  13.869 -2.2396  2.4552 -0.2849
 7377TIP3   OH243545   0.817   4.611  15.053  0.7873 -0.6845 -0.6192
 7377TIP3    H143546   0.834   4.652  15.138 -0.2785 -1.3316 -0.0738
 7377TIP3    H243547   0.788   4.683  14.997 -1.0349 -0.6334  0.3154
 7378TIP3   OH243548   4.438   0.175  13.929 -0.3099  0.2425 -1.0543
 7378TIP3    H143549   4.491   0.247  13.964  0.1869 -0.3425 -0.5685
 7378TIP3    H243550   4.501   0.106  13.909 -0.9619 -1.0462  0.9398
 7379TIP3   OH243551   1.458   2.839  15.606 -0.0606 -0.3434 -0.4004
 7379TIP3    H143552   1.398   2.812  15.536 -1.0078  0.0175  0.2428
 7379TIP3    H243553   1.538   2.790  15.589  0.1542  0.6144 -2.3971
 7380TIP3   OH243554   1.362   2.083   5.546  0.0457 -0.2666  0.0203
 7380TIP3    H143555   1.393   2.032   5.471  2.2291  0.2021  0.5329
 7380TIP3    H243556   1.310   2.022   5.597  0.1467 -1.1356 -0.8893
 7381TIP3   OH243557   4.196   5.468  15.869  0.4114  0.7158  0.2805
 7381TIP3    H143558   4.107   5.453  15.839  0.1266 -0.6399  1.6973
 7381TIP3    H243559   4.250   5.410  15.815  0.4687  1.5750 -0.6130
 7382TIP3   OH243560   1.633   2.448  16.075  0.7431  0.1557 -0.3064
 7382TIP3    H143561   1.648   2.477  15.985  1.5364  0.6598 -0.0118
 7382TIP3    H243562   1.583   2.519  16.115  2.0983  0.8320  0.2162
 7383TIP3   OH243563   0.392   4.712  13.645 -0.5359  0.5013  0.1437
 7383TIP3    H143564   0.351   4.630  13.674 -0.9299  0.2623 -1.0484
 7383TIP3    H243565   0.407   4.699  13.551  2.8213  0.3567  0.6012
 7384TIP3   OH243566   2.446   0.312   5.067  0.2469  0.9143  0.3342
 7384TIP3    H143567   2.463   0.292   4.975 -1.7409 -0.3348  0.1745
 7384TIP3    H243568   2.404   0.398   5.066 -1.1689  0.2365 -0.1058
 7385TIP3   OH243569   1.255   6.637  10.993  0.0015  0.3102 -0.0185
 7385TIP3    H143570   1.351   6.636  10.984  0.1128  2.6177  0.2528
 7385TIP3    H243571   1.238   6.577  11.066  1.2322 -0.1368 -0.0651
 7386TIP3   OH243572   4.187   3.354   4.486 -0.1205 -0.0252  0.4198
 7386TIP3    H143573   4.121   3.292   4.517  0.3096 -1.1356 -0.7917
 7386TIP3    H243574   4.261   3.299   4.460  0.5163  1.0492 -0.0958
 7387TIP3   OH243575   2.917   5.836  11.285  0.2618 -0.4118 -0.1462
 7387TIP3    H143576   2.914   5.741  11.294 -0.3003 -0.3798  0.0784
 7387TIP3    H243577   2.960   5.866  11.366  0.7922 -0.4968 -0.3962
 7388TIP3   OH243578   4.249   3.168  13.307 -0.0390  0.2538 -0.2407
 7388TIP3    H143579   4.296   3.146  13.387  0.4753  1.1148 -0.2964
 7388TIP3    H243580   4.243   3.085  13.259  0.1215 -0.1564  0.4362
 7389TIP3   OH243581   4.537   0.418   0.358 -0.4235 -0.0451 -0.2881
 7389TIP3    H143582   4.493   0.502   0.369 -0.1236  0.1607 -0.6205
 7389TIP3    H243583   4.500   0.383   0.276  1.9982  1.4104 -2.1349
 7390TIP3   OH243584   6.767   3.091  11.350  0.4160 -0.4738 -0.4117
 7390TIP3    H143585   6.808   3.030  11.289  1.5190  0.3908 -0.5739
 7390TIP3    H243586   6.693   3.127  11.301 -1.2373 -2.7546  0.2180
 7391TIP3   OH243587   5.532   6.167  11.852  0.3536  0.0015 -0.4552
 7391TIP3    H143588   5.585   6.174  11.932  1.8751  0.5092 -1.4734
 7391TIP3    H243589   5.540   6.252  11.810 -2.2668  0.5081 -0.1006
 7392TIP3   OH243590   1.378   4.571   2.314  0.4226 -0.1205 -0.2242
 7392TIP3    H143591   1.474   4.575   2.318  0.5122  0.3573 -1.9095
 7392TIP3    H243592   1.349   4.621   2.390  1.5448  1.1087 -0.5490
 7393TIP3   OH243593   3.973   4.110  14.318  0.2957 -0.5101 -0.0738
 7393TIP3    H143594   4.024   4.181  14.280 -1.3194  0.1766 -1.0862
 7393TIP3    H243595   3.940   4.144  14.401 -1.3600  0.4149 -1.0401
 7394TIP3   OH243596   0.841   1.823   2.933 -0.2439 -0.7250  0.4378
 7394TIP3    H143597   0.762   1.770   2.947 -1.3837  1.1122  1.3899
 7394TIP3    H243598   0.823   1.905   2.979  0.0988  1.7961 -3.5073
 7395TIP3   OH243599   4.178   4.128   0.177 -0.1306  0.1851  0.1463
 7395TIP3    H143600   4.184   4.075   0.098 -0.4713  0.8606 -0.3443
 7395TIP3    H243601   4.270   4.146   0.200 -0.0067 -0.7789  0.4464
 7396TIP3   OH243602   3.475   3.529  16.929  0.2007  0.0541 -0.2271
 7396TIP3    H143603   3.459   3.445  16.885  1.3931 -0.8175  0.9358
 7396TIP3    H243604   3.510   3.585  16.860  1.2042 -1.0186 -0.6340
 7397TIP3   OH243605   3.016   2.191   3.526 -0.5222 -0.4624 -0.0675
 7397TIP3    H143606   3.087   2.221   3.583 -0.4629 -0.3675 -0.1880
 7397TIP3    H243607   2.999   2.101   3.552  0.4552 -0.8854 -0.8233
 7398TIP3   OH243608   1.620   1.017  15.763  0.5317 -0.2934 -0.2670
 7398TIP3    H143609   1.670   1.079  15.817  0.4402 -1.6131  1.4215
 7398TIP3    H243610   1.563   1.072  15.710 -0.9848  1.1141  2.5651
 7399TIP3   OH243611   3.219   2.414   1.219 -0.8726 -0.3212 -0.5212
 7399TIP3    H143612   3.204   2.320   1.207 -0.8701 -0.4646  0.4943
 7399TIP3    H243613   3.303   2.431   1.176 -0.7254 -0.8430 -0.4491
 7400TIP3   OH243614   3.296   1.137   5.462 -0.6140  0.1460 -0.4022
 7400TIP3    H143615   3.213   1.136   5.511  0.4434 -0.0990  1.5097
 7400TIP3    H243616   3.286   1.209   5.400 -2.1083  0.3723  0.0458
 7401TIP3   OH243617   3.143   4.512  12.355 -0.4298  0.0723 -0.4735
 7401TIP3    H143618   3.183   4.589  12.395 -1.0038  0.0955  0.0632
 7401TIP3    H243619   3.132   4.450  12.427 -2.3288  0.4613 -0.3876
 7402TIP3   OH243620   3.940   4.337  14.877 -0.6818  0.0242 -0.2301
 7402TIP3    H143621   3.967   4.399  14.809 -2.3517 -0.3044 -1.2477
 7402TIP3    H243622   4.001   4.352  14.949  0.6688  0.9222 -1.5071
 7403TIP3   OH243623   0.998   0.991  11.892  0.3140  0.1459 -0.5686
 7403TIP3    H143624   1.011   1.081  11.920  0.0228 -0.1086  0.4404
 7403TIP3    H243625   0.977   0.944  11.973  1.6096 -1.0483 -0.8775
 7404TIP3   OH243626   0.809   3.281   5.379  0.2748 -0.4999  0.4431
 7404TIP3    H143627   0.814   3.247   5.469 -0.6416 -0.9663  0.3261
 7404TIP3    H243628   0.844   3.370   5.386 -0.4151 -0.2871  1.3954
 7405TIP3   OH243629   0.875   4.668   0.869  0.9166 -0.2262 -0.1069
 7405TIP3    H143630   0.798   4.718   0.843  0.3613 -0.5961  0.7762
 7405TIP3    H243631   0.845   4.615   0.943  2.3530  0.5835  1.1050
 7406TIP3   OH243632   1.771   2.063  15.684  0.1671 -0.2149  0.0198
 7406TIP3    H143633   1.839   2.130  15.670  0.5372 -0.1956  1.7857
 7406TIP3    H243634   1.719   2.096  15.757 -0.1163 -1.4977  0.4198
 7407TIP3   OH243635   5.217   0.655   4.472 -0.2528  0.4686 -0.8581
 7407TIP3    H143636   5.269   0.595   4.526  1.2627 -0.5510 -3.2889
 7407TIP3    H243637   5.168   0.707   4.536  1.7088 -0.3455  1.4984
 7408TIP3   OH243638   1.729   0.369   5.309 -0.0106 -0.1646  0.2140
 7408TIP3    H143639   1.726   0.431   5.237 -1.6964 -0.2668  0.1664
 7408TIP3    H243640   1.814   0.384   5.350  0.2238  1.1384 -0.6927
 7409TIP3   OH243641   0.990   4.338   4.284 -0.4802  0.5716  0.1156
 7409TIP3    H143642   1.016   4.322   4.193 -2.2035 -2.6669  0.0405
 7409TIP3    H243643   0.944   4.422   4.281  1.5457  1.7093 -1.4840
 7410TIP3   OH243644   4.399   2.944   4.172 -0.1316 -0.2228  0.0748
 7410TIP3    H143645   4.383   2.929   4.079 -0.1210 -1.7469  0.2891
 7410TIP3    H243646   4.481   2.995   4.175  0.4745 -1.1179 -0.7317
 7411TIP3   OH243647   4.267   5.798   5.321 -0.3727  0.5700  0.4548
 7411TIP3    H143648   4.191   5.772   5.373  0.0770  0.7318  1.1944
 7411TIP3    H243649   4.326   5.841   5.383  0.8425 -0.5787  0.1296
 7412TIP3   OH243650   1.364   6.494  14.052 -0.0725  0.0059  0.1747
 7412TIP3    H143651   1.284   6.530  14.013  0.8081 -1.1068 -2.9316
 7412TIP3    H243652   1.340   6.405  14.078 -0.0747 -0.0260  0.0634
 7413TIP3   OH243653   0.300   0.188  14.717 -0.2473 -0.2145 -0.3054
 7413TIP3    H143654   0.214   0.146  14.716  0.3171 -1.6684  2.3281
 7413TIP3    H243655   0.336   0.171  14.629 -1.6383 -1.7941 -0.6202
 7414TIP3   OH243656   2.925   6.764  14.487  0.0008 -0.0711 -0.0644
 7414TIP3    H143657   2.867   6.714  14.431  0.1168 -0.7754  0.4365
 7414TIP3    H243658   3.013   6.734  14.464  0.0710 -0.1089  0.2541
 7415TIP3   OH243659   6.142   4.673  12.424  0.6841 -0.0288  0.2595
 7415TIP3    H143660   6.061   4.708  12.386  1.1735 -0.9404 -1.7772
 7415TIP3    H243661   6.130   4.578  12.421  1.0206 -0.1427  1.8839
 7416TIP3   OH243662   4.866   0.605   1.926 -0.3769  0.5683 -0.5691
 7416TIP3    H143663   4.824   0.677   1.974 -0.5743  1.0728 -1.4808
 7416TIP3    H243664   4.814   0.595   1.847  1.4176  1.4856 -1.9343
 7417TIP3   OH243665   0.034   6.743  14.387  0.0614 -0.2860  0.0080
 7417TIP3    H143666   0.086   6.706  14.458  0.1817 -0.7951 -0.3395
 7417TIP3    H243667  -0.055   6.749  14.424  0.5966  1.9243  1.0886
 7418TIP3   OH243668   4.436   4.754  12.299  0.2001 -0.1882 -0.0463
 7418TIP3    H143669   4.383   4.830  12.326 -0.2335 -0.7294  0.6487
 7418TIP3    H243670   4.402   4.731  12.213 -1.9554 -1.6138  1.0946
 7419TIP3   OH243671   1.884   6.078  10.507 -0.1943 -0.3887  0.4813
 7419TIP3    H143672   1.825   6.129  10.562 -1.5355 -2.1948  0.8110
 7419TIP3    H243673   1.826   6.025  10.453  1.1013  0.5654 -1.9927
 7420TIP3   OH243674   6.171   2.191   1.604 -0.7460  0.4661  0.6202
 7420TIP3    H143675   6.218   2.268   1.633  0.5303  0.8550 -2.1438
 7420TIP3    H243676   6.102   2.225   1.547  0.3227 -0.3757 -1.2676
 7421TIP3   OH243677   6.646   6.374   4.768 -0.1512  0.0218  0.3229
 7421TIP3    H143678   6.655   6.407   4.678  0.6695  1.1166  0.7866
 7421TIP3    H243679   6.553   6.382   4.787 -0.6361 -1.7518 -0.9691
 7422TIP3   OH243680   3.286   2.102  12.695 -0.2073  0.1391  0.2284
 7422TIP3    H143681   3.282   2.069  12.605 -0.4610  0.6393  0.0550
 7422TIP3    H243682   3.195   2.117  12.719 -0.0700  1.2803  0.0893
 7423TIP3   OH243683   6.467   3.739   1.273  0.4368 -0.6617  0.3380
 7423TIP3    H143684   6.438   3.829   1.286 -0.5386 -0.9007 -0.1104
 7423TIP3    H243685   6.498   3.711   1.360  0.7474  0.0894  0.4784
 7424TIP3   OH243686   3.280   2.337  14.748 -0.0393 -0.1629 -0.1456
 7424TIP3    H143687   3.239   2.365  14.667 -1.2670 -0.9379  0.1683
 7424TIP3    H243688   3.218   2.274  14.785  1.3425 -1.1937  0.4927
 7425TIP3   OH243689   6.365   2.511  13.278  0.5884 -0.6238  0.3094
 7425TIP3    H143690   6.342   2.512  13.185  1.6252  0.6788  0.0425
 7425TIP3    H243691   6.284   2.537  13.323  0.6608  0.9775 -0.4140
 7426TIP3   OH243692   1.469   4.910  16.302  0.3875  0.5668 -0.0214
 7426TIP3    H143693   1.498   4.836  16.354  2.9054  1.1098 -0.5124
 7426TIP3    H243694   1.533   4.979  16.321  0.3378  1.3583 -2.4338
 7427TIP3   OH243695   2.768   0.391  16.435 -0.2422 -0.1066 -0.6812
 7427TIP3    H143696   2.821   0.426  16.507  0.1923 -0.7187 -0.6941
 7427TIP3    H243697   2.682   0.430  16.448 -0.1443 -0.1358  0.1291
 7428TIP3   OH243698   5.252   3.016   4.921  0.0331 -0.1562  0.0217
 7428TIP3    H143699   5.286   2.987   5.006  1.8204 -2.8813 -1.4853
 7428TIP3    H243700   5.310   3.087   4.894  1.3950 -1.3216 -0.2147
 7429TIP3   OH243701   2.290   2.692  16.500  0.0248  0.1187  0.4034
 7429TIP3    H143702   2.205   2.685  16.458  0.6095 -3.0297 -0.5107
 7429TIP3    H243703   2.273   2.669  16.592 -0.3929  1.7248  0.7676
 7430TIP3   OH243704   3.851   1.037   4.690 -0.4693 -0.4360 -0.1092
 7430TIP3    H143705   3.806   0.988   4.758  0.4566 -0.0065  0.8317
 7430TIP3    H243706   3.792   1.110   4.670 -0.9757 -0.8493 -0.1447
 7431TIP3   OH243707   0.968   2.644  15.039  0.1849  0.0762 -0.6060
 7431TIP3    H143708   0.925   2.713  15.090  1.1414  0.2901 -0.0538
 7431TIP3    H243709   0.922   2.643  14.955  0.2979  1.5451 -0.7058
 7432TIP3   OH243710   3.565   3.171  13.477  0.1458 -0.2565 -0.2251
 7432TIP3    H143711   3.512   3.199  13.551  1.0807 -0.1805  0.4259
 7432TIP3    H243712   3.571   3.076  13.486  2.4026 -0.0318  1.3065
 7433TIP3   OH243713   3.373   5.272  16.565 -0.1891  0.1372  0.3388
 7433TIP3    H143714   3.399   5.283  16.657 -0.7319 -2.4742  0.9101
 7433TIP3    H243715   3.440   5.214  16.528  0.2273  1.4560 -1.0668
 7434TIP3   OH243716   5.262   2.023  13.079  0.2053  0.0749 -0.1414
 7434TIP3    H143717   5.180   2.026  13.127 -0.2471  1.9763 -0.9151
 7434TIP3    H243718   5.290   2.115  13.075  2.1365 -0.4726 -0.2956
 7435TIP3   OH243719   4.342   1.305   2.226  0.1298  0.4479 -0.5018
 7435TIP3    H143720   4.428   1.277   2.256  0.0623 -0.2088 -0.8911
 7435TIP3    H243721   4.348   1.400   2.218  0.6333  0.4636  0.0352
 7436TIP3   OH243722   6.677   2.715  13.584 -0.0276 -0.2736 -0.2301
 7436TIP3    H143723   6.663   2.797  13.632 -0.7433  0.4121 -1.5700
 7436TIP3    H243724   6.614   2.654  13.623  0.0812 -0.0229  0.3602
 7437TIP3   OH243725   4.526   4.178  10.700 -0.0037 -0.2963  0.4035
 7437TIP3    H143726   4.478   4.239  10.643  0.1499 -0.1997  0.3749
 7437TIP3    H243727   4.462   4.111  10.723 -0.2259 -0.0240  0.5842
 7438TIP3   OH243728   0.391   2.634   6.407 -0.0469 -0.2891 -0.0423
 7438TIP3    H143729   0.450   2.601   6.475 -0.5156  1.0683  1.0775
 7438TIP3    H243730   0.446   2.643   6.329  1.9284  3.0689  1.5127
 7439TIP3   OH243731   0.398   1.436   6.376 -0.1780  0.2672 -0.3050
 7439TIP3    H143732   0.361   1.446   6.464 -0.4403  1.0014 -0.4948
 7439TIP3    H243733   0.438   1.349   6.377 -2.5304 -0.9091 -0.3215
 7440TIP3   OH243734   0.840   2.358  11.584  0.1714 -0.6143 -0.1316
 7440TIP3    H143735   0.923   2.404  11.576 -0.9619  1.7092  0.6575
 7440TIP3    H243736   0.792   2.405  11.653 -1.2300 -2.7926  0.5103
 7441TIP3   OH243737   1.763   2.932   5.763 -0.4004 -0.7255  0.2520
 7441TIP3    H143738   1.734   2.848   5.729  0.5167 -0.9699  0.0381
 7441TIP3    H243739   1.791   2.981   5.686  0.7265 -0.8974  0.5239
 7442TIP3   OH243740   1.406   1.092  14.509  0.3152 -0.3340 -0.1534
 7442TIP3    H143741   1.376   1.180  14.532  2.0144  0.3775 -0.5378
 7442TIP3    H243742   1.484   1.078  14.562  0.2089 -1.5102 -0.2873
 7443TIP3   OH243743   5.830   0.868   3.759 -0.3858 -0.3300 -0.3137
 7443TIP3    H143744   5.827   0.934   3.689  2.1243 -0.3073 -0.4940
 7443TIP3    H243745   5.900   0.899   3.817 -0.8848 -1.5496  0.9668
 7444TIP3   OH243746   3.715   2.113   4.294 -0.6888 -0.6988 -0.3365
 7444TIP3    H143747   3.744   2.026   4.264 -0.9002 -0.7584 -0.3670
 7444TIP3    H243748   3.621   2.114   4.278 -0.4596  0.1163 -1.7849
 7445TIP3   OH243749   1.760   5.361  12.094  0.0462 -0.1118 -0.2156
 7445TIP3    H143750   1.723   5.449  12.092 -0.9704 -0.5331 -0.3249
 7445TIP3    H243751   1.726   5.322  12.174 -0.7570 -0.9263 -0.9352
 7446TIP3   OH243752   5.467   0.299  15.893 -0.3373 -0.4715 -0.2351
 7446TIP3    H143753   5.398   0.312  15.828 -1.2936 -1.0181  0.6303
 7446TIP3    H243754   5.547   0.293  15.842 -1.1348 -1.5345 -1.4353
 7447TIP3   OH243755   2.735   6.784   0.164 -0.1675 -0.0430 -0.4114
 7447TIP3    H143756   2.682   6.705   0.164 -0.6548  0.2774  0.1134
 7447TIP3    H243757   2.776   6.786   0.077 -0.4530 -0.6607 -0.5636
 7448TIP3   OH243758   4.202   3.637  13.008 -0.0053  0.6220 -0.3148
 7448TIP3    H143759   4.247   3.603  12.931  0.4675 -1.5350  0.8384
 7448TIP3    H243760   4.124   3.583  13.016  0.1888  0.5125  0.9746
 7449TIP3   OH243761   0.875   3.853  13.214  0.4177 -0.0649 -0.3010
 7449TIP3    H143762   0.797   3.870  13.267  0.5082  0.4369 -0.3252
 7449TIP3    H243763   0.939   3.818  13.276  0.5185  0.5052 -0.0815
 7450TIP3   OH243764   2.563   4.152  16.649 -0.0420  0.6256  0.3937
 7450TIP3    H143765   2.619   4.112  16.584  0.7347  1.9046  0.2516
 7450TIP3    H243766   2.474   4.129  16.622  0.2598  1.2235 -1.1804
 7451TIP3   OH243767   2.229   4.769   1.820  0.0838 -0.4712 -0.5987
 7451TIP3    H143768   2.260   4.728   1.900  3.1142 -0.1796 -1.4822
 7451TIP3    H243769   2.246   4.704   1.752  0.3782  0.3871 -1.3645
 7452TIP3   OH243770   4.707   2.727  15.524 -0.1656  0.0781 -0.0746
 7452TIP3    H143771   4.699   2.651  15.467  0.2996 -0.2153  0.2416
 7452TIP3    H243772   4.640   2.714  15.591 -0.5413  0.2940 -0.4050
 7453TIP3   OH243773   3.031   5.201  15.770  0.3342 -0.0417 -0.3193
 7453TIP3    H143774   3.122   5.227  15.785  0.1974  1.1774 -1.4546
 7453TIP3    H243775   2.981   5.255  15.830  0.3505 -0.8297  0.4233
 7454TIP3   OH243776   1.802   6.514   2.785  0.0520 -0.1603 -0.3574
 7454TIP3    H143777   1.855   6.452   2.834  1.7491  0.5840 -1.1527
 7454TIP3    H243778   1.762   6.570   2.851  1.1280 -0.0915  0.2658
 7455TIP3   OH243779   5.595   3.082  17.087 -0.0047  0.1615  0.1355
 7455TIP3    H143780   5.656   3.154  17.069 -2.0873  2.3182  1.0530
 7455TIP3    H243781   5.523   3.095  17.025  0.0951 -1.9270 -0.4949
 7456TIP3   OH243782   1.076   3.363   2.243 -0.0689 -0.0995  0.7232
 7456TIP3    H143783   1.008   3.302   2.272 -0.3489 -0.6256 -0.9388
 7456TIP3    H243784   1.144   3.357   2.310 -0.6479 -1.3043  1.2303
 7457TIP3   OH243785   0.584   2.876   1.792  0.2699  0.9649  0.1095
 7457TIP3    H143786   0.644   2.944   1.760  2.2391  0.2142  2.0469
 7457TIP3    H243787   0.623   2.794   1.763 -0.1756  0.4926  0.8366
 7458TIP3   OH243788   0.194   5.851   2.046  0.4455 -0.5650  0.2796
 7458TIP3    H143789   0.099   5.842   2.045  0.2099  1.4720 -0.0997
 7458TIP3    H243790   0.210   5.943   2.026  2.5083 -0.8433  0.3804
 7459TIP3   OH243791   4.224   5.377   1.346 -0.0359 -0.4745 -0.0269
 7459TIP3    H143792   4.221   5.471   1.365  2.0916 -0.3737  0.0440
 7459TIP3    H243793   4.281   5.370   1.269  0.7013 -1.7786  0.6060
 7460TIP3   OH243794   2.122   3.145  15.425  0.0259  0.5123  0.4162
 7460TIP3    H143795   2.059   3.106  15.364 -0.5824  1.0132  0.7090
 7460TIP3    H243796   2.089   3.121  15.512 -1.0439  2.5785  0.6655
 7461TIP3   OH243797   4.655   5.571  12.591  0.2065  0.5228  0.1552
 7461TIP3    H143798   4.577   5.586  12.537  0.9611  0.5298 -0.9571
 7461TIP3    H243799   4.728   5.599  12.537  1.1461 -1.1785  0.4680
 7462TIP3   OH243800   1.757   1.150   0.108 -0.4108  0.2444 -0.0207
 7462TIP3    H143801   1.786   1.172   0.019 -0.5203  0.0227 -0.1097
 7462TIP3    H243802   1.742   1.056   0.106  1.6474 -0.1508  0.8269
 7463TIP3   OH243803   2.562   1.725   2.660  0.3751 -0.0109  0.1200
 7463TIP3    H143804   2.577   1.820   2.655 -0.1683  0.0255 -0.9147
 7463TIP3    H243805   2.513   1.704   2.581 -1.4939 -0.7967  1.4150
 7464TIP3   OH243806   3.510   4.829   6.234 -0.9987 -0.1745 -0.1011
 7464TIP3    H143807   3.590   4.874   6.207 -0.2515 -0.8802  0.8293
 7464TIP3    H243808   3.444   4.898   6.240 -1.0994  0.1153 -3.0542
 7465TIP3   OH243809   2.422   1.605   2.464 -0.4623  0.0233 -0.4695
 7465TIP3    H143810   2.336   1.644   2.446 -1.7162 -2.2468  0.2608
 7465TIP3    H243811   2.456   1.579   2.378 -1.0985 -0.2306 -0.6457
 7466TIP3   OH243812   4.231   5.641  16.603 -0.2789 -0.4227  0.2650
 7466TIP3    H143813   4.141   5.662  16.578 -0.3987 -0.1228  0.9282
 7466TIP3    H243814   4.267   5.723  16.638  0.2353 -0.5522  0.0519
 7467TIP3   OH243815   5.155   3.268  14.709 -0.6935 -0.9472  0.5120
 7467TIP3    H143816   5.178   3.303  14.623  0.5973  1.7495  1.8521
 7467TIP3    H243817   5.227   3.209  14.730  0.7987  1.0013  1.1112
 7468TIP3   OH243818   4.886   3.021   4.836  1.0814 -0.0263 -0.1583
 7468TIP3    H143819   4.809   3.006   4.891 -0.4733  1.4866 -1.7889
 7468TIP3    H243820   4.945   3.073   4.891 -0.2779  1.1436  0.2460
 7469TIP3   OH243821   2.193   0.484  11.298 -0.5391 -0.3714  0.2093
 7469TIP3    H143822   2.189   0.489  11.203  0.1009  0.8796  0.2286
 7469TIP3    H243823   2.148   0.563  11.328 -0.9533 -0.8786  0.9606
 7470TIP3   OH243824   6.771   3.772  11.447 -0.4680  0.1022  0.1171
 7470TIP3    H143825   6.797   3.682  11.428 -0.6958  0.2399 -0.8982
 7470TIP3    H243826   6.844   3.825  11.416 -0.8003  0.3316 -0.2751
 7471TIP3   OH243827   6.304   1.879  13.536  0.6078  0.3540 -0.7292
 7471TIP3    H143828   6.268   1.936  13.604  1.5175  0.5314 -0.3851
 7471TIP3    H243829   6.356   1.814  13.585  0.4535 -0.1205 -1.1886
 7472TIP3   OH243830   3.177   5.161   4.276 -0.2178 -0.0157 -0.2491
 7472TIP3    H143831   3.148   5.084   4.227  0.4490 -0.7252  0.4440
 7472TIP3    H243832   3.109   5.227   4.260 -0.1229 -0.2974 -1.9306
 7473TIP3   OH243833   0.699   2.459  14.657  0.4727  0.2579 -0.0088
 7473TIP3    H143834   0.656   2.457  14.572 -3.0822  1.9668  1.5069
 7473TIP3    H243835   0.669   2.379  14.700  0.6390  0.3505  0.2821
 7474TIP3   OH243836   4.390   0.735  13.113 -0.7736  0.0514 -0.0200
 7474TIP3    H143837   4.358   0.809  13.060 -1.6984 -1.1428 -1.1919
 7474TIP3    H243838   4.317   0.673  13.113  0.3048 -1.2602  0.1736
 7475TIP3   OH243839   2.446   5.051  10.860  0.4148 -0.2827 -0.4098
 7475TIP3    H143840   2.387   4.979  10.883 -0.2737  0.6068  0.7352
 7475TIP3    H243841   2.437   5.060  10.765 -1.1104 -0.3407 -0.2965
 7476TIP3   OH243842   6.532   4.474  12.838  0.1664  0.1602  0.1975
 7476TIP3    H143843   6.602   4.479  12.773  1.0050 -0.4503  1.0263
 7476TIP3    H243844   6.500   4.564  12.844  2.1246  0.8763  1.0831
 7477TIP3   OH243845   1.992   0.743   2.311 -0.1079 -0.0977  0.0245
 7477TIP3    H143846   2.033   0.689   2.244 -0.5703 -1.0717  0.5033
 7477TIP3    H243847   2.043   0.725   2.390  1.9194  2.7831 -0.4658
 7478TIP3   OH243848   1.644   4.543   4.492  0.3533 -0.4589  0.2919
 7478TIP3    H143849   1.587   4.574   4.562  0.7540 -0.8348  0.7925
 7478TIP3    H243850   1.607   4.457   4.468 -0.3593  0.0842 -0.6340
 7479TIP3   OH243851   1.958   0.408   5.426  0.4655 -0.5469  0.1673
 7479TIP3    H143852   1.923   0.472   5.487 -0.2217 -0.5254 -0.2436
 7479TIP3    H243853   2.031   0.367   5.474  0.3509 -0.0826  0.7539
 7480TIP3   OH243854   5.108   3.508   0.266 -0.3103 -0.2793  0.5461
 7480TIP3    H143855   5.160   3.429   0.281  0.4472 -0.4517 -2.3625
 7480TIP3    H243856   5.171   3.580   0.268 -0.7410  0.0922  1.5431
 7481TIP3   OH243857   0.001   0.444   3.063  0.2725 -0.0028  0.3108
 7481TIP3    H143858   0.055   0.373   3.028  1.8266  0.1515  2.2221
 7481TIP3    H243859  -0.074   0.448   3.003  1.3914 -1.5314 -1.3204
 7482TIP3   OH243860   3.912   0.661   1.525  0.0890 -0.1256  0.4065
 7482TIP3    H143861   3.821   0.636   1.541 -0.4611  1.2074 -0.4395
 7482TIP3    H243862   3.932   0.624   1.439 -0.1536  0.7933 -0.0610
 7483TIP3   OH243863   4.699   0.636   0.675 -0.2693 -0.7003  0.6967
 7483TIP3    H143864   4.607   0.614   0.657 -0.1604  0.6176 -1.9623
 7483TIP3    H243865   4.732   0.562   0.726 -2.4203 -1.8925  0.4799
 7484TIP3   OH243866   6.312   6.579  17.063  0.0003  0.8101 -0.5548
 7484TIP3    H143867   6.361   6.660  17.072 -1.8185  2.0043 -0.8374
 7484TIP3    H243868   6.339   6.544  16.979  0.1752  1.5814 -0.8301
 7485TIP3   OH243869   4.731   3.116  16.324 -0.1853  0.1108 -0.7968
 7485TIP3    H143870   4.636   3.106  16.321 -0.1869 -0.1863 -0.1319
 7485TIP3    H243871   4.765   3.037  16.281 -0.2350  0.7866 -2.1209
 7486TIP3   OH243872   3.431   2.987   4.977  0.5102 -0.3305 -0.8149
 7486TIP3    H143873   3.427   2.907   5.030  1.9803  0.2962  0.3100
 7486TIP3    H243874   3.346   3.029   4.989  1.0449  0.1921  1.7533
 7487TIP3   OH243875   4.993   5.778  12.750  0.0505 -0.2705  0.4326
 7487TIP3    H143876   5.055   5.802  12.819 -2.3324  2.2080  1.9370
 7487TIP3    H243877   4.908   5.775  12.794 -1.3068 -0.6567 -2.0336
 7488TIP3   OH243878   3.496   0.066   5.691  0.2860  0.2567  0.1899
 7488TIP3    H143879   3.533   0.150   5.719  3.0997 -0.5354 -0.8255
 7488TIP3    H243880   3.514   0.007   5.764  1.5772 -0.2337 -0.4790
 7489TIP3   OH243881   1.994   1.248   4.078  0.6796  0.7248 -0.5708
 7489TIP3    H143882   1.968   1.219   3.991  0.8021  0.5230 -0.5411
 7489TIP3    H243883   1.921   1.300   4.109 -0.2308 -0.8493  0.0187
 7490TIP3   OH243884   5.105   6.276  14.202  0.3827 -0.2041 -0.2495
 7490TIP3    H143885   5.175   6.234  14.251  1.8326 -0.6360 -2.5019
 7490TIP3    H243886   5.094   6.361  14.244  1.7996 -0.4101  0.6121
 7491TIP3   OH243887   5.083   0.840   2.612 -0.2918 -0.3661 -0.2763
 7491TIP3    H143888   5.081   0.762   2.668 -1.0118 -0.1780 -0.0344
 7491TIP3    H243889   4.997   0.843   2.571 -0.1981  0.1932 -0.4412
 7492TIP3   OH243890   4.007   1.185  11.530 -0.0424 -0.3382  0.0236
 7492TIP3    H143891   3.949   1.180  11.606 -0.0054 -0.5435  0.0408
 7492TIP3    H243892   4.016   1.278  11.512  0.5244 -0.2551  0.7116
 7493TIP3   OH243893   6.019   0.084  12.608 -0.1688  0.1935  0.1117
 7493TIP3    H143894   6.018   0.172  12.646 -2.6607  0.5039 -0.5278
 7493TIP3    H243895   6.020   0.099  12.513 -2.6333 -0.3435 -0.0696
 7494TIP3   OH243896   3.644   0.079  11.629  0.3183 -0.3203 -0.0822
 7494TIP3    H143897   3.691   0.151  11.586  1.2099 -0.0801  1.2390
 7494TIP3    H243898   3.648   0.008  11.565  1.7618 -0.0234 -0.3631
 7495TIP3   OH243899   1.795   0.374  16.695 -0.4670 -0.0605 -0.0951
 7495TIP3    H143900   1.760   0.365  16.607  0.2856 -0.1338 -0.3916
 7495TIP3    H243901   1.866   0.437  16.687  0.4584 -1.0245  0.2002
 7496TIP3   OH243902   1.044   5.429   0.079 -0.1749  0.8726 -0.1229
 7496TIP3    H143903   1.036   5.487   0.004  0.0570 -0.3613 -1.1410
 7496TIP3    H243904   1.077   5.347   0.042 -0.9326 -0.0613  1.1851
 7497TIP3   OH243905   0.423   5.454   2.988 -0.7606  0.1515 -0.4923
 7497TIP3    H143906   0.458   5.542   2.977  0.5476 -0.2208  0.5509
 7497TIP3    H243907   0.383   5.455   3.075 -0.4579 -0.3894 -0.3500
 7498TIP3   OH243908   4.311   5.871  15.905 -0.8788  0.1333 -0.3617
 7498TIP3    H143909   4.364   5.940  15.865 -0.6816 -0.0491 -0.4181
 7498TIP3    H243910   4.287   5.814  15.832  2.7552 -2.4535  0.1712
 7499TIP3   OH243911   3.446   1.848  12.680 -0.5096  0.0382 -0.4466
 7499TIP3    H143912   3.476   1.914  12.743 -0.2985 -0.2536 -0.2405
 7499TIP3    H243913   3.471   1.765  12.719 -0.2075 -0.1360 -1.0091
 7500TIP3   OH243914   3.174   1.536   4.769  0.4084  0.1434  0.1133
 7500TIP3    H143915   3.147   1.471   4.703  3.2538 -1.2248  0.1185
 7500TIP3    H243916   3.227   1.599   4.720  1.3843 -0.0999  0.8323
 7501TIP3   OH243917   3.896   4.019   4.432 -0.0138 -0.5472  0.2346
 7501TIP3    H143918   3.810   4.037   4.395 -0.0598  1.8463  1.2849
 7501TIP3    H243919   3.936   3.955   4.372 -1.6437  0.0120 -1.5417
 7502TIP3   OH243920   2.123   1.660  15.052 -0.0467 -0.0186  0.0562
 7502TIP3    H143921   2.063   1.713  15.000  0.4644  0.2405 -0.2760
 7502TIP3    H243922   2.066   1.600  15.101 -0.4764 -1.3151 -1.9247
 7503TIP3   OH243923   3.691   5.837  15.302  0.1072 -0.3224 -0.6906
 7503TIP3    H143924   3.651   5.919  15.271 -1.5903 -1.3203 -1.2568
 7503TIP3    H243925   3.699   5.850  15.397 -0.7762  0.2611 -0.6781
 7504TIP3   OH243926   2.299   1.715   0.208  0.6226  0.3607  0.3327
 7504TIP3    H143927   2.370   1.659   0.240  0.9441  0.2653 -0.5177
 7504TIP3    H243928   2.221   1.660   0.214  1.1699 -0.8164 -1.9937
 7505TIP3   OH243929   2.908   2.013  14.741 -0.0319 -0.1357  0.8847
 7505TIP3    H143930   2.945   1.949  14.681 -1.2984 -1.3251  1.3217
 7505TIP3    H243931   2.869   2.080  14.683 -1.4987 -1.4146  0.3230
 7506TIP3   OH243932   6.764   6.681  13.614 -0.1502 -0.1562 -0.4497
 7506TIP3    H143933   6.694   6.743  13.637 -0.0399 -0.5117  0.9525
 7506TIP3    H243934   6.743   6.653  13.525 -1.4008  0.2711 -0.3126
 7507TIP3   OH243935   4.388   0.710  15.042  0.3800 -0.2120  0.4466
 7507TIP3    H143936   4.391   0.724  14.947  3.0397  3.1485  0.8451
 7507TIP3    H243937   4.462   0.652  15.059 -0.8904 -1.9126  0.4316
 7508TIP3   OH243938   1.491   2.133  15.277 -0.4369 -0.5781  0.3124
 7508TIP3    H143939   1.514   2.051  15.321  2.2763 -0.4649 -0.7066
 7508TIP3    H243940   1.544   2.199  15.321 -0.5992  0.1815 -0.5993
 7509TIP3   OH243941   3.291   3.055  15.840 -0.2590 -0.2839 -0.6624
 7509TIP3    H143942   3.273   2.998  15.914  2.9407 -0.3231  0.2235
 7509TIP3    H243943   3.247   3.138  15.862  0.4034 -0.3804  1.1815
 7510TIP3   OH243944   2.310   1.272  13.178 -0.0840  0.0232 -0.2337
 7510TIP3    H143945   2.280   1.215  13.249 -2.9963  0.9009 -0.6030
 7510TIP3    H243946   2.351   1.347  13.222 -1.5857  0.4094  0.5627
 7511TIP3   OH243947   5.128   5.341   3.548 -0.4235  0.1474  0.1666
 7511TIP3    H143948   5.144   5.433   3.570 -0.5007  0.0687  0.5664
 7511TIP3    H243949   5.052   5.317   3.601  1.1918 -0.9002  2.1607
 7512TIP3   OH243950   2.430   5.069   3.410 -0.2048  0.3731 -0.4503
 7512TIP3    H143951   2.466   4.984   3.383  1.2324  0.6323  0.5046
 7512TIP3    H243952   2.502   5.111   3.457 -1.4027  1.4717  0.4624
 7513TIP3   OH243953   2.395   5.311   4.213 -0.1518  0.3643 -0.1736
 7513TIP3    H143954   2.418   5.324   4.121 -2.7663 -0.8693 -1.1260
 7513TIP3    H243955   2.436   5.227   4.236  1.3069  1.1396  0.1232
 7514TIP3   OH243956   2.990   1.567  11.386 -0.6278 -0.6207 -0.5506
 7514TIP3    H143957   2.946   1.562  11.470  0.2590 -1.9603 -0.1366
 7514TIP3    H243958   2.931   1.521  11.325 -0.2076 -1.6881 -0.1691
 7515TIP3   OH243959   1.205   6.643  12.649  0.1925  0.4308  0.4825
 7515TIP3    H143960   1.170   6.642  12.738  0.0998  0.0989  0.4447
 7515TIP3    H243961   1.187   6.731  12.617 -0.9859  0.1435  0.3159
 7516TIP3   OH243962   6.787   0.671  13.120 -0.9181  0.0912  0.2927
 7516TIP3    H143963   6.698   0.699  13.100 -0.4398  0.8351 -0.9215
 7516TIP3    H243964   6.777   0.607  13.191 -2.3441  0.6817  0.6534
 7517TIP3   OH243965   1.028   3.392   0.840  0.2207  0.5995 -0.3078
 7517TIP3    H143966   0.989   3.338   0.909  1.8255  0.5498  0.5978
 7517TIP3    H243967   1.065   3.468   0.886 -1.3540  2.1643 -1.4766
 7518TIP3   OH243968   4.505   0.066   0.159  0.1618 -0.1421 -0.2217
 7518TIP3    H143969   4.465   0.012   0.227 -0.2496 -0.3700 -0.6410
 7518TIP3    H243970   4.599   0.059   0.175  0.0998 -0.7975 -0.1288
 7519TIP3   OH243971   1.290   3.397  13.276  0.2349  0.9339 -0.7519
 7519TIP3    H143972   1.293   3.338  13.200 -1.1040 -0.7485  0.4083
 7519TIP3    H243973   1.200   3.430  13.276  0.1979  0.8536  0.1315
 7520TIP3   OH243974   2.750   4.748  15.369  0.5887  0.0218  0.1647
 7520TIP3    H143975   2.777   4.837  15.349  1.7020  0.2541  2.4103
 7520TIP3    H243976   2.684   4.758  15.438 -0.5143 -0.8553 -0.7200
 7521TIP3   OH243977   3.330   5.796  15.150  0.1985 -0.6755 -0.4873
 7521TIP3    H143978   3.235   5.810  15.160  0.2110 -0.4139 -0.7169
 7521TIP3    H243979   3.369   5.874  15.189  0.2616  0.1156 -2.0593
 7522TIP3   OH243980   2.273   0.132   2.432 -0.9856  0.3287  0.9027
 7522TIP3    H143981   2.199   0.096   2.481 -1.5502  2.2022  1.5206
 7522TIP3    H243982   2.234   0.168   2.353 -0.3593 -0.8437  0.0341
 7523TIP3   OH243983   3.393   3.235   0.206  0.2676  0.5654 -0.5256
 7523TIP3    H143984   3.415   3.319   0.165 -1.0082  0.0924 -2.2922
 7523TIP3    H243985   3.299   3.226   0.192 -0.2479  0.2763  2.4483
 7524TIP3   OH243986   5.118   4.641  16.953  0.5469 -0.6281  0.1317
 7524TIP3    H143987   5.112   4.732  16.925 -0.6759  0.1204  2.5676
 7524TIP3    H243988   5.034   4.603  16.927  0.4945 -0.6641  0.3511
 7525TIP3   OH243989   0.852   3.282  15.433  0.0691 -0.0992  0.2084
 7525TIP3    H143990   0.927   3.246  15.385  0.0915  0.7708 -0.4448
 7525TIP3    H243991   0.785   3.295  15.366  0.4620  2.1265  0.1463
 7526TIP3   OH243992   5.897   2.928  16.779 -0.1895 -0.4440 -0.7251
 7526TIP3    H143993   5.850   2.980  16.844  0.1410  1.3215 -1.8363
 7526TIP3    H243994   5.986   2.920  16.814 -0.3150 -0.5099 -0.4179
 7527TIP3   OH243995   0.599   3.713   5.161  0.0238 -0.1677  0.5837
 7527TIP3    H143996   0.549   3.736   5.239  1.0170 -1.5263  1.6628
 7527TIP3    H243997   0.665   3.651   5.192 -0.5906 -2.0412 -1.6343
 7528TIP3   OH243998   0.213   4.593  13.067  0.4138 -0.6451  0.6588
 7528TIP3    H143999   0.221   4.656  13.139 -2.8811  1.3678 -0.5325
 7528TIP3    H244000   0.299   4.596  13.024  0.8712  1.9441  1.5530
 7529TIP3   OH244001   1.185   3.960  14.523  0.0459  0.1301  0.5553
 7529TIP3    H144002   1.269   3.934  14.486  0.3060  0.8843  0.5857
 7529TIP3    H244003   1.147   4.019  14.458 -0.5068 -0.2833  0.4980
 7530TIP3   OH244004   5.241   1.039  15.081  0.2027  0.0760  0.8319
 7530TIP3    H144005   5.147   1.028  15.096  0.2840  0.1356  1.4289
 7530TIP3    H244006   5.277   0.952  15.096  0.5467  0.5403  3.1623
 7531TIP3   OH244007   4.442   6.619   4.971  0.2781 -0.1949 -0.2863
 7531TIP3    H144008   4.518   6.676   4.986  2.3586 -2.2168 -2.2210
 7531TIP3    H244009   4.421   6.631   4.878 -1.5140 -0.0252  0.1142
 7532TIP3   OH244010   0.335   5.693  16.772  0.1386  0.0872 -0.0378
 7532TIP3    H144011   0.417   5.740  16.755 -0.1835  0.0075 -2.0066
 7532TIP3    H244012   0.268   5.743  16.725 -1.1614  0.6709  2.2758
 7533TIP3   OH244013   2.502   3.087  10.509  0.1398  0.2951 -0.0124
 7533TIP3    H144014   2.498   2.992  10.508 -1.1375  0.3137  0.9934
 7533TIP3    H244015   2.541   3.110  10.425  1.1073 -1.1186  0.0085
 7534TIP3   OH244016   2.849   4.916   1.171  0.0219  0.5726 -0.2555
 7534TIP3    H144017   2.788   4.843   1.182 -0.5144  1.2192  1.2586
 7534TIP3    H244018   2.917   4.881   1.113 -0.6624 -0.8541 -0.2472
 7535TIP3   OH244019   6.372   4.632  11.365  0.4547 -0.0985 -0.1038
 7535TIP3    H144020   6.376   4.542  11.398 -0.3880  0.0417  0.4036
 7535TIP3    H244021   6.411   4.627  11.278  0.3161 -0.9790 -0.1257
 7536TIP3   OH244022   0.190   2.622   1.265 -0.3117  0.4375 -0.5384
 7536TIP3    H144023   0.176   2.547   1.207 -0.2818  0.2444 -0.2931
 7536TIP3    H244024   0.134   2.691   1.228 -1.2126 -0.0486 -0.0954
 7537TIP3   OH244025   5.999   4.738  15.214 -0.1560  0.0420 -0.2911
 7537TIP3    H144026   5.989   4.832  15.198 -1.8106 -0.4968 -3.3286
 7537TIP3    H244027   5.924   4.716  15.270  0.7709  0.6296  1.2287
 7538TIP3   OH244028   3.521   4.953   3.885  0.1461  0.3547  0.2726
 7538TIP3    H144029   3.594   4.894   3.865 -0.0082  0.2812 -0.0816
 7538TIP3    H244030   3.562   5.029   3.926  0.3114 -0.1458  1.0489
 7539TIP3   OH244031   1.426   0.547   5.293  0.4929  0.1843  0.0914
 7539TIP3    H144032   1.437   0.470   5.237  1.5385 -0.2797  0.8999
 7539TIP3    H244033   1.491   0.609   5.261  1.9527 -0.5385  1.5019
 7540TIP3   OH244034   6.622   4.328   3.942 -0.1942  0.0116  0.4136
 7540TIP3    H144035   6.607   4.310   3.849  0.9812 -0.9391  0.3776
 7540TIP3    H244036   6.577   4.410   3.958  1.8634  1.6975 -1.6779
 7541TIP3   OH244037   5.800   1.976  12.234  0.0441  0.0626  0.0334
 7541TIP3    H144038   5.719   2.021  12.258 -0.4340 -0.9531  0.3772
 7541TIP3    H244039   5.818   2.005  12.145  0.4239  1.8810  0.6479
 7542TIP3   OH244040   0.159   1.102  15.066  0.4277 -0.2611 -0.7237
 7542TIP3    H144041   0.111   1.019  15.059 -0.8542  0.2962  0.9534
 7542TIP3    H244042   0.128   1.154  14.992 -0.5199 -0.4387 -0.4640
 7543TIP3   OH244043   0.161   4.440  14.285  0.0333 -0.5425 -0.4047
 7543TIP3    H144044   0.231   4.476  14.231  1.3691  0.0476  1.6407
 7543TIP3    H244045   0.193   4.355  14.315  0.0653 -0.1010  0.8615
 7544TIP3   OH244046   5.361   1.604   2.857 -0.4129 -0.0580 -0.0755
 7544TIP3    H144047   5.311   1.657   2.795  0.8297  0.3949 -0.7086
 7544TIP3    H244048   5.317   1.519   2.856 -0.4090 -0.0663 -1.6144
 7545TIP3   OH244049   4.788   2.219   3.185  0.6619 -0.2579  0.1854
 7545TIP3    H144050   4.828   2.151   3.131  0.2972 -0.1111 -0.2795
 7545TIP3    H244051   4.847   2.294   3.177  0.0916  0.1016 -0.8516
 7546TIP3   OH244052   3.842   2.227  11.931 -0.4522  0.1549  0.7206
 7546TIP3    H144053   3.775   2.168  11.894 -2.3013  1.6383  1.5906
 7546TIP3    H244054   3.831   2.220  12.025  0.7625  0.3222  0.8922
 7547TIP3   OH244055   3.532   2.802  17.019  0.3692  0.6788 -0.2910
 7547TIP3    H144056   3.478   2.803  16.940  1.2431 -0.1114 -0.9287
 7547TIP3    H244057   3.585   2.722  17.010 -0.3320 -0.0601  1.6658
 7548TIP3   OH244058   6.682   5.797   2.054 -0.7269  0.9111 -0.3042
 7548TIP3    H144059   6.676   5.836   1.967 -2.1011  1.1481 -0.1198
 7548TIP3    H244060   6.614   5.841   2.105 -1.5087 -0.8186  0.2388
 7549TIP3   OH244061   0.174   3.212  11.968 -1.2093 -0.4184 -0.0756
 7549TIP3    H144062   0.129   3.138  11.928  0.4095 -1.6344  0.2704
 7549TIP3    H244063   0.179   3.191  12.061 -1.9028  0.7810  0.2619
 7550TIP3   OH244064   2.815   4.098   3.401  0.1054  0.0761 -0.1004
 7550TIP3    H144065   2.857   4.014   3.417 -1.5551 -0.5580  1.3030
 7550TIP3    H244066   2.887   4.160   3.389  1.4238 -1.8777 -3.8058
 7551TIP3   OH244067   4.706   5.039   3.333  0.1321  0.0834  0.3712
 7551TIP3    H144068   4.614   5.064   3.345  0.9026  3.3971  0.4766
 7551TIP3    H244069   4.728   4.990   3.412 -1.0050  1.1335  1.3837
 7552TIP3   OH244070   3.434   5.669  11.391  0.1433 -0.0992 -0.1681
 7552TIP3    H144071   3.520   5.695  11.425  0.4709 -0.6989 -0.5227
 7552TIP3    H244072   3.454   5.603  11.324 -0.6477 -1.0167  0.4798
 7553TIP3   OH244073   6.198   3.502   2.056  0.3757 -0.1362 -0.2936
 7553TIP3    H144074   6.283   3.473   2.089 -0.1790 -1.5534 -0.0505
 7553TIP3    H244075   6.165   3.563   2.122  1.3182  0.6661 -0.5385
 7554TIP3   OH244076   3.655   0.555   1.557  0.6933 -0.6207 -0.1382
 7554TIP3    H144077   3.667   0.462   1.539  1.5729 -0.3892 -0.7754
 7554TIP3    H244078   3.560   0.564   1.571  0.1090 -1.1031 -3.0969
 7555TIP3   OH244079   0.402   0.007   6.746  0.3843 -0.4806  0.0308
 7555TIP3    H144080   0.311   0.034   6.760  0.4028 -0.3096 -0.1722
 7555TIP3    H244081   0.435  -0.014   6.834  0.2980 -0.0682  0.1626
 7556TIP3   OH244082   6.258   1.189   2.194  0.0777 -0.4728  0.0025
 7556TIP3    H144083   6.312   1.124   2.148  0.7464 -0.2975  0.5247
 7556TIP3    H244084   6.269   1.169   2.287  1.1623  1.0225  0.2425
 7557TIP3   OH244085   4.458   6.385  13.481 -0.8451  0.1254  0.0631
 7557TIP3    H144086   4.478   6.349  13.395 -0.1915 -0.8226  0.6020
 7557TIP3    H244087   4.537   6.430  13.508 -1.4272  1.4132 -0.3052
 7558TIP3   OH244088   6.206   3.491   1.436  1.0534 -0.6407 -0.0052
 7558TIP3    H144089   6.220   3.586   1.427  0.0775 -0.5559 -0.7432
 7558TIP3    H244090   6.113   3.479   1.417  1.3174 -1.8411 -0.5958
 7559TIP3   OH244091   0.791   2.611   2.535 -0.2732 -0.0384  0.2928
 7559TIP3    H144092   0.823   2.693   2.572  0.6615 -0.0360 -0.4773
 7559TIP3    H244093   0.869   2.556   2.525 -0.5622 -0.2610 -1.0768
 7560TIP3   OH244094   1.223   5.869  12.389  0.2254  0.0152 -0.3502
 7560TIP3    H144095   1.142   5.855  12.439  1.3222 -1.6967  1.0892
 7560TIP3    H244096   1.194   5.889  12.300 -1.7654 -0.8040  0.0717
 7561TIP3   OH244097   4.472   5.310   5.036  0.1866  0.2057 -0.5454
 7561TIP3    H144098   4.418   5.272   5.106 -2.7489  2.3933 -1.4209
 7561TIP3    H244099   4.535   5.242   5.015 -2.0637 -2.5145  0.7784
 7562TIP3   OH244100   1.479   6.508   5.687  0.4221  0.0935  0.3752
 7562TIP3    H144101   1.567   6.485   5.656  0.5854 -0.2048  1.0312
 7562TIP3    H244102   1.494   6.556   5.769 -0.0376 -0.3307  0.7156
 7563TIP3   OH244103   2.767   0.968  16.413 -0.1833  0.4646 -0.4074
 7563TIP3    H144104   2.718   0.886  16.404  0.3543  0.1266 -0.3161
 7563TIP3    H244105   2.726   1.028  16.351 -0.4516  0.0634 -0.6210
 7564TIP3   OH244106   3.597   4.704   1.063 -0.3951 -0.1761 -0.8477
 7564TIP3    H144107   3.620   4.787   1.022 -0.7052 -0.1911 -1.0542
 7564TIP3    H244108   3.514   4.722   1.109  0.0386 -0.1059 -0.0647
 7565TIP3   OH244109   0.893   0.149  15.004 -0.6792 -0.3996 -0.2086
 7565TIP3    H144110   0.885   0.233  14.959 -1.9402 -0.3468  0.0684
 7565TIP3    H244111   0.820   0.097  14.971  0.4924 -1.6498 -0.8857
 7566TIP3   OH244112   6.343   3.225   1.682 -0.2821  0.3273  0.7987
 7566TIP3    H144113   6.433   3.203   1.706 -0.2028 -1.8327 -1.1793
 7566TIP3    H244114   6.303   3.142   1.659 -2.0713  1.5133 -0.6467
 7567TIP3   OH244115   6.101   0.774  17.144  0.3938 -0.2768 -0.0734
 7567TIP3    H144116   6.103   0.841  17.212  0.8002 -0.2041 -0.1538
 7567TIP3    H244117   6.076   0.694  17.190 -0.1417 -0.0658  0.0137
 7568TIP3   OH244118   0.862   6.485   2.292 -0.5642 -0.5730  0.3793
 7568TIP3    H144119   0.812   6.566   2.281 -0.1799 -0.5539 -1.5667
 7568TIP3    H244120   0.884   6.458   2.203  0.3270 -2.1992  1.0480
 7569TIP3   OH244121   2.385   3.300   3.109  0.3724  0.1915  0.1397
 7569TIP3    H144122   2.372   3.210   3.079  0.9210 -0.5498  1.9865
 7569TIP3    H244123   2.449   3.293   3.180  1.1938  2.1749 -0.3272
 7570TIP3   OH244124   3.914   5.923   6.158 -0.2851 -0.8869  0.3548
 7570TIP3    H144125   3.929   5.881   6.243 -0.1007 -1.3081  0.1122
 7570TIP3    H244126   3.959   6.008   6.165 -1.0232 -0.5333  1.0011
 7571TIP3   OH244127   1.916   2.268   1.519 -0.4032 -0.1252  0.4076
 7571TIP3    H144128   1.984   2.263   1.451  1.4532 -0.3686  2.2029
 7571TIP3    H244129   1.913   2.180   1.557 -0.5443  0.3106  1.4329
 7572TIP3   OH244130   2.341   4.116   0.180 -0.5688  0.0033 -0.0764
 7572TIP3    H144131   2.407   4.053   0.209 -0.5459  0.3063  0.5668
 7572TIP3    H244132   2.371   4.143   0.093  0.0088 -0.0746  0.0889
 7573TIP3   OH244133   3.715   5.058  15.438 -0.7575  0.3784 -0.9993
 7573TIP3    H144134   3.718   5.134  15.495 -0.2774 -0.9112  0.7972
 7573TIP3    H244135   3.783   5.000  15.472 -3.1643 -2.2163 -0.2051
 7574TIP3   OH244136   4.894   2.204  13.926 -0.4695 -0.3105  0.7165
 7574TIP3    H144137   4.800   2.220  13.925 -0.5201 -0.6268  0.0780
 7574TIP3    H244138   4.911   2.156  13.845  0.4559  0.9614  0.1297
 7575TIP3   OH244139   3.249   4.904  13.738  0.4202 -0.5664 -0.3262
 7575TIP3    H144140   3.327   4.851  13.755  0.5101 -0.1124  0.7362
 7575TIP3    H244141   3.284   4.989  13.712  0.2798 -0.2950  0.3725
 7576TIP3   OH244142   0.880   0.764   3.565  0.5576 -0.1063 -0.2242
 7576TIP3    H144143   0.911   0.810   3.643 -0.9295 -0.1322  0.4208
 7576TIP3    H244144   0.920   0.678   3.569  0.2465 -0.2191  0.7022
 7577TIP3   OH244145   5.313   1.796  12.210  0.8446  0.0459  0.1502
 7577TIP3    H144146   5.371   1.840  12.272  2.7525 -0.0705 -1.4669
 7577TIP3    H244147   5.352   1.710  12.196  0.3221 -0.0241 -1.0172
 7578TIP3   OH244148   3.594   6.446  12.427 -0.0870  0.6882  0.2407
 7578TIP3    H144149   3.519   6.488  12.384 -1.1580 -0.1489  1.2101
 7578TIP3    H244150   3.670   6.474  12.376 -1.1559  0.8122 -1.3675
 7579TIP3   OH244151   4.188   0.310   3.535  0.5026 -0.2516  0.1652
 7579TIP3    H144152   4.267   0.331   3.485  0.6300  1.7074  1.1098
 7579TIP3    H244153   4.115   0.329   3.476  0.6968 -0.7092 -0.2264
 7580TIP3   OH244154   6.777   1.850  11.181  0.1583 -0.0047 -0.6197
 7580TIP3    H144155   6.788   1.914  11.251  2.2861 -0.6735 -0.2673
 7580TIP3    H244156   6.684   1.831  11.180 -0.0299  0.5615  1.5506
 7581TIP3   OH244157   0.280   0.422  15.247 -0.3781  0.4536 -0.0944
 7581TIP3    H144158   0.293   0.486  15.177  0.6227  2.2334  1.6192
 7581TIP3    H244159   0.201   0.452  15.292 -0.0888  0.3052  0.5193
 7582TIP3   OH244160   0.426   2.629   3.922 -0.6639  0.2460  0.1592
 7582TIP3    H144161   0.339   2.592   3.940 -0.1942  0.7157  4.3979
 7582TIP3    H244162   0.419   2.720   3.951  1.0436  0.5275 -0.2340
 7583TIP3   OH244163   1.912   6.006  12.339  0.3333  0.0905 -0.3131
 7583TIP3    H144164   1.970   5.975  12.270  0.8023  0.9679 -0.3267
 7583TIP3    H244165   1.935   5.953  12.416  1.0164  0.2838 -0.3741
 7584TIP3   OH244166   3.143   2.505   6.346 -0.7485 -0.0916 -0.1442
 7584TIP3    H144167   3.168   2.582   6.396  0.2537 -1.1143  1.0091
 7584TIP3    H244168   3.202   2.504   6.271  1.6826 -1.4932  1.6048
 7585TIP3   OH244169   3.051   1.138   5.638  0.3379  0.1918  0.2765
 7585TIP3    H144170   3.065   1.070   5.703  2.2048 -1.3610 -1.6201
 7585TIP3    H244171   2.965   1.119   5.600  0.6495 -0.8526  0.0769
 7586TIP3   OH244172   5.556   2.557  16.886 -0.0201  0.3183  0.4794
 7586TIP3    H144173   5.567   2.528  16.977 -0.2164  1.5960  0.9395
 7586TIP3    H244174   5.550   2.477  16.835 -1.4754 -0.4395  1.7805
 7587TIP3   OH244175   3.187   3.523   1.048  0.6144 -0.3367  0.3923
 7587TIP3    H144176   3.216   3.451   0.992 -2.1451 -1.9021  0.8051
 7587TIP3    H244177   3.152   3.588   0.988  2.8598  0.6533  0.0390
 7588TIP3   OH244178   5.846   1.634   2.773 -0.0410 -0.0654  0.4193
 7588TIP3    H144179   5.866   1.628   2.680 -0.0685  0.4081  0.3793
 7588TIP3    H244180   5.750   1.627   2.778  0.0805 -4.4534  0.7759
 7589TIP3   OH244181   1.563   5.451  16.875 -0.1285 -0.2501  0.1302
 7589TIP3    H144182   1.612   5.398  16.938 -0.0138 -0.1380  0.1361
 7589TIP3    H244183   1.577   5.408  16.791  3.2534  1.9026 -0.6183
 7590TIP3   OH244184   0.697   0.364  13.495  0.5621  0.1251  0.3546
 7590TIP3    H144185   0.780   0.402  13.464  0.7480 -1.2698 -0.9873
 7590TIP3    H244186   0.637   0.438  13.499  1.3317  0.8362 -0.6227
 7591TIP3   OH244187   1.996   3.390   5.093  0.6603 -0.1206 -0.1593
 7591TIP3    H144188   1.908   3.355   5.098  1.2794 -1.7709 -0.1481
 7591TIP3    H244189   2.029   3.388   5.183  0.8205  0.2148 -0.2056
 7592TIP3   OH244190   6.719   2.461  15.540 -0.4953 -0.1118  0.3406
 7592TIP3    H144191   6.652   2.395  15.555 -0.4058 -0.6003 -1.2811
 7592TIP3    H244192   6.695   2.502  15.457 -0.3918  1.7328  1.1544
 7593TIP3   OH244193   3.335   1.942  12.468 -0.3158 -0.0637  1.0891
 7593TIP3    H144194   3.364   1.896  12.547  0.8507 -2.6448 -0.7100
 7593TIP3    H244195   3.391   2.019  12.463  1.0238 -0.9610  1.7418
 7594TIP3   OH244196   6.356   5.117  11.611  0.2479  0.5330  0.2174
 7594TIP3    H144197   6.385   5.197  11.568 -1.5305  1.0008 -0.2000
 7594TIP3    H244198   6.352   5.052  11.541 -1.9252  1.1003 -0.2514
 7595TIP3   OH244199   3.897   0.107  11.850  0.6331  0.2406 -0.2300
 7595TIP3    H144200   3.806   0.135  11.833 -0.2522 -3.4192 -2.6729
 7595TIP3    H244201   3.946   0.143  11.776  0.6982  0.3092 -0.1531
 7596TIP3   OH244202   5.059   2.810  15.818 -0.6195 -0.2109 -0.4632
 7596TIP3    H144203   5.116   2.733  15.811  0.8590  0.9350 -1.6599
 7596TIP3    H244204   5.035   2.830  15.727 -2.3538 -0.1994 -0.0409
 7597TIP3   OH244205   3.530   5.372   5.589  0.0655  0.3747  0.7301
 7597TIP3    H144206   3.451   5.318   5.593  0.4689 -0.3459 -0.5583
 7597TIP3    H244207   3.537   5.411   5.676 -0.8008 -0.8451  1.3703
 7598TIP3   OH244208   0.190   0.163  12.168  0.7586  0.0970  0.0246
 7598TIP3    H144209   0.172   0.209  12.250 -0.1562  1.2543 -0.7910
 7598TIP3    H244210   0.104   0.130  12.140  1.2592 -1.4192  0.1462
 7599TIP3   OH244211   1.385   0.188  14.832  0.4177  0.4221  0.2774
 7599TIP3    H144212   1.352   0.116  14.778  0.2507  1.6061 -1.2781
 7599TIP3    H244213   1.315   0.254  14.830  0.8221  0.9040  1.1398
 7600TIP3   OH244214   1.818   4.969   0.988 -0.4587  0.2884  0.1973
 7600TIP3    H144215   1.844   4.877   0.978 -0.6574  0.2427  0.0939
 7600TIP3    H244216   1.765   4.970   1.068 -2.7431 -0.1983 -1.2038
 7601TIP3   OH244217   3.866   0.617  16.240  0.1664 -0.4238  0.0126
 7601TIP3    H144218   3.818   0.630  16.158  0.5991 -0.9372 -0.3278
 7601TIP3    H244219   3.958   0.630  16.216  0.4069 -1.7896  0.1482
 7602TIP3   OH244220   3.739   2.063   3.973 -0.0536  0.2002  0.2763
 7602TIP3    H144221   3.744   1.981   4.023  1.2044 -0.6525 -1.1372
 7602TIP3    H244222   3.648   2.068   3.944 -0.5862  0.2597  1.8559
 7603TIP3   OH244223   6.490   0.773   0.720  0.0779  0.1592 -0.1863
 7603TIP3    H144224   6.471   0.814   0.804  0.6883 -2.2145  1.2238
 7603TIP3    H244225   6.405   0.742   0.689 -0.0563  0.4576 -0.1187
 7604TIP3   OH244226   3.507   0.893   1.494 -0.1299  0.4349  0.0052
 7604TIP3    H144227   3.442   0.927   1.431  0.0631  0.2534 -0.2945
 7604TIP3    H244228   3.480   0.802   1.509  0.4124  0.1696 -0.5986
 7605TIP3   OH244229   6.350   2.773   5.106  0.2736  0.2504  0.1757
 7605TIP3    H144230   6.389   2.852   5.068  2.5622 -0.9956 -0.2729
 7605TIP3    H244231   6.337   2.714   5.032  1.0463 -0.7325  0.7945
 7606TIP3   OH244232   3.695   4.654   4.734  0.9032 -0.0553 -0.0732
 7606TIP3    H144233   3.730   4.581   4.684  0.8810 -0.6983  0.8316
 7606TIP3    H244234   3.748   4.656   4.814  1.7784  1.7383 -0.6387
 7607TIP3   OH244235   5.105   0.454  16.947 -0.4551 -0.2147  0.3438
 7607TIP3    H144236   5.199   0.451  16.930 -0.4002  0.0732  0.5854
 7607TIP3    H244237   5.091   0.540  16.986 -0.7490 -0.4458  0.7467
 7608TIP3   OH244238   5.791   5.084   4.047  0.1216  0.3057  0.0500
 7608TIP3    H144239   5.723   5.080   4.114 -0.6883 -0.6539 -0.7769
 7608TIP3    H244240   5.857   5.143   4.082 -0.2638 -0.1863  1.6917
 7609TIP3   OH244241   2.067   5.699   5.071  0.2880 -0.0776 -0.5854
 7609TIP3    H144242   2.028   5.652   4.997  1.0155 -1.1410 -0.3147
 7609TIP3    H244243   2.147   5.738   5.035 -0.9997  2.1987 -1.1699
 7610TIP3   OH244244   6.495   0.968  11.262 -0.5324  0.1203 -0.2936
 7610TIP3    H144245   6.452   0.900  11.210  0.4833 -0.4812 -0.3789
 7610TIP3    H244246   6.542   0.920  11.330  1.3693  0.5835 -1.1999
 7611TIP3   OH244247   2.472   1.560   0.887 -0.0222  0.5335  0.3169
 7611TIP3    H144248   2.382   1.530   0.872 -0.5575  1.5296  1.3875
 7611TIP3    H244249   2.483   1.634   0.827  0.1845  0.2439 -0.0063
 7612TIP3   OH244250   4.518   2.673   6.488  0.2503  0.0606 -0.5055
 7612TIP3    H144251   4.526   2.706   6.577 -0.6825 -1.7349  0.3038
 7612TIP3    H244252   4.593   2.710   6.442  0.3871  1.5612  0.8333
 7613TIP3   OH244253   6.136   3.413   5.994  0.6197  0.0438  0.6730
 7613TIP3    H144254   6.117   3.410   5.900  1.9523  0.5670  0.3723
 7613TIP3    H244255   6.104   3.498   6.022 -0.5815 -0.4563  0.9015
 7614TIP3   OH244256   1.004   4.762   2.734 -0.8401  0.3255  0.9097
 7614TIP3    H144257   0.917   4.740   2.767 -0.5326  1.3806  2.5351
 7614TIP3    H244258   1.043   4.677   2.712 -1.8765 -0.2469  1.1994
 7615TIP3   OH244259   1.810   5.992   5.464  0.5042 -0.2998  0.2064
 7615TIP3    H144260   1.864   5.995   5.385  1.2863  0.9609  0.7627
 7615TIP3    H244261   1.734   5.939   5.439 -0.2130  1.6123 -1.9861
 7616TIP3   OH244262   0.256   0.589  14.035 -0.3225 -0.6171  0.0483
 7616TIP3    H144263   0.222   0.664  13.986 -0.9838 -0.9586 -0.0260
 7616TIP3    H244264   0.270   0.622  14.123  0.8338 -0.0064 -0.3343
 7617TIP3   OH244265   5.823   1.968  12.623  0.0210 -0.0278  0.1266
 7617TIP3    H144266   5.738   1.927  12.632 -0.1340 -0.0750 -1.3239
 7617TIP3    H244267   5.813   2.054  12.664 -0.7780  0.0431 -0.2166
 7618TIP3   OH244268   4.342   4.450  15.823 -0.6061  0.0624 -0.0047
 7618TIP3    H144269   4.304   4.515  15.883 -1.8403 -1.7710  1.2850
 7618TIP3    H244270   4.273   4.433  15.759 -0.3726 -0.1604 -0.1998
 7619TIP3   OH244271   3.441   1.035  15.968  0.5360 -0.0058 -0.2024
 7619TIP3    H144272   3.351   1.005  15.971  0.7012 -0.5856  3.2717
 7619TIP3    H244273   3.493   0.955  15.981  1.5140  0.4963 -0.8990
 7620TIP3   OH244274   5.714   4.674  15.073 -0.5870 -0.0683 -0.0292
 7620TIP3    H144275   5.640   4.629  15.033 -1.4106  2.4011 -1.4899
 7620TIP3    H244276   5.676   4.722  15.147 -0.0338 -0.4268  0.4983
 7621TIP3   OH244277   6.704   6.701   3.916  0.3278  0.0977  0.3392
 7621TIP3    H144278   6.785   6.752   3.913 -0.7916  1.8958 -1.2746
 7621TIP3    H244279   6.691   6.672   3.826 -1.5104  0.9978  0.2774
 7622TIP3   OH244280   6.626   4.078  11.966 -0.1599  0.2581  0.6379
 7622TIP3    H144281   6.540   4.101  11.931 -0.3600  0.1782  1.0758
 7622TIP3    H244282   6.685   4.084  11.890 -0.7627 -0.9384  0.0362
 7623TIP3   OH244283   4.254   0.323   5.806 -0.4137 -0.2720  0.1542
 7623TIP3    H144284   4.182   0.265   5.831 -0.5166 -0.9113 -1.4730
 7623TIP3    H244285   4.265   0.308   5.712 -0.5334  2.4622 -0.3788
 7624TIP3   OH244286   6.323   0.755   4.299 -0.2304 -0.6001  0.1338
 7624TIP3    H144287   6.395   0.729   4.357 -0.2701  0.9773  0.9637
 7624TIP3    H244288   6.314   0.683   4.237  0.2676 -2.0416  1.6783
 7625TIP3   OH244289   1.840   6.702  13.762 -0.4738  0.6308 -0.1166
 7625TIP3    H144290   1.807   6.776  13.710  1.7810  0.8874 -1.2957
 7625TIP3    H244291   1.874   6.742  13.842 -0.0097  0.7833 -0.3867
 7626TIP3   OH244292   2.164   5.971   4.656 -0.0645  0.3638  0.4929
 7626TIP3    H144293   2.107   5.897   4.634  0.7968 -1.2630  3.2932
 7626TIP3    H244294   2.116   6.048   4.626 -1.4013 -1.2101 -1.7478
 7627TIP3   OH244295   0.775   5.710   4.819  0.1611 -0.4470 -0.0623
 7627TIP3    H144296   0.840   5.764   4.775 -0.2839 -0.3596 -0.6233
 7627TIP3    H244297   0.798   5.620   4.794 -0.2053 -0.3855 -0.6476
 7628TIP3   OH244298   3.556   3.810   2.512 -0.0648  0.3315 -0.3790
 7628TIP3    H144299   3.651   3.814   2.500  0.3706  0.0570  2.3780
 7628TIP3    H244300   3.524   3.896   2.484  0.9378  0.3193 -1.6055
 7629TIP3   OH244301   2.162   5.885   1.439  0.0697 -1.0836 -0.0583
 7629TIP3    H144302   2.083   5.895   1.493  0.7487  0.2537  0.7553
 7629TIP3    H244303   2.148   5.804   1.390 -2.4603 -0.1601 -1.0359
 7630TIP3   OH244304   3.596   3.643   1.417 -0.0101 -0.2980 -0.3363
 7630TIP3    H144305   3.655   3.683   1.353 -1.3535  1.3119 -0.6366
 7630TIP3    H244306   3.515   3.627   1.369 -0.9304  0.6111  0.8455
 7631TIP3   OH244307   2.686   5.615   4.175  0.3413 -0.3895  1.2227
 7631TIP3    H144308   2.603   5.610   4.222 -0.0292  0.8070  0.7376
 7631TIP3    H244309   2.686   5.703   4.135  0.9091 -1.1137 -0.4852
 7632TIP3   OH244310   3.742   4.322   3.310 -0.3586 -0.2275  0.0563
 7632TIP3    H144311   3.690   4.330   3.390 -0.6360  2.2165 -0.2810
 7632TIP3    H244312   3.684   4.279   3.247 -0.6222 -0.9183  0.7626
 7633TIP3   OH244313   1.497   3.163   0.910 -0.2929  0.1268  0.0075
 7633TIP3    H144314   1.532   3.250   0.887  1.1224 -0.6588 -1.0074
 7633TIP3    H244315   1.406   3.179   0.933 -0.3155  1.7690 -1.0466
 7634TIP3   OH244316   2.156   2.531  12.873 -0.8742 -0.6670  0.4078
 7634TIP3    H144317   2.122   2.620  12.861 -0.7860 -0.9192 -2.7969
 7634TIP3    H244318   2.249   2.543  12.887 -0.3608 -0.1624 -2.5861
 7635TIP3   OH244319   3.261   2.500  11.435 -0.0081 -0.0006  0.1213
 7635TIP3    H144320   3.249   2.579  11.487 -1.4712  1.1328 -1.7949
 7635TIP3    H244321   3.176   2.485  11.394  0.3431 -2.3856  0.1317
 7636TIP3   OH244322   2.418   3.278  15.599 -0.0754 -0.2385 -0.0507
 7636TIP3    H144323   2.391   3.230  15.521  2.3618 -1.0786 -0.4798
 7636TIP3    H244324   2.416   3.370  15.573 -0.5103 -0.4205 -0.6710
 7637TIP3   OH244325   5.696   1.370  14.138  0.1695 -0.6394 -0.0297
 7637TIP3    H144326   5.635   1.415  14.079 -1.7427 -1.4730  1.2218
 7637TIP3    H244327   5.780   1.373  14.092 -0.7543  0.6874 -1.7599
 7638TIP3   OH244328   3.781   4.388  14.138  0.1268  0.5561 -0.1296
 7638TIP3    H144329   3.856   4.367  14.082  0.3412  1.4175 -0.1848
 7638TIP3    H244330   3.819   4.428  14.216 -0.1407 -1.0579  0.8771
 7639TIP3   OH244331   1.529   2.692  16.497 -0.3371 -0.3197 -0.2270
 7639TIP3    H144332   1.493   2.780  16.509  1.0513  0.4173 -1.2404
 7639TIP3    H244333   1.467   2.635  16.542 -1.7298  1.0847 -0.2852
 7640TIP3   OH244334   6.375   3.596  13.081  0.8404 -0.1510  0.1468
 7640TIP3    H144335   6.366   3.597  13.177 -0.0864  2.3669  0.1137
 7640TIP3    H244336   6.285   3.597  13.049  1.1427 -1.3088 -0.7978
 7641TIP3   OH244337   3.734   5.366   1.251  0.1076 -0.0792  0.2820
 7641TIP3    H144338   3.791   5.360   1.175  0.2075  0.4347  0.3148
 7641TIP3    H244339   3.729   5.459   1.271  0.4434 -0.2369  1.1719
 7642TIP3   OH244340   2.008   0.731   5.900 -0.2107  0.2431 -0.1814
 7642TIP3    H144341   2.060   0.789   5.845 -0.5096  1.7036  0.9955
 7642TIP3    H244342   2.043   0.644   5.883  1.9103  1.0440 -0.2406
 7643TIP3   OH244343   3.282   3.659  17.100 -0.4295 -0.0373  0.2936
 7643TIP3    H144344   3.320   3.580  17.061  0.0316 -0.6471  1.8777
 7643TIP3    H244345   3.282   3.723  17.029 -0.5583 -1.3669 -0.9562
 7644TIP3   OH244346   2.907   3.627  16.025 -0.0424 -0.8424  0.2622
 7644TIP3    H144347   2.915   3.679  15.945 -0.5381  0.3870  0.9865
 7644TIP3    H244348   2.840   3.671  16.077  0.4290 -1.4807  1.4669
 7645TIP3   OH244349   2.997   5.867  16.848  0.0361 -0.6474  0.2097
 7645TIP3    H144350   3.072   5.899  16.798 -0.0181  0.4697  0.8089
 7645TIP3    H244351   2.958   5.946  16.886 -1.7463 -1.1223 -0.4828
 7646TIP3   OH244352   4.632   4.305  16.834  0.7817 -0.0425  0.6435
 7646TIP3    H144353   4.585   4.384  16.862 -2.1447 -0.3087 -2.8055
 7646TIP3    H244354   4.721   4.335  16.816  0.6169  1.6944  2.4140
 7647TIP3   OH244355   4.008   6.472   1.123  0.1657  0.1165  0.0842
 7647TIP3    H144356   3.927   6.481   1.073  0.0516  0.2527  0.2920
 7647TIP3    H244357   4.057   6.403   1.077 -0.6665 -0.9455  0.7496
 7648TIP3   OH244358   0.403   4.341  14.983 -0.4768 -0.2914  0.0017
 7648TIP3    H144359   0.477   4.328  15.043 -0.1047  1.5671 -0.0017
 7648TIP3    H244360   0.417   4.277  14.914  1.3209  0.2083 -0.1507
 7649TIP3   OH244361   6.401   5.897  12.871  0.3384 -0.5742  0.0042
 7649TIP3    H144362   6.366   5.808  12.874 -0.8376 -0.2181 -1.7317
 7649TIP3    H244363   6.324   5.952  12.859  1.2896  0.4204 -1.8400
 7650TIP3   OH244364   6.519   5.629  14.040  0.6920 -0.1592  0.1589
 7650TIP3    H144365   6.498   5.710  14.086  0.1627 -1.0053  1.4769
 7650TIP3    H244366   6.553   5.571  14.109 -1.6716 -2.0396 -0.1494
 7651TIP3   OH244367   0.920   6.505  14.892  0.1459 -0.6697 -0.0183
 7651TIP3    H144368   0.924   6.553  14.809 -1.7761 -1.2048 -0.4457
 7651TIP3    H244369   1.012   6.499  14.920  0.8857 -0.9272 -2.3389
 7652TIP3   OH244370   1.671   4.798   1.589 -0.0670 -0.2639  0.4445
 7652TIP3    H144371   1.720   4.814   1.508 -0.2461  0.9996  0.5546
 7652TIP3    H244372   1.580   4.790   1.561 -0.2273  0.9038  0.5614
 7653TIP3   OH244373   2.467   1.095  12.178 -0.3946 -0.0185  0.7562
 7653TIP3    H144374   2.542   1.149  12.201 -0.5189  0.8228 -0.6677
 7653TIP3    H244375   2.494   1.006  12.202  0.5043  0.4405  1.5251
 7654TIP3   OH244376   3.743   0.191   5.032  0.4584 -0.0110  0.3866
 7654TIP3    H144377   3.649   0.178   5.034  0.3534  0.2573 -1.2530
 7654TIP3    H244378   3.767   0.176   4.940  1.9195  0.4988  0.6582
 7655TIP3   OH244379   3.279   6.399  11.949  0.0837 -0.2479 -0.2949
 7655TIP3    H144380   3.255   6.308  11.967  1.1707 -0.7312 -1.1549
 7655TIP3    H244381   3.270   6.407  11.854  0.3250  0.4525 -0.2642
 7656TIP3   OH244382   6.096   6.596   1.226 -0.9595 -0.4894  0.3470
 7656TIP3    H144383   6.191   6.596   1.219 -0.7037 -0.3895  2.9075
 7656TIP3    H244384   6.076   6.671   1.282 -2.4346 -1.1135  0.7090
 7657TIP3   OH244385   5.477   5.762   3.048  0.1825 -0.2419 -0.4057
 7657TIP3    H144386   5.429   5.705   2.988 -0.0563 -0.7300  0.2402
 7657TIP3    H244387   5.549   5.707   3.080  1.7574  0.7397 -2.0487
 7658TIP3   OH244388   0.635   3.174   0.001  0.0421  0.0800 -0.0914
 7658TIP3    H144389   0.709   3.202   0.055 -0.5249  0.8289  0.3133
 7658TIP3    H244390   0.646   3.222  -0.081 -0.4119  0.7690  0.2513
 7659TIP3   OH244391   2.187   1.059   4.290 -0.6174 -0.1820 -0.0665
 7659TIP3    H144392   2.268   1.036   4.335  0.6957  2.2329 -1.0454
 7659TIP3    H244393   2.137   0.977   4.288  0.5430 -1.1078  3.0032
 7660TIP3   OH244394   3.113   2.626  12.279 -0.4778  0.0519 -0.6241
 7660TIP3    H144395   3.130   2.536  12.254 -0.8992 -0.1106 -0.3392
 7660TIP3    H244396   3.017   2.633  12.281 -0.4899  0.9194 -2.1515
 7661TIP3   OH244397   6.427   1.196  13.901  0.3603 -0.7174  0.5878
 7661TIP3    H144398   6.459   1.132  13.965 -0.7757 -1.1935  0.7022
 7661TIP3    H244399   6.339   1.166  13.879  0.2662  0.1409 -0.2731
 7662TIP3   OH244400   1.632   3.990   1.427  0.1225  1.1654  0.2345
 7662TIP3    H144401   1.615   3.949   1.512 -0.0186  1.1197  0.1840
 7662TIP3    H244402   1.561   4.052   1.415 -0.4498  0.4237 -0.3278
 7663TIP3   OH244403   3.908   3.280  11.326  0.4907 -0.8951 -0.2990
 7663TIP3    H144404   3.947   3.224  11.258  1.4362 -1.2188  0.4868
 7663TIP3    H244405   3.863   3.219  11.384  0.7806 -0.7508  0.0763
 7664TIP3   OH244406   6.411   3.248   4.687 -0.1821 -0.8007  0.3919
 7664TIP3    H144407   6.473   3.320   4.677 -1.7650  0.5052 -0.5790
 7664TIP3    H244408   6.445   3.179   4.631  1.8001 -1.1714  1.9711
 7665TIP3   OH244409   6.072   3.387  16.072  0.0024 -1.1148  0.3199
 7665TIP3    H144410   6.108   3.475  16.061  0.0818 -1.4043 -2.6722
 7665TIP3    H244411   5.977   3.400  16.075  0.0395 -0.8847  0.4918
 7666TIP3   OH244412   5.989   1.862   1.172  0.8159  0.0393 -0.0815
 7666TIP3    H144413   6.063   1.818   1.131  0.4632 -1.2065  0.5518
 7666TIP3    H244414   6.006   1.854   1.266 -0.5355 -1.0716  0.1046
 7667TIP3   OH244415   4.967   3.047   1.175  0.4225  0.0687  0.0177
 7667TIP3    H144416   4.941   2.971   1.227 -0.1443 -0.4288 -0.9692
 7667TIP3    H244417   4.999   3.110   1.239 -0.2430 -0.5330  0.9621
 7668TIP3   OH244418   3.363   4.194   5.456 -0.3924  0.1215 -0.4208
 7668TIP3    H144419   3.303   4.128   5.489  0.9754 -0.3844  1.1783
 7668TIP3    H244420   3.336   4.275   5.500  0.1608 -0.1311  0.3955
 7669TIP3   OH244421   4.088   3.887  11.719 -0.3201 -0.0298  0.4790
 7669TIP3    H144422   4.026   3.951  11.683 -0.1805 -0.5471 -0.7341
 7669TIP3    H244423   4.037   3.835  11.780 -1.2730 -0.8313 -0.9336
 7670TIP3   OH244424   3.015   6.723   1.329 -0.2380 -0.0457 -0.2160
 7670TIP3    H144425   2.946   6.789   1.319 -0.7979 -0.5922 -0.0470
 7670TIP3    H244426   2.970   6.640   1.317  0.5128 -0.3954 -0.7266
 7671TIP3   OH244427   3.227   3.819  13.272  0.6577 -0.0871 -0.2605
 7671TIP3    H144428   3.224   3.915  13.274 -2.0303 -0.1235  1.7094
 7671TIP3    H244429   3.184   3.795  13.190 -2.1177  0.4325  0.9523
 7672TIP3   OH244430   1.755   4.490   1.983  0.0965 -0.0008 -0.7328
 7672TIP3    H144431   1.808   4.470   2.060 -0.6723  0.9536  0.0686
 7672TIP3    H244432   1.816   4.528   1.920  0.2680  1.8666  0.4812
 7673TIP3   OH244433   1.740   3.895  16.494 -0.2301  0.5877 -0.6040
 7673TIP3    H144434   1.762   3.936  16.411 -1.8386 -0.1884 -1.4580
 7673TIP3    H244435   1.652   3.926  16.514  0.3451  1.2184  1.1325
 7674TIP3   OH244436   4.705   4.262  12.436 -0.3276 -0.5618  0.4354
 7674TIP3    H144437   4.738   4.177  12.409 -1.6514 -0.5441 -1.3603
 7674TIP3    H244438   4.779   4.322  12.422 -0.1116 -1.0359 -0.4673
 7675TIP3   OH244439   3.827   1.226  15.880 -0.1957  0.2880  0.5948
 7675TIP3    H144440   3.881   1.222  15.802  1.0965 -1.8718  1.5108
 7675TIP3    H244441   3.737   1.223  15.848  0.0851  3.7604 -0.9535
 7676TIP3   OH244442   6.667   2.217  15.171 -0.0145 -0.1380  0.2874
 7676TIP3    H144443   6.602   2.283  15.194 -0.7214 -0.7969  0.2526
 7676TIP3    H244444   6.630   2.173  15.094  0.9732  0.1673 -0.3714
 7677TIP3   OH244445   2.667   1.161   0.463  0.1061 -0.4294 -0.3300
 7677TIP3    H144446   2.693   1.231   0.522  1.2366  0.0771 -1.3853
 7677TIP3    H244447   2.574   1.177   0.446  0.4256  1.0619 -0.8366
 7678TIP3   OH244448   1.073   5.186   2.813  0.1845  0.1199  0.0749
 7678TIP3    H144449   1.010   5.238   2.764  0.6767  1.1024  0.4563
 7678TIP3    H244450   1.158   5.205   2.771  0.2490 -1.1469 -0.4048
 7679TIP3   OH244451   3.973   1.181  13.665  0.1905  0.2888 -0.0181
 7679TIP3    H144452   3.903   1.208  13.724 -0.7158  1.2484 -1.4701
 7679TIP3    H244453   4.044   1.244  13.682  0.1905  0.1531  0.5004
 7680TIP3   OH244454   1.358   6.009   4.062 -0.2717 -0.2561 -0.2184
 7680TIP3    H144455   1.371   5.974   3.973  1.1008 -1.6729  0.4869
 7680TIP3    H244456   1.311   6.091   4.049 -0.9853 -0.9085 -2.1878
 7681TIP3   OH244457   1.190   1.949  12.057  0.0000 -0.0998  0.5769
 7681TIP3    H144458   1.280   1.963  12.087  1.6544 -1.0510 -3.3619
 7681TIP3    H244459   1.146   2.033  12.070  1.5606  0.5279  2.1442
 7682TIP3   OH244460   4.997   4.009   0.758 -0.7027 -0.1502 -0.4015
 7682TIP3    H144461   4.920   3.992   0.704 -1.3151 -0.1987  0.4673
 7682TIP3    H244462   4.993   3.943   0.827 -0.4496  0.4991  0.2478
 7683TIP3   OH244463   1.118   4.075   2.438 -0.3073 -0.2567 -0.6489
 7683TIP3    H144464   1.080   4.142   2.381 -0.8359  0.8435  0.9452
 7683TIP3    H244465   1.057   4.001   2.432 -1.0072  0.3042 -0.5605
 7684TIP3   OH244466   5.557   3.051   0.715  0.0447  0.0559  0.4229
 7684TIP3    H144467   5.473   3.052   0.760  0.5517  0.0417  1.4055
 7684TIP3    H244468   5.616   3.101   0.772  1.2118 -1.6649  0.8152
 7685TIP3   OH244469   4.781   4.541   3.820 -0.0025  0.2055 -0.2296
 7685TIP3    H144470   4.750   4.526   3.731  0.4711  0.1278 -0.3869
 7685TIP3    H244471   4.702   4.562   3.870 -0.0825  2.0478 -1.0396
 7686TIP3   OH244472   0.797   6.307  13.688 -0.5576  0.1227 -0.5627
 7686TIP3    H144473   0.885   6.281  13.663 -0.5711 -2.0079  1.2778
 7686TIP3    H244474   0.740   6.246  13.641 -0.9190  0.1177 -0.1282
 7687TIP3   OH244475   1.146   6.061  15.031  0.0318  0.7754 -0.0561
 7687TIP3    H144476   1.114   6.000  15.098  1.1190  1.2158  0.8871
 7687TIP3    H244477   1.134   6.014  14.949 -1.9119  0.4666  0.3595
 7688TIP3   OH244478   3.300   5.412  11.482 -0.6458 -0.0781  0.7229
 7688TIP3    H144479   3.229   5.476  11.484 -0.4677  0.1804 -0.3102
 7688TIP3    H244480   3.343   5.427  11.397 -0.3699 -1.3092  0.6204
 7689TIP3   OH244481   2.802   2.521  14.818 -0.0709  0.1167 -0.0606
 7689TIP3    H144482   2.737   2.571  14.770  1.0202  0.2919 -1.4180
 7689TIP3    H244483   2.813   2.568  14.901 -1.5647  0.1316  0.1507
 7690TIP3   OH244484   1.182   1.003  16.201 -0.1364 -0.4263 -0.1819
 7690TIP3    H144485   1.170   0.909  16.193 -0.1118 -0.4716  0.2827
 7690TIP3    H244486   1.237   1.027  16.126  0.4482 -0.8918  0.0822
 7691TIP3   OH244487   2.569   5.135  11.398 -0.1861  0.7116 -0.1369
 7691TIP3    H144488   2.510   5.156  11.325  1.2561  1.4263 -1.1581
 7691TIP3    H244489   2.563   5.211  11.456  1.3517  1.8537 -1.3739
 7692TIP3   OH244490   3.510   4.376  11.525  0.1353  0.6152 -0.3011
 7692TIP3    H144491   3.455   4.308  11.565  1.1636 -0.9528 -1.4347
 7692TIP3    H244492   3.586   4.382  11.583 -0.0978  1.0427 -0.0340
 7693TIP3   OH244493   5.526   4.048  13.366  0.3002  0.4860 -0.4892
 7693TIP3    H144494   5.474   4.040  13.446 -1.5368  3.0123 -1.2953
 7693TIP3    H244495   5.461   4.057  13.296  1.7359  3.3005 -1.6168
 7694TIP3   OH244496   1.712   2.616  11.201  0.0832 -0.3180 -0.1581
 7694TIP3    H144497   1.727   2.649  11.113  0.6866  0.8397  0.3543
 7694TIP3    H244498   1.738   2.688  11.259  1.7498 -1.7965  1.0375
 7695TIP3   OH244499   4.182   2.288  14.785  0.0867  0.4034 -0.3776
 7695TIP3    H144500   4.136   2.212  14.748  1.3447 -1.2265  1.2446
 7695TIP3    H244501   4.272   2.279  14.754 -0.1043  2.3020 -1.6505
 7696TIP3   OH244502   4.679   5.562   2.447 -0.0414 -0.1225 -0.2456
 7696TIP3    H144503   4.707   5.476   2.478  0.6980  0.4832  0.8232
 7696TIP3    H244504   4.598   5.545   2.399  1.3535 -1.7594 -2.2083
 7697TIP3   OH244505   5.724   2.921   1.025  0.3734  0.0492  0.2692
 7697TIP3    H144506   5.680   2.839   1.001 -1.1026  1.2845 -1.5549
 7697TIP3    H244507   5.652   2.981   1.043  1.4450  0.8588  1.9723
 7698TIP3   OH244508   2.437   1.407   3.975 -0.2625 -0.4506 -0.4166
 7698TIP3    H144509   2.501   1.365   3.918 -0.1207 -1.4145  0.4343
 7698TIP3    H244510   2.390   1.335   4.016 -0.5100  0.2181  0.5088
 7699TIP3   OH244511   1.560   5.845  16.392 -0.3843  0.0327  0.3604
 7699TIP3    H144512   1.652   5.857  16.417 -0.5234 -0.5293  1.1996
 7699TIP3    H244513   1.514   5.838  16.476 -1.3619  1.4476 -0.0082
 7700TIP3   OH244514   6.289   4.574  13.845  0.3969 -0.1931  0.3938
 7700TIP3    H144515   6.307   4.528  13.763  0.7413 -1.3982  1.1202
 7700TIP3    H244516   6.375   4.594  13.881  0.2468  0.4421  0.4137
 7701TIP3   OH244517   3.987   0.861   0.534 -0.0426 -0.1540  0.2304
 7701TIP3    H144518   3.979   0.771   0.564 -0.5014 -0.2560 -0.1805
 7701TIP3    H244519   3.904   0.902   0.559  0.0771  0.0946  0.2254
 7702TIP3   OH244520   0.612   6.538  15.808 -0.5355 -0.0453 -0.2438
 7702TIP3    H144521   0.659   6.510  15.729 -0.2737 -0.4809  0.0689
 7702TIP3    H244522   0.614   6.463  15.866 -0.6308  0.3148  0.2306
 7703TIP3   OH244523   1.300   1.740  11.806  0.2964  0.2268 -0.1888
 7703TIP3    H144524   1.284   1.710  11.895 -0.0089  0.8691 -0.0230
 7703TIP3    H244525   1.346   1.823  11.816  1.6411 -0.4165 -0.6443
 7704TIP3   OH244526   2.830   0.504  13.776  0.3335 -0.1122 -1.2251
 7704TIP3    H144527   2.901   0.531  13.718  0.8127 -0.2073 -0.6840
 7704TIP3    H244528   2.791   0.429  13.731  1.7939 -1.2806 -0.6322
 7705TIP3   OH244529   4.750   3.129   0.728  0.3006 -0.0357  0.1730
 7705TIP3    H144530   4.753   3.057   0.666 -2.4257  0.2109 -0.4000
 7705TIP3    H244531   4.813   3.193   0.695 -0.6661 -0.1625 -2.0479
 7706TIP3   OH244532   3.427   6.144  15.496  0.0100 -0.5212 -0.0461
 7706TIP3    H144533   3.456   6.104  15.578 -0.1671 -0.6705 -0.0559
 7706TIP3    H244534   3.411   6.235  15.519 -2.1348 -1.0149  0.6107
 7707TIP3   OH244535   2.209   5.792   6.359 -0.1261  0.1228  0.1704
 7707TIP3    H144536   2.260   5.842   6.423 -0.1936 -1.6523  1.6812
 7707TIP3    H244537   2.270   5.778   6.286  0.1536  1.6356  0.0687
 7708TIP3   OH244538   0.910   3.266  16.251  0.9814  0.8056 -0.4628
 7708TIP3    H144539   0.935   3.207  16.180  3.3451  2.5365 -1.2053
 7708TIP3    H244540   0.956   3.233  16.327 -0.1412 -0.0218 -0.1179
 7709TIP3   OH244541   2.289   6.752  15.622 -0.3581  0.0185  0.4556
 7709TIP3    H144542   2.305   6.809  15.698  0.0201  0.1375  0.2859
 7709TIP3    H244543   2.193   6.743  15.620 -0.3140 -1.0252  1.7106
 7710TIP3   OH244544   4.753   1.818   0.398  0.1368  0.4759 -0.5736
 7710TIP3    H144545   4.722   1.887   0.456  2.9490  1.1593  0.3054
 7710TIP3    H244546   4.771   1.744   0.455  1.6379  0.6911 -0.7244
 7711TIP3   OH244547   4.972   0.884  13.252 -0.4172 -0.5298 -0.1764
 7711TIP3    H144548   4.994   0.963  13.203 -1.8561  1.6163  2.3926
 7711TIP3    H244549   5.053   0.834  13.254  0.7677  1.2150 -1.2506
 7712TIP3   OH244550   2.199   3.012   2.462 -0.2714  0.6642  0.0382
 7712TIP3    H144551   2.249   2.987   2.540  0.2288  0.0763 -0.4546
 7712TIP3    H244552   2.220   2.944   2.398 -1.6899  0.4212 -0.1936
 7713TIP3   OH244553   0.432   3.396   5.035 -0.1482  0.2327  0.0331
 7713TIP3    H144554   0.481   3.469   5.000 -0.8299  0.2275 -0.9849
 7713TIP3    H244555   0.442   3.403   5.130  0.2862  1.2837 -0.0799
 7714TIP3   OH244556   4.677   1.791   5.580 -0.1048 -0.3068 -0.0928
 7714TIP3    H144557   4.610   1.859   5.573  0.5832  0.4137  0.2539
 7714TIP3    H244558   4.656   1.731   5.508 -0.0285  0.8952 -1.1621
 7715TIP3   OH244559   2.774   3.105   1.747  0.4333  0.4370  0.1830
 7715TIP3    H144560   2.819   3.173   1.695 -0.5699  1.0603  0.0995
 7715TIP3    H244561   2.836   3.083   1.816  2.0549 -0.8154 -1.5495
 7716TIP3   OH244562   2.746   0.842   5.437 -0.5067 -0.2961  0.1410
 7716TIP3    H144563   2.795   0.919   5.463 -1.6430 -0.1077  1.8269
 7716TIP3    H244564   2.660   0.875   5.413 -1.2627 -1.1037  1.6587
 7717TIP3   OH244565   4.443   2.105   3.452 -0.1390  0.3129 -0.1298
 7717TIP3    H144566   4.505   2.163   3.497  1.5761 -0.4892 -1.3694
 7717TIP3    H244567   4.495   2.062   3.384 -1.4487 -2.3536  0.4383
 7718TIP3   OH244568   6.448   5.329  13.905 -0.6402 -0.6296 -0.0009
 7718TIP3    H144569   6.369   5.379  13.883  0.2360  0.2921 -1.1884
 7718TIP3    H244570   6.515   5.362  13.845  1.5682  0.9747  3.1021
 7719TIP3   OH244571   3.713   5.139  11.485 -0.1544  0.7604 -0.4905
 7719TIP3    H144572   3.634   5.120  11.435  1.1808 -1.2631 -1.9705
 7719TIP3    H244573   3.763   5.199  11.429 -0.1898  1.2397 -0.0152
 7720TIP3   OH244574   4.551   3.760   6.663  0.4266 -0.5022 -0.0454
 7720TIP3    H144575   4.514   3.841   6.698  2.1438 -0.2978  1.4597
 7720TIP3    H244576   4.646   3.772   6.669  0.8626 -1.0058 -3.7406
 7721TIP3   OH244577   1.009   5.918  11.407 -0.3871 -0.4238  0.6337
 7721TIP3    H144578   0.999   6.011  11.388  0.6005 -0.4386 -0.0344
 7721TIP3    H244579   1.084   5.914  11.467 -2.0934 -0.5772  2.8954
 7722TIP3   OH244580   2.959   3.635   1.235 -0.1000 -0.1369 -0.2004
 7722TIP3    H144581   2.947   3.714   1.183 -3.1272  0.1624  0.7477
 7722TIP3    H244582   3.028   3.658   1.298 -0.0383  1.3018 -0.7543
 7723TIP3   OH244583   3.428   2.348   0.994 -1.0375 -0.8178  0.4292
 7723TIP3    H144584   3.495   2.302   0.943 -0.3803 -0.3744  0.8734
 7723TIP3    H244585   3.449   2.327   1.085 -0.2231  0.9646  0.7067
 7724TIP3   OH244586   0.794   0.950  11.705 -0.1139  0.2298 -0.3482
 7724TIP3    H144587   0.734   0.911  11.768  1.0704 -0.2243  0.5422
 7724TIP3    H244588   0.873   0.969  11.756  1.0232 -0.4912 -1.7668
 7725TIP3   OH244589   1.553   6.064  14.529 -0.1819  0.2018  0.5213
 7725TIP3    H144590   1.623   6.126  14.509 -0.2266  0.2938  0.6537
 7725TIP3    H244591   1.577   5.985  14.479 -1.0280  0.8884 -1.0171
 7726TIP3   OH244592   1.396   0.520   0.261  0.0424 -0.2483 -0.2673
 7726TIP3    H144593   1.486   0.495   0.280  0.6609  2.0494  0.1867
 7726TIP3    H244594   1.343   0.453   0.303  1.4581 -3.1117 -2.6937
 7727TIP3   OH244595   4.487   5.285  13.991  0.3464 -0.1348  0.4281
 7727TIP3    H144596   4.498   5.213  14.054  0.4524 -1.0101 -0.5607
 7727TIP3    H244597   4.575   5.318  13.977  0.4667 -0.6659 -0.0854
 7728TIP3   OH244598   4.314   5.677  12.928  0.5571  0.1603  0.0118
 7728TIP3    H144599   4.323   5.660  12.834 -0.6577 -0.9304  0.0640
 7728TIP3    H244600   4.367   5.609  12.969 -0.9582 -1.0056  0.1353
 7729TIP3   OH244601   5.145   0.672   2.839 -0.1419 -0.4155  0.0033
 7729TIP3    H144602   5.240   0.664   2.831  0.0100 -0.3048  1.3749
 7729TIP3    H244603   5.131   0.692   2.932 -1.3721  1.3988 -0.5233
 7730TIP3   OH244604   5.304   0.687   3.307 -0.8120  0.1283  0.0646
 7730TIP3    H144605   5.366   0.625   3.269 -1.0498  0.2077 -0.4671
 7730TIP3    H244606   5.222   0.670   3.260 -0.7709  1.1346 -0.4017
 7731TIP3   OH244607   1.073   6.764   3.840 -0.0948  1.1143 -0.0003
 7731TIP3    H144608   1.005   6.754   3.907  0.3327 -0.3752  0.2575
 7731TIP3    H244609   1.142   6.815   3.882  0.3965 -0.2322  0.9189
 7732TIP3   OH244610   0.106   6.655   5.249  0.2816  0.2020  0.4771
 7732TIP3    H144611   0.031   6.620   5.202  0.7242 -1.3100  0.8600
 7732TIP3    H244612   0.182   6.619   5.204  0.7648  0.7478  0.8287
 7733TIP3   OH244613   0.474   5.058  14.439 -0.3796  0.1040  0.2420
 7733TIP3    H144614   0.479   4.964  14.423 -1.9869 -0.0758  0.5688
 7733TIP3    H244615   0.482   5.067  14.534 -0.4777  0.2769  0.2343
 7734TIP3   OH244616   5.368   2.594  13.653 -0.3620 -0.6008 -0.1030
 7734TIP3    H144617   5.281   2.597  13.613 -0.4610  2.5117  0.1362
 7734TIP3    H244618   5.351   2.598  13.747  0.0056  0.6329 -0.0701
 7735TIP3   OH244619   1.542   2.996   3.761 -0.1747  0.0308  0.7811
 7735TIP3    H144620   1.601   3.036   3.825  0.3919 -0.4092  0.5469
 7735TIP3    H244621   1.507   2.919   3.807 -1.7002  1.0698  1.4340
 7736TIP3   OH244622   1.092   2.039   2.339  0.0911  0.4597  0.2823
 7736TIP3    H144623   1.143   1.979   2.393  1.1358  0.9497 -0.1422
 7736TIP3    H244624   1.045   2.094   2.401  1.1866  0.9359  0.6965
 7737TIP3   OH244625   3.558   3.819  15.347  0.4527 -0.2369  0.0330
 7737TIP3    H144626   3.600   3.735  15.334  0.9244 -0.3854  2.2229
 7737TIP3    H244627   3.471   3.798  15.382  0.3357  0.1690 -0.0025
 7738TIP3   OH244628   4.846   1.834   4.257 -0.4040  0.2846 -0.4058
 7738TIP3    H144629   4.848   1.856   4.351 -1.1736 -0.7041 -0.1367
 7738TIP3    H244630   4.896   1.904   4.215 -1.8207  1.9410  0.5105
 7739TIP3   OH244631   4.313   5.462  14.225  0.5141 -0.2145 -0.6837
 7739TIP3    H144632   4.294   5.384  14.276  0.8437 -1.1429 -1.9189
 7739TIP3    H244633   4.227   5.496  14.199  0.3858 -1.4106 -1.9172
 7740TIP3   OH244634   2.979   4.850   3.182 -0.5430 -0.6312 -0.4517
 7740TIP3    H144635   3.001   4.883   3.269 -3.9175 -0.2124  0.3677
 7740TIP3    H244636   3.045   4.888   3.124  2.3829 -1.6725  1.9588
 7741TIP3   OH244637   5.969   5.106   2.087  0.2409  0.4696 -0.3243
 7741TIP3    H144638   5.929   5.192   2.103 -0.1265  0.2969 -0.3029
 7741TIP3    H244639   6.046   5.126   2.034  0.5574  0.8821  0.2739
 7742TIP3   OH244640   5.662   4.751   2.669 -0.3246  0.3742 -0.5411
 7742TIP3    H144641   5.750   4.784   2.687 -0.8903  0.5722  2.2385
 7742TIP3    H244642   5.676   4.660   2.643  0.8116  1.0478 -2.5396
 7743TIP3   OH244643   1.569   1.831   4.252  0.4416 -0.4062 -0.0583
 7743TIP3    H144644   1.661   1.834   4.229  0.7369 -0.4179  1.0756
 7743TIP3    H244645   1.564   1.871   4.339 -0.7387  0.3627 -0.4451
 7744TIP3   OH244646   4.904   4.242   4.722 -0.2660  0.2078 -0.1497
 7744TIP3    H144647   4.922   4.324   4.767 -2.5425  0.8077 -0.2497
 7744TIP3    H244648   4.989   4.196   4.722  0.8673  2.1897  0.5733
 7745TIP3   OH244649   2.546   2.875   4.268  0.2559  0.2807  0.4392
 7745TIP3    H144650   2.553   2.791   4.223 -0.6408  0.3731  0.1108
 7745TIP3    H244651   2.636   2.906   4.276  0.4299  0.5623 -1.8770
 7746TIP3   OH244652   3.250   3.046   4.656  0.6758 -0.3659 -0.1151
 7746TIP3    H144653   3.334   3.003   4.667  0.9156  0.0669 -0.2408
 7746TIP3    H244654   3.271   3.139   4.648  0.3624 -0.4279 -2.1604
 7747TIP3   OH244655   1.061   6.523  12.278 -0.3972 -0.0216 -0.0915
 7747TIP3    H144656   1.152   6.538  12.303  0.0477  0.1789 -1.7168
 7747TIP3    H244657   1.009   6.572  12.342  0.6561  0.4445  0.4212
 7748TIP3   OH244658   6.520   3.756  13.299  0.6242  0.7566 -0.2120
 7748TIP3    H144659   6.486   3.686  13.355  1.2386  0.8627  0.3084
 7748TIP3    H244660   6.585   3.801  13.354  0.0395  1.9170 -0.4422
 7749TIP3   OH244661   2.792   5.689   1.764 -0.0202  0.1789 -0.3082
 7749TIP3    H144662   2.881   5.724   1.761  0.6824 -1.4692  0.0772
 7749TIP3    H244663   2.751   5.721   1.684 -0.4477  4.2549  1.2881
 7750TIP3   OH244664   0.821   0.689  16.106 -0.2769  0.0238  0.1892
 7750TIP3    H144665   0.740   0.726  16.071 -0.8176 -0.2344  1.1216
 7750TIP3    H244666   0.833   0.735  16.190  2.1970  2.3057 -1.2408
 7751TIP3   OH244667   2.596   2.211   5.299 -0.4069 -0.1805  0.1313
 7751TIP3    H144668   2.609   2.253   5.384 -0.6863 -0.7701  0.4739
 7751TIP3    H244669   2.683   2.182   5.273 -0.2807  0.2282  0.0988
 7752TIP3   OH244670   5.027   1.167   5.398 -0.5915 -0.6883  0.5564
 7752TIP3    H144671   5.086   1.109   5.446 -0.7212 -0.7827  0.6046
 7752TIP3    H244672   4.948   1.170   5.453 -0.5017 -0.2920  0.6648
 7753TIP3   OH244673   5.369   5.090   2.325  0.1062  0.6928  0.1878
 7753TIP3    H144674   5.374   5.075   2.420 -0.7953 -0.9693  0.0085
 7753TIP3    H244675   5.283   5.131   2.312  0.1177  0.6750  0.0554
 7754TIP3   OH244676   1.310   0.590   3.555  0.5418 -0.3090  0.2371
 7754TIP3    H144677   1.232   0.617   3.507 -0.1679 -1.3954  0.7219
 7754TIP3    H244678   1.366   0.550   3.488  0.5332  0.1735 -0.0592
 7755TIP3   OH244679   3.305   3.314  12.182 -0.3917  0.2864 -0.3603
 7755TIP3    H144680   3.235   3.248  12.179  0.5469 -0.7683  0.2848
 7755TIP3    H244681   3.286   3.365  12.260 -0.2534 -0.2223  0.0100
 7756TIP3   OH244682   5.734   2.984   2.743 -0.8540 -0.3127 -0.0656
 7756TIP3    H144683   5.765   2.896   2.765 -0.1537 -0.1295 -0.3136
 7756TIP3    H244684   5.807   3.025   2.696 -1.8384 -0.2359 -1.5970
 7757TIP3   OH244685   2.522   3.680  12.363 -0.0391  0.0496 -0.0259
 7757TIP3    H144686   2.603   3.665  12.412  0.5196  0.3101 -0.8428
 7757TIP3    H244687   2.550   3.729  12.286 -1.0773  0.7360  0.0123
 7758TIP3   OH244688   5.086   3.221   2.434  0.6484  0.6582  0.0556
 7758TIP3    H144689   5.144   3.184   2.501  0.9288  0.6384 -0.1953
 7758TIP3    H244690   5.144   3.271   2.377  0.6547 -0.5469 -1.0343
 7759TIP3   OH244691   5.683   1.249   0.715  0.3177 -0.1430  0.1853
 7759TIP3    H144692   5.765   1.273   0.757 -0.0355 -0.0253  0.8175
 7759TIP3    H244693   5.697   1.159   0.685  0.6139 -0.1913  0.4570
 7760TIP3   OH244694   3.895   4.942  13.210 -0.7016 -0.4313  0.1077
 7760TIP3    H144695   3.848   5.014  13.252 -1.6712 -0.1656 -1.3548
 7760TIP3    H244696   3.860   4.940  13.120  2.6879  0.3433 -1.3839
 7761TIP3   OH244697   5.584   1.055   5.703 -0.3171  0.3130 -0.0254
 7761TIP3    H144698   5.510   1.007   5.740 -0.5781 -0.3817 -1.3931
 7761TIP3    H244699   5.643   1.069   5.778 -2.4389  2.1949  1.4346
 7762TIP3   OH244700   1.369   0.094   1.066 -0.3658  0.5535  0.4108
 7762TIP3    H144701   1.305   0.129   1.128 -1.7790 -0.1254 -0.6143
 7762TIP3    H244702   1.341   0.004   1.050  0.5408  0.4086 -0.4738
 7763TIP3   OH244703   1.639   3.683   0.347 -0.1524 -0.1240  0.1397
 7763TIP3    H144704   1.546   3.687   0.327 -0.2825 -1.9652  0.2725
 7763TIP3    H244705   1.669   3.601   0.310  1.4905  0.5308 -0.0797
 7764TIP3   OH244706   1.282   0.229   4.205 -0.0834 -0.0854 -0.7099
 7764TIP3    H144707   1.288   0.134   4.194 -2.6238 -0.3098 -0.6523
 7764TIP3    H244708   1.349   0.250   4.270  1.3036 -1.6297 -1.5453
 7765TIP3   OH244709   1.144   5.604  11.256  0.7069  0.3386  0.1663
 7765TIP3    H144710   1.178   5.692  11.242  0.8732  0.1214 -0.8259
 7765TIP3    H244711   1.113   5.575  11.170  1.1302 -0.7768  0.3646
 7766TIP3   OH244712   6.156   0.520   5.672 -0.4230 -0.6143 -0.5483
 7766TIP3    H144713   6.242   0.518   5.630  0.3324 -2.0523  0.9524
 7766TIP3    H244714   6.167   0.579   5.747 -0.7120 -0.9052 -0.2769
 7767TIP3   OH244715   2.701   0.359  14.341 -0.1267 -0.2379  0.3180
 7767TIP3    H144716   2.608   0.374  14.323  0.2116  0.6499 -0.8549
 7767TIP3    H244717   2.726   0.289  14.282  0.4137  0.9696 -0.9320
 7768TIP3   OH244718   4.624   5.785  14.677 -0.0126  0.2247  0.6108
 7768TIP3    H144719   4.601   5.735  14.756  1.0076 -0.8034  0.2787
 7768TIP3    H244720   4.580   5.740  14.606 -2.2001  2.0419  0.7115
 7769TIP3   OH244721   5.185   4.160  12.288  0.1681 -0.0479 -0.1974
 7769TIP3    H144722   5.207   4.145  12.196  1.3785 -1.6722  0.3213
 7769TIP3    H244723   5.216   4.249  12.306 -0.5895  0.5055 -1.4777
 7770TIP3   OH244724   2.647   0.719  15.746 -1.0993 -0.6572 -0.2334
 7770TIP3    H144725   2.586   0.742  15.676 -0.6795 -0.8456 -0.6620
 7770TIP3    H244726   2.590   0.695  15.819 -1.5618  0.8759 -0.0418
 7771TIP3   OH244727   4.174   6.516  12.245  0.5565 -0.9257 -0.4218
 7771TIP3    H144728   4.101   6.477  12.196  1.0911 -1.2311 -0.9897
 7771TIP3    H244729   4.134   6.545  12.327 -0.6052  0.5884 -1.4630
 7772TIP3   OH244730   6.657   2.966  12.788  0.2191  0.1898  0.2212
 7772TIP3    H144731   6.731   2.906  12.772 -0.0322 -0.2568  0.7322
 7772TIP3    H244732   6.583   2.924  12.744  0.1660  0.4157  0.0940
 7773TIP3   OH244733   4.662   4.855   5.299  0.5203 -0.1664  0.2646
 7773TIP3    H144734   4.727   4.872   5.230  1.0278  0.4748  0.8897
 7773TIP3    H244735   4.663   4.759   5.309  0.9669 -0.2085 -0.1238
 7774TIP3   OH244736   0.121   1.764  15.851  0.0147 -0.0773  0.4377
 7774TIP3    H144737   0.057   1.832  15.868  0.4283  0.0127  1.7615
 7774TIP3    H244738   0.206   1.809  15.855  0.2823 -0.6358  1.1935
 7775TIP3   OH244739   5.904   6.291  11.541 -0.1596 -0.1340 -0.1658
 7775TIP3    H144740   5.836   6.350  11.509  0.5697  1.2580  0.7273
 7775TIP3    H244741   5.870   6.259  11.625 -0.0995 -0.1194 -0.1352
 7776TIP3   OH244742   5.704   3.576  16.018  0.3060 -0.6345 -0.2990
 7776TIP3    H144743   5.646   3.582  16.095  0.5323 -1.3753 -0.0614
 7776TIP3    H244744   5.660   3.629  15.951 -1.1561 -1.9292 -0.4234
 7777TIP3   OH244745   4.581   4.691  11.639 -0.3249 -0.1882 -0.3684
 7777TIP3    H144746   4.656   4.750  11.635  0.2470 -0.8817 -0.0834
 7777TIP3    H244747   4.574   4.667  11.732 -1.0741  0.0964 -0.3478
 7778TIP3   OH244748   5.551   5.319   5.529  0.1313  0.1097  0.5153
 7778TIP3    H144749   5.531   5.230   5.500  1.4604 -0.7699  2.1447
 7778TIP3    H244750   5.633   5.340   5.486 -1.2743  1.5307 -1.7008
 7779TIP3   OH244751   3.421   6.650   2.157  0.1294 -0.4125  0.3697
 7779TIP3    H144752   3.391   6.584   2.095 -1.2718  0.3800  0.1617
 7779TIP3    H244753   3.378   6.626   2.239 -3.1999  2.0143 -0.4355
 7780TIP3   OH244754   1.182   5.707   2.168  0.3703 -0.2656 -0.2682
 7780TIP3    H144755   1.149   5.662   2.090  0.1854  0.3374 -0.5475
 7780TIP3    H244756   1.207   5.794   2.136 -0.6390  0.3361  0.5437
 7781TIP3   OH244757   0.652   1.821  12.118 -0.0193  0.3716 -0.3154
 7781TIP3    H144758   0.604   1.741  12.099 -0.4756 -0.2244  2.7892
 7781TIP3    H244759   0.713   1.797  12.187  0.8998  2.3704 -0.3549
 7782TIP3   OH244760   6.366   4.248   6.262 -0.7390  0.3634  0.4728
 7782TIP3    H144761   6.395   4.264   6.352 -0.9286 -0.2025  0.6375
 7782TIP3    H244762   6.424   4.302   6.209  1.5078 -1.6440  0.6982
 7783TIP3   OH244763   1.770   5.642   5.091 -0.3901  0.1398 -0.0049
 7783TIP3    H144764   1.740   5.642   5.182 -1.2296 -0.5050 -0.2702
 7783TIP3    H244765   1.851   5.692   5.093 -0.5034  0.3112  1.0652
 7784TIP3   OH244766   1.267   2.980  12.049 -0.7764 -0.3857 -0.0097
 7784TIP3    H144767   1.322   2.928  11.990  0.6060 -0.0879  0.9599
 7784TIP3    H244768   1.295   2.953  12.137 -3.0109 -1.0571  0.5457
 7785TIP3   OH244769   5.703   1.345  15.844  0.1558 -0.1135 -0.3045
 7785TIP3    H144770   5.668   1.415  15.788 -0.5629  2.0556  2.5783
 7785TIP3    H244771   5.686   1.376  15.934  0.5439 -3.6756  1.1594
 7786TIP3   OH244772   4.425   1.950   5.515  0.3213  0.2354  0.4857
 7786TIP3    H144773   4.486   2.022   5.531 -0.9613  1.1136  1.6170
 7786TIP3    H244774   4.363   1.953   5.588 -1.9446  0.2910 -1.3236
 7787TIP3   OH244775   0.260   2.512  15.874  0.2900  0.1623 -0.2720
 7787TIP3    H144776   0.230   2.596  15.840  0.4881  0.4259  0.1893
 7787TIP3    H244777   0.316   2.535  15.948 -1.1507 -0.4359  1.0536
 7788TIP3   OH244778   5.408   6.637   0.215  0.2844  0.1548 -0.2514
 7788TIP3    H144779   5.431   6.550   0.182 -0.4820  0.0114 -0.4163
 7788TIP3    H244780   5.427   6.695   0.141 -0.1597  0.0008 -0.4911
 7789TIP3   OH244781   5.643   0.597  16.034  0.5839  0.0349  0.6459
 7789TIP3    H144782   5.686   0.522  15.993  0.1932  0.2381 -0.1426
 7789TIP3    H244783   5.617   0.564  16.121  0.2871 -0.7891  0.2558
 7790TIP3   OH244784   1.542   0.156  10.662  0.5540 -0.6821 -0.1497
 7790TIP3    H144785   1.512   0.070  10.692  1.1241 -0.7104  0.3697
 7790TIP3    H244786   1.467   0.214  10.675  0.5729 -0.8386  0.7190
 7791TIP3   OH244787   4.525   2.409   1.943 -0.0283  0.5176 -0.0559
 7791TIP3    H144788   4.505   2.431   1.852  0.6375  1.7347  0.0768
 7791TIP3    H244789   4.513   2.491   1.990 -0.4151 -0.1180  0.9683
 7792TIP3   OH244790   3.618   6.479  14.108 -0.1147 -0.2004 -0.1282
 7792TIP3    H144791   3.597   6.513  14.195  2.3271  1.2610 -0.0158
 7792TIP3    H244792   3.681   6.409  14.125  0.9138  0.5556 -0.7031
 7793TIP3   OH244793   2.287   1.946  14.932  0.0214 -0.4572  0.0541
 7793TIP3    H144794   2.322   1.954  15.020  1.4839 -0.1687 -0.5232
 7793TIP3    H244795   2.220   2.014  14.926  2.0079  1.6022 -0.0033
 7794TIP3   OH244796   6.769   3.404  13.271 -0.6971 -0.0652  0.3362
 7794TIP3    H144797   6.675   3.418  13.279 -0.7611 -0.0891 -0.3039
 7794TIP3    H244798   6.781   3.311  13.286 -0.8633 -0.1872 -0.2479
 7795TIP3   OH244799   4.097   4.175   3.638 -0.3356 -0.5213 -0.4053
 7795TIP3    H144800   4.076   4.227   3.560 -0.3824  0.1026  0.0208
 7795TIP3    H244801   4.019   4.123   3.654  0.7261 -3.0853 -2.6425
 7796TIP3   OH244802   3.544   6.707  13.931  0.2121  0.1207 -0.1153
 7796TIP3    H144803   3.605   6.654  13.879  0.4103  0.5499 -0.3258
 7796TIP3    H244804   3.545   6.666  14.017  1.1691  0.4051  0.0209
 7797TIP3   OH244805   1.436   1.298  12.877  0.3169 -0.4829 -0.3274
 7797TIP3    H144806   1.445   1.380  12.925 -0.0392  0.8745 -2.4271
 7797TIP3    H244807   1.523   1.281  12.842 -0.0737  0.2622 -1.7414
 7798TIP3   OH244808   0.560   3.531   5.748 -0.1434 -0.4037  0.1414
 7798TIP3    H144809   0.591   3.579   5.671 -0.9339  1.0384  0.6689
 7798TIP3    H244810   0.540   3.443   5.716  0.8706 -0.2415 -0.9837
 7799TIP3   OH244811   5.997   2.530  12.479 -0.2445 -0.2656  0.1269
 7799TIP3    H144812   5.968   2.588  12.409 -1.6637 -1.2622 -0.1519
 7799TIP3    H244813   5.982   2.580  12.559  0.2123  0.4055 -0.1948
 7800TIP3   OH244814   5.985   4.155   2.006  0.2501 -0.1915 -0.0863
 7800TIP3    H144815   6.069   4.186   2.040 -0.2010  0.0100  0.8977
 7800TIP3    H244816   5.974   4.201   1.923  0.8670  0.1973  0.0419
 7801TIP3   OH244817   5.058   1.683  12.092 -0.0487  0.1138 -0.4125
 7801TIP3    H144818   5.121   1.617  12.123 -1.2830 -0.8420  0.1924
 7801TIP3    H244819   4.974   1.636  12.089 -0.7574  1.3688 -1.0867
 7802TIP3   OH244820   6.229   4.912   0.233 -0.0076  0.5536  0.8089
 7802TIP3    H144821   6.212   4.838   0.175  0.4666  0.0039  1.3610
 7802TIP3    H244822   6.268   4.873   0.311 -0.0685  1.3506  1.2464
 7803TIP3   OH244823   1.274   0.355  17.055 -0.4352 -0.1259  0.0202
 7803TIP3    H144824   1.188   0.337  17.017 -0.5551  1.2050 -0.3697
 7803TIP3    H244825   1.255   0.403  17.136 -0.0703 -0.1390  0.1162
 7804TIP3   OH244826   4.270   1.004   2.853 -0.0598  0.2977  0.3407
 7804TIP3    H144827   4.321   0.990   2.933  0.0499  0.0654  0.2321
 7804TIP3    H244828   4.252   0.916   2.821 -1.3000  0.3510  0.8482
 7805TIP3   OH244829   2.240   5.724  11.961 -0.1088  1.2039  0.2176
 7805TIP3    H144830   2.326   5.764  11.947 -0.0057  1.1517  0.6840
 7805TIP3    H244831   2.208   5.704  11.873  0.6302  0.6467  0.0620
 7806TIP3   OH244832   1.768   4.045  16.777  0.4164 -0.6299 -0.0524
 7806TIP3    H144833   1.681   4.078  16.800  0.1496 -1.0403 -0.4631
 7806TIP3    H244834   1.769   3.955  16.809 -0.0629 -1.3104 -1.8401
 7807TIP3   OH244835   1.560   0.735   0.342 -0.0524 -0.0127  0.2356
 7807TIP3    H144836   1.493   0.668   0.331  3.1774 -3.2878 -2.2803
 7807TIP3    H244837   1.622   0.697   0.404 -0.7047  3.2954  3.2234
 7808TIP3   OH244838   1.846   4.220  16.571  0.1011  0.1299 -0.5889
 7808TIP3    H144839   1.864   4.157  16.641  0.3810  0.6662 -0.1681
 7808TIP3    H244840   1.806   4.295  16.616  0.2867  0.4815 -0.9990
 7809TIP3   OH244841   1.275   4.966   6.713  0.4893  0.7385  0.7879
 7809TIP3    H144842   1.257   5.049   6.670 -0.5222  0.7723  1.2648
 7809TIP3    H244843   1.369   4.951   6.697  0.6323  1.8462  0.5057
 7810TIP3   OH244844   0.710   6.708   3.789  0.4206  0.5483  0.2422
 7810TIP3    H144845   0.755   6.769   3.731  2.2999 -0.9678  0.0251
 7810TIP3    H244846   0.720   6.622   3.748  0.9960 -0.4504  2.2946
 7811TIP3   OH244847   2.172   4.828   4.841 -0.3875 -0.0686  0.2362
 7811TIP3    H144848   2.150   4.827   4.747 -2.1338  1.7315  0.5735
 7811TIP3    H244849   2.229   4.903   4.851 -2.5397  1.5529  1.0176
 7812TIP3   OH244850   4.656   4.076  14.385 -0.1543 -0.2575  0.1710
 7812TIP3    H144851   4.602   4.138  14.335 -0.3922  0.9505  1.8392
 7812TIP3    H244852   4.646   3.993  14.339  0.2315  0.9192 -2.2049
 7813TIP3   OH244853   3.772   6.420   3.599  0.1069 -0.0822 -0.1957
 7813TIP3    H144854   3.751   6.420   3.506 -1.0152  2.9303 -0.0875
 7813TIP3    H244855   3.866   6.437   3.603 -0.1315  1.6272 -0.8569
 7814TIP3   OH244856   3.201   3.361   0.822 -0.0873 -0.7872 -0.0009
 7814TIP3    H144857   3.254   3.427   0.777 -1.3510 -0.3015 -0.8248
 7814TIP3    H244858   3.214   3.280   0.773  0.4632 -0.8548  0.2497
 7815TIP3   OH244859   1.230   2.609   0.372 -0.2563  0.3328 -0.2002
 7815TIP3    H144860   1.249   2.519   0.345  0.1861  0.1902  0.5690
 7815TIP3    H244861   1.240   2.608   0.467  0.4272  1.3650 -0.2503
 7816TIP3   OH244862   5.850   3.348  11.615 -0.4693  0.5051 -0.0922
 7816TIP3    H144863   5.848   3.378  11.524 -1.8747 -1.6226 -0.8724
 7816TIP3    H244864   5.758   3.339  11.639 -0.1298 -0.9760  0.7882
 7817TIP3   OH244865   3.988   1.066   1.024 -0.0939  1.0104  0.2172
 7817TIP3    H144866   3.917   1.094   0.966  0.1605  2.6278  0.6383
 7817TIP3    H244867   3.943   1.023   1.097 -0.4738 -0.1186 -0.6499
 7818TIP3   OH244868   3.385   4.100   3.796  0.2835  0.1570 -0.2704
 7818TIP3    H144869   3.336   4.071   3.873  0.6589  1.1539  0.3735
 7818TIP3    H244870   3.342   4.181   3.769  0.4490  0.0679 -0.8200
 7819TIP3   OH244871   6.685   6.565   3.447  0.2081 -0.2222  0.0457
 7819TIP3    H144872   6.632   6.624   3.393 -1.3297 -0.0446  1.6470
 7819TIP3    H244873   6.663   6.477   3.415  0.4557 -0.0539 -0.5913
 7820TIP3   OH244874   0.931   5.835   2.708 -0.0708  0.1370  0.0632
 7820TIP3    H144875   0.901   5.835   2.799 -0.5651 -0.5023 -0.0868
 7820TIP3    H244876   0.980   5.753   2.700 -1.3233 -0.5835 -0.6330
 7821TIP3   OH244877   4.109   5.258  10.231  0.8040  1.0063 -0.5510
 7821TIP3    H144878   4.193   5.300  10.215  0.3190  1.8523 -0.9543
 7821TIP3    H244879   4.081   5.291  10.316  1.4202 -0.2142  0.1599
 7822TIP3   OH244880   1.908   3.356   0.063 -0.2459 -0.0381  0.1681
 7822TIP3    H144881   1.882   3.355  -0.029  1.3161 -0.0425 -0.3056
 7822TIP3    H244882   1.992   3.310   0.065  0.3639  1.0437  1.3798
 7823TIP3   OH244883   6.715   1.350  15.458 -0.1547 -0.2314  0.2540
 7823TIP3    H144884   6.786   1.383  15.403 -1.6164  0.6677 -1.1446
 7823TIP3    H244885   6.676   1.429  15.496 -0.7289 -0.6874  0.6163
 7824TIP3   OH244886   6.113   4.269  13.420  0.4659  0.0026 -0.3248
 7824TIP3    H144887   6.067   4.309  13.493 -2.1131  0.5976 -2.1576
 7824TIP3    H244888   6.109   4.333  13.349  1.2625 -1.2560 -1.5898
 7825TIP3   OH244889   4.886   4.880  12.160  0.3302  0.4342 -0.1404
 7825TIP3    H144890   4.904   4.884  12.066 -2.2865  0.1998 -0.7203
 7825TIP3    H244891   4.792   4.862  12.166  0.5981 -0.5509  2.5337
 7826TIP3   OH244892   0.498   4.098   0.298  0.1752 -0.1846  0.5430
 7826TIP3    H144893   0.465   4.186   0.313  3.3843  0.8557  2.4562
 7826TIP3    H244894   0.548   4.105   0.217  0.1287 -0.3756  0.4972
 7827TIP3   OH244895   2.770   3.269   0.764  0.3457  0.0647  0.0653
 7827TIP3    H144896   2.814   3.350   0.788 -0.5152  0.0382  1.8735
 7827TIP3    H244897   2.717   3.292   0.688 -1.3908  1.7539  1.6839
 7828TIP3   OH244898   2.502   0.940  15.972  0.5342  0.0122  0.3133
 7828TIP3    H144899   2.585   0.924  16.017 -0.4753 -1.1902  1.8495
 7828TIP3    H244900   2.451   0.993  16.033  0.1565  0.7890 -0.6393
 7829TIP3   OH244901   4.130   4.494   4.346 -0.3015 -0.1076  0.1725
 7829TIP3    H144902   4.101   4.403   4.338 -0.9305  0.0659  0.4513
 7829TIP3    H244903   4.155   4.519   4.257 -0.5908 -0.3991  0.0094
 7830TIP3   OH244904   6.356   4.789  13.487  0.5268 -0.0168 -0.1010
 7830TIP3    H144905   6.297   4.747  13.424  0.3506 -0.1926  0.1793
 7830TIP3    H244906   6.308   4.789  13.569 -0.0379  1.9879 -0.3895
 7831TIP3   OH244907   5.627   2.114   5.890  0.3906  0.3048 -0.1073
 7831TIP3    H144908   5.635   2.202   5.853 -0.7599  0.8871  0.9516
 7831TIP3    H244909   5.534   2.104   5.908  0.8515  0.0021  2.4435
 7832TIP3   OH244910   5.139   0.879   3.934 -0.1301  0.4832 -0.0781
 7832TIP3    H144911   5.097   0.801   3.970 -2.2773  1.0896 -1.1292
 7832TIP3    H244912   5.115   0.879   3.842 -0.9595  2.8376  0.0687
 7833TIP3   OH244913   0.697   6.488   4.772  0.1796 -0.2146 -0.8877
 7833TIP3    H144914   0.774   6.467   4.825  0.7504 -0.7909 -1.9097
 7833TIP3    H244915   0.728   6.480   4.681 -0.6119  1.3110 -1.3247
 7834TIP3   OH244916   5.784   2.713   2.954 -0.5527  0.3088 -0.1635
 7834TIP3    H144917   5.781   2.708   2.859 -2.2159  1.9132 -0.2582
 7834TIP3    H244918   5.809   2.625   2.982  0.8168  0.0140 -2.0724
 7835TIP3   OH244919   3.572   0.737  11.956 -0.1409 -0.5772 -0.3042
 7835TIP3    H144920   3.500   0.674  11.956 -0.0861 -0.6394 -0.4198
 7835TIP3    H244921   3.611   0.729  11.869  0.1030 -0.6511 -0.1879
 7836TIP3   OH244922   5.593   1.301   4.287  0.1195  0.7399 -0.1708
 7836TIP3    H144923   5.686   1.288   4.302 -0.1167  1.5651  2.5083
 7836TIP3    H244924   5.565   1.224   4.237  1.8624 -0.4473  0.5987
 7837TIP3   OH244925   3.209   5.177   1.365  0.3844 -0.7732  0.2442
 7837TIP3    H144926   3.152   5.194   1.440 -1.4089 -3.8971 -0.2239
 7837TIP3    H244927   3.155   5.199   1.289  1.7351  1.1232 -0.2501
 7838TIP3   OH244928   5.057   1.543   2.751  0.0123  0.4793 -0.0502
 7838TIP3    H144929   4.965   1.546   2.724 -0.0738 -0.2097  0.1398
 7838TIP3    H244930   5.106   1.553   2.670 -0.2410 -0.1344 -0.2887
 7839TIP3   OH244931   2.055   0.454  12.111 -0.2649 -0.1352 -0.2401
 7839TIP3    H144932   2.119   0.516  12.076 -0.0234 -0.5067 -0.4613
 7839TIP3    H244933   1.973   0.476  12.065 -0.0839 -0.2482 -0.6244
 7840TIP3   OH244934   5.957   5.521   3.081 -0.2281  0.5486 -0.0629
 7840TIP3    H144935   5.975   5.427   3.077 -0.2827  0.5711 -1.0759
 7840TIP3    H244936   5.862   5.528   3.069 -0.2436  0.7254  0.1598
 7841TIP3   OH244937   3.628   5.709  13.458 -0.4963 -0.1144 -0.0740
 7841TIP3    H144938   3.704   5.754  13.494 -0.4931  0.0207 -0.2487
 7841TIP3    H244939   3.553   5.745  13.506 -0.4092 -0.5718  0.4121
 7842TIP3   OH244940   5.285   5.241  14.015 -0.3017  0.3758 -0.8374
 7842TIP3    H144941   5.349   5.173  14.032  0.5261  1.4135  0.3117
 7842TIP3    H244942   5.329   5.323  14.039 -2.1009  1.1002  0.2150
 7843TIP3   OH244943   6.055   2.633  10.823 -0.4687  0.5271 -0.5237
 7843TIP3    H144944   6.055   2.575  10.748  0.1590  1.1450 -1.0258
 7843TIP3    H244945   5.970   2.676  10.821 -0.0131  1.4356 -1.6194
 7844TIP3   OH244946   6.009   5.790  16.093  0.0780  0.3526 -0.3072
 7844TIP3    H144947   5.965   5.709  16.065 -1.1306  1.2298 -1.0560
 7844TIP3    H244948   5.953   5.860  16.060  1.5482  1.5273 -0.4147
 7845TIP3   OH244949   5.890   4.050   2.860  0.7223 -0.3519  0.0974
 7845TIP3    H144950   5.979   4.084   2.871  0.0409  2.0884 -1.0988
 7845TIP3    H244951   5.852   4.104   2.790 -2.3328  0.0800  1.8829
 7846TIP3   OH244952   4.129   4.321  12.934  0.0370 -0.1729  0.3622
 7846TIP3    H144953   4.074   4.399  12.945  0.9972  1.0569 -2.6774
 7846TIP3    H244954   4.190   4.344  12.864  0.5658 -3.5671 -0.4680
 7847TIP3   OH244955   1.181   3.003  15.680 -0.5814  0.0389 -0.1005
 7847TIP3    H144956   1.263   3.042  15.652 -1.5913  1.4938 -1.1933
 7847TIP3    H244957   1.138   3.070  15.732 -2.3439  0.5147 -2.0042
 7848TIP3   OH244958   0.211   1.956  15.289  0.2027 -0.2840 -0.2383
 7848TIP3    H144959   0.145   1.921  15.229  0.4857 -0.6529 -0.3376
 7848TIP3    H244960   0.168   2.031  15.331  0.1931  0.3526 -1.3336
 7849TIP3   OH244961   3.419   2.478  15.802 -0.2170  0.1931 -0.2214
 7849TIP3    H144962   3.448   2.399  15.756 -0.3655  0.9930 -1.7322
 7849TIP3    H244963   3.493   2.538  15.794  1.3907 -0.8345  3.8996
 7850TIP3   OH244964   3.291   1.955  14.825  0.4767  0.5740  0.6035
 7850TIP3    H144965   3.372   2.003  14.809  0.7859  0.1975  1.0123
 7850TIP3    H244966   3.287   1.947  14.920 -1.3520  2.8275  0.8107
 7851TIP3   OH244967   4.894   2.437  11.019  0.1989  0.5473 -0.2203
 7851TIP3    H144968   4.987   2.419  11.003 -0.0892 -0.5529 -0.7149
 7851TIP3    H244969   4.894   2.495  11.096  1.2663  0.0802  0.1543
 7852TIP3   OH244970   0.566   3.893   5.577 -0.5424  0.2448 -0.0644
 7852TIP3    H144971   0.520   3.926   5.654  0.7710 -0.3884  1.0324
 7852TIP3    H244972   0.654   3.929   5.585 -0.8481  1.6800 -2.2659
 7853TIP3   OH244973   3.759   3.754  14.532  0.1247  0.1091  0.0300
 7853TIP3    H144974   3.689   3.772  14.594 -0.4358 -1.0595 -0.2362
 7853TIP3    H244975   3.747   3.820  14.463 -0.6732 -0.0184  0.0319
 7854TIP3   OH244976   1.449   1.815   2.740 -0.3270  0.0454  0.1055
 7854TIP3    H144977   1.387   1.743   2.742 -0.9076  0.5342  1.8401
 7854TIP3    H244978   1.396   1.892   2.719  0.7405 -0.2989 -4.9158
 7855TIP3   OH244979   4.855   0.608  14.007  0.3390 -0.2932 -0.3755
 7855TIP3    H144980   4.767   0.608  13.968 -0.5508  1.2130  1.4647
 7855TIP3    H244981   4.882   0.516  14.003 -1.6477 -0.9349 -0.3255
 7856TIP3   OH244982   1.832   2.896   5.346  0.5625  0.5848 -0.4883
 7856TIP3    H144983   1.840   2.962   5.415 -1.6507  0.1927  0.2062
 7856TIP3    H244984   1.894   2.828   5.370 -0.4702  0.2585  1.3954
 7857TIP3   OH244985   4.384   3.916  12.970 -0.4995  0.2358  0.1872
 7857TIP3    H144986   4.400   4.009  12.950  2.0284 -0.5295 -1.9649
 7857TIP3    H244987   4.363   3.915  13.063  3.1081  2.6931  1.2533
 7858TIP3   OH244988   3.475   2.383  16.795  0.3773 -0.0936  1.2043
 7858TIP3    H144989   3.570   2.387  16.779  0.4202  1.4574  1.7450
 7858TIP3    H244990   3.458   2.290  16.810  1.7828 -0.4237  0.9421
 7859TIP3   OH244991   5.387   6.521  14.034 -0.0850 -0.9083  0.4213
 7859TIP3    H144992   5.324   6.456  14.005 -1.2226  0.1175  0.5274
 7859TIP3    H244993   5.334   6.595  14.064  1.1612 -0.0648  0.6327
 7860TIP3   OH244994   3.219   3.300   5.252  0.0210  0.2433 -0.0439
 7860TIP3    H144995   3.231   3.382   5.299  2.1420  0.1085 -0.2514
 7860TIP3    H244996   3.283   3.304   5.180 -1.0390 -0.8532 -1.1003
 7861TIP3   OH244997   2.669   5.037   1.400  0.4283 -0.6769  0.4251
 7861TIP3    H144998   2.733   5.028   1.330  0.1362  1.6387 -0.2419
 7861TIP3    H244999   2.598   4.977   1.377  0.5199 -0.2361 -1.0789
 7862TIP3   OH245000   1.090   0.547  13.077  0.6343  0.3349 -0.5776
 7862TIP3    H145001   1.029   0.564  13.006 -0.0117  1.1499  0.1529
 7862TIP3    H245002   1.162   0.608  13.061 -0.0206  1.3004  0.0571
 7863TIP3   OH245003   3.805   5.117  13.421 -0.0609  0.2260 -0.2227
 7863TIP3    H145004   3.865   5.075  13.483  0.7988  0.2541 -1.0097
 7863TIP3    H245005   3.720   5.114  13.464 -0.0061 -2.1119 -0.1209
 7864TIP3   OH245006   4.637   5.898  11.397 -0.2347 -0.9146 -0.4436
 7864TIP3    H145007   4.705   5.857  11.451  0.7889 -0.3230 -1.2344
 7864TIP3    H245008   4.606   5.828  11.339  0.1070 -1.0544 -0.4596
 7865TIP3   OH245009   3.594   0.635  16.707 -0.0104 -0.4261 -0.0703
 7865TIP3    H145010   3.638   0.582  16.773  1.5863 -1.2959 -1.7565
 7865TIP3    H245011   3.626   0.602  16.623 -2.3397  0.3012 -1.3481
 7866TIP3   OH245012   0.491   3.324  13.899 -0.1609 -0.0440  0.2474
 7866TIP3    H145013   0.569   3.305  13.950 -0.4653  1.5770  1.3894
 7866TIP3    H245014   0.523   3.345  13.811  0.4647 -1.6431  0.0679
 7867TIP3   OH245015   0.353   2.862   0.832  0.2725  0.2641  0.0330
 7867TIP3    H145016   0.388   2.944   0.866 -0.1493 -0.0245  1.2034
 7867TIP3    H245017   0.258   2.871   0.840  0.2600 -0.9147  1.6317
 7868TIP3   OH245018   1.945   1.138   4.639 -0.2853 -0.4977 -0.8643
 7868TIP3    H145019   1.874   1.075   4.623  0.6591 -1.7853 -0.1665
 7868TIP3    H245020   1.967   1.172   4.552 -0.6942 -1.2741 -1.2859
 7869TIP3   OH245021   4.544   4.628   5.097 -0.0697 -0.0107  0.2105
 7869TIP3    H145022   4.457   4.619   5.057 -0.2364 -0.9646  0.7644
 7869TIP3    H245023   4.604   4.593   5.031  0.2202  2.8740 -1.2295
 7870TIP3   OH245024   4.990   4.762   4.263  0.2479 -0.4312 -0.0861
 7870TIP3    H145025   5.025   4.810   4.188  0.0620  0.2702  0.2733
 7870TIP3    H245026   4.935   4.694   4.224 -0.4587  0.4053 -0.5737
 7871TIP3   OH245027   5.462   3.068  11.060 -0.1492 -0.3117  0.3558
 7871TIP3    H145028   5.449   3.145  11.005  1.1798  0.9034  1.6712
 7871TIP3    H245029   5.556   3.051  11.057 -0.2265 -0.9842  1.2540
 7872TIP3   OH245030   4.857   5.269  13.234 -0.2822 -0.4217  0.1978
 7872TIP3    H145031   4.859   5.205  13.305 -0.2971 -0.8948 -0.2165
 7872TIP3    H245032   4.774   5.253  13.189 -0.3603 -0.0000  0.1876
 7873TIP3   OH245033   3.085   4.899  11.652 -0.1961 -0.2106  0.0846
 7873TIP3    H145034   2.991   4.918  11.644 -0.4237 -0.5717  1.6203
 7873TIP3    H245035   3.113   4.879  11.563 -2.3278 -3.4232 -0.0044
 7874TIP3   OH245036   5.192   2.539  13.170  0.1112  0.1925  0.0499
 7874TIP3    H145037   5.127   2.575  13.110 -0.1562  2.5698  1.6001
 7874TIP3    H245038   5.142   2.523  13.251  0.5749 -2.3647 -0.0882
 7875TIP3   OH245039   5.918   1.012  11.115 -0.5412  0.0452 -0.4094
 7875TIP3    H145040   5.877   1.096  11.136  0.0184  0.3811 -0.6325
 7875TIP3    H245041   6.003   1.015  11.159 -1.0785 -0.9844  0.7340
 7876TIP3   OH245042   0.834   5.273  10.287 -0.6637 -0.1283 -0.0355
 7876TIP3    H145043   0.829   5.369  10.290 -0.5129 -0.1349  1.9848
 7876TIP3    H245044   0.765   5.244  10.346 -0.9768 -1.2997 -0.9477
 7877TIP3   OH245045   4.185   6.279  16.906 -0.6779 -0.3226  0.0958
 7877TIP3    H145046   4.279   6.284  16.926 -0.5899 -0.3929 -0.3074
 7877TIP3    H245047   4.178   6.300  16.813 -1.0934 -0.0298  0.1893
 7878TIP3   OH245048   0.179   0.349  16.835  0.6112  0.2843  0.0989
 7878TIP3    H145049   0.194   0.354  16.740 -0.0605  1.4876  0.0326
 7878TIP3    H245050   0.107   0.410  16.850  2.1342  1.7842  1.6981
 7879TIP3   OH245051   1.261   0.090  10.760 -0.4410  0.1177  0.0573
 7879TIP3    H145052   1.315   0.169  10.774 -0.2304 -0.2669  1.6226
 7879TIP3    H245053   1.249   0.086  10.665 -0.5242  2.0802 -0.0674
 7880TIP3   OH245054   3.523   0.875   3.637 -0.1575  0.4566 -0.1910
 7880TIP3    H145055   3.613   0.903   3.654  0.0432 -1.4637  2.6700
 7880TIP3    H245056   3.473   0.913   3.709 -1.1027 -0.7501 -0.1848
 7881TIP3   OH245057   0.796   5.199  16.498  0.9140  0.1282 -0.6146
 7881TIP3    H145058   0.714   5.150  16.493  0.6462  0.2891  1.4400
 7881TIP3    H245059   0.774   5.287  16.467  0.3478  0.1274 -0.2170
 7882TIP3   OH245060   6.742   6.200  11.991  0.2216 -0.5997  0.0373
 7882TIP3    H145061   6.681   6.270  11.967  0.4143 -0.3752  0.2093
 7882TIP3    H245062   6.725   6.184  12.084  1.1777  0.2061  0.3598
 7883TIP3   OH245063   0.021   5.288   1.448  0.7122  0.3974 -0.0617
 7883TIP3    H145064   0.027   5.220   1.516  2.3400 -0.2167 -0.7716
 7883TIP3    H245065   0.058   5.366   1.489 -0.3377  0.6423  0.4591
 7884TIP3   OH245066   1.731   0.046   3.302 -0.2889  0.2412  0.1780
 7884TIP3    H145067   1.638   0.058   3.322  0.2604  0.8350  2.6858
 7884TIP3    H245068   1.733  -0.023   3.236 -2.5174  0.4606 -0.1774
 7885TIP3   OH245069   5.671   5.046  14.459  0.5352 -0.0666 -0.3728
 7885TIP3    H145070   5.740   5.079  14.401  0.7227  2.2266  1.0263
 7885TIP3    H245071   5.650   4.959  14.425  1.9084  0.4498 -2.7224
 7886TIP3   OH245072   3.153   2.999   3.358  0.3882  0.4001 -0.1908
 7886TIP3    H145073   3.119   3.089   3.358  1.4079  0.8004 -0.5432
 7886TIP3    H245074   3.165   2.978   3.265  0.0340 -0.1543 -0.1145
 7887TIP3   OH245075   0.842   1.022  17.156 -0.0051 -0.2580  0.0474
 7887TIP3    H145076   0.856   1.010  17.062  2.0079  0.9282  0.1353
 7887TIP3    H245077   0.853   0.934  17.193  1.5450 -0.3692 -0.6029
 7888TIP3   OH245078   4.836   4.034  12.896  0.7095  0.4094  0.2066
 7888TIP3    H145079   4.807   4.121  12.867  0.7027  0.1059 -0.7425
 7888TIP3    H245080   4.804   3.974  12.828  1.3279 -0.2476  0.4814
 7889TIP3   OH245081   0.822   3.171  14.198  0.1112  0.2951 -0.0584
 7889TIP3    H145082   0.835   3.228  14.275 -0.0791 -0.0907  0.2638
 7889TIP3    H245083   0.801   3.232  14.127 -2.2794  0.5277  0.7476
 7890TIP3   OH245084   4.845   1.987  14.313 -0.4539 -0.2201  0.2195
 7890TIP3    H145085   4.774   2.027  14.364 -1.9880  2.5176 -3.5696
 7890TIP3    H245086   4.808   1.905  14.280 -0.7898 -0.1938  0.5225
 7891TIP3   OH245087   5.083   1.077  16.594 -0.7601 -0.1754 -0.2595
 7891TIP3    H145088   5.129   1.159  16.613 -0.1174 -0.6746  0.4325
 7891TIP3    H245089   5.058   1.084  16.502 -0.9055  0.8837 -0.1533
 7892TIP3   OH245090   3.642   6.145  13.901 -0.3689  0.5836  0.2536
 7892TIP3    H145091   3.614   6.115  13.987  2.8659 -0.7786  0.9923
 7892TIP3    H245092   3.670   6.066  13.855 -1.5038  1.3394 -1.9277
 7893TIP3   OH245093   4.206   2.518  14.101 -0.3987 -0.5969  0.8644
 7893TIP3    H145094   4.285   2.464  14.103 -0.3096 -0.6888 -1.7675
 7893TIP3    H245095   4.226   2.592  14.158  0.3605 -2.1112  2.6863
 7894TIP3   OH245096   1.862   0.785  15.883  0.1829  0.2596 -0.1751
 7894TIP3    H145097   1.772   0.814  15.864  0.3760 -0.3206 -2.1768
 7894TIP3    H245098   1.917   0.850  15.840  0.8027  1.0943  1.7572
 7895TIP3   OH245099   2.460   1.244   2.208  0.1844  0.3878  0.3019
 7895TIP3    H145100   2.403   1.191   2.153  0.4183  1.8720 -1.4540
 7895TIP3    H245101   2.549   1.223   2.177  0.2916  1.5915 -0.2685
 7896TIP3   OH245102   4.816   2.181  12.054 -0.6803  0.1266 -0.1086
 7896TIP3    H145103   4.828   2.097  12.009  3.0114  0.3367  0.1625
 7896TIP3    H245104   4.844   2.247  11.990  0.7270  0.7336  1.0673
 7897TIP3   OH245105   4.426   0.348   0.105 -0.4323  0.2891  0.4468
 7897TIP3    H145106   4.441   0.254   0.113  0.8203  0.4696  0.4481
 7897TIP3    H245107   4.465   0.372   0.021  0.6844  1.0615  1.1573
 7898TIP3   OH245108   1.743   5.339   2.562 -0.0742  0.1767  0.3021
 7898TIP3    H145109   1.658   5.383   2.562 -0.6053 -0.8148  0.5228
 7898TIP3    H245110   1.806   5.409   2.578 -1.0186  0.6528  2.3351
 7899TIP3   OH245111   4.459   6.479  13.787  0.0853  0.3097 -0.4765
 7899TIP3    H145112   4.538   6.433  13.818 -0.5933  0.0874  1.0124
 7899TIP3    H245113   4.469   6.568  13.821 -1.2409 -0.2481  1.5650
 7900TIP3   OH245114   2.789   3.197  15.398 -0.2296 -0.1510  0.4339
 7900TIP3    H145115   2.875   3.230  15.422  0.4315 -1.6782  0.2244
 7900TIP3    H245116   2.758   3.151  15.477  0.0819 -1.4326 -0.1651
 7901TIP3   OH245117   2.177   4.068  13.181  0.4402  0.1296 -0.1321
 7901TIP3    H145118   2.232   4.046  13.106 -0.9081  0.0049 -1.1183
 7901TIP3    H245119   2.181   3.991  13.238  2.1750  0.5634  0.4098
 7902TIP3   OH245120   2.774   2.026  15.391 -0.0733 -0.0270  0.0050
 7902TIP3    H145121   2.789   1.933  15.409 -1.4751 -0.0422  1.2503
 7902TIP3    H245122   2.770   2.067  15.478  1.0566  1.3152 -0.5287
 7903TIP3   OH245123   6.526   4.936  14.896  0.0431  0.5105 -0.2254
 7903TIP3    H145124   6.481   4.857  14.864  0.0241  0.8572 -1.0552
 7903TIP3    H245125   6.617   4.909  14.904 -0.1419  0.0779  0.5734
 7904TIP3   OH245126   2.059   2.144   5.366 -0.0492  0.3700  0.6819
 7904TIP3    H145127   2.002   2.179   5.297  2.0318 -1.2854 -2.1272
 7904TIP3    H245128   2.047   2.049   5.360  2.1937  0.0355  0.6498
 7905TIP3   OH245129   6.296   3.127   0.553  0.4349  0.9530  0.4768
 7905TIP3    H145130   6.262   3.166   0.472  0.2853 -1.8679 -0.9427
 7905TIP3    H245131   6.389   3.110   0.534  0.8761  1.9109  1.6244
 7906TIP3   OH245132   5.756   3.904   0.240  1.1825 -0.1590 -0.3094
 7906TIP3    H145133   5.751   3.994   0.271  0.4720 -0.3043  0.0178
 7906TIP3    H245134   5.850   3.886   0.232  1.4231 -0.1520  1.8719
 7907TIP3   OH245135   0.781   2.839   0.617 -0.7555 -0.1032 -0.6193
 7907TIP3    H145136   0.833   2.774   0.663  1.4206  3.4919  2.6187
 7907TIP3    H245137   0.694   2.831   0.655  0.1919  0.5891  1.9109
 7908TIP3   OH245138   3.665   4.616   1.965  0.1716 -0.7146  0.4071
 7908TIP3    H145139   3.653   4.629   1.871  1.7781  0.4501  0.3267
 7908TIP3    H245140   3.760   4.613   1.977  0.1555  2.0761  2.3065
 7909TIP3   OH245141   2.067   2.026   3.038  0.1592 -0.1983  0.5139
 7909TIP3    H145142   2.071   2.117   3.070  1.0733 -0.5861  1.5831
 7909TIP3    H245143   2.104   1.974   3.110  0.5429 -1.3157 -0.4606
 7910TIP3   OH245144   0.004   2.635  15.742  0.1390 -0.2814  0.1508
 7910TIP3    H145145  -0.047   2.580  15.684  0.6226  0.2042 -0.7546
 7910TIP3    H245146  -0.013   2.601  15.830 -0.1094 -1.4191 -0.3339
 7911TIP3   OH245147   4.815   0.568  16.910  0.0880 -0.4515 -0.1214
 7911TIP3    H145148   4.783   0.607  16.992 -0.3861  0.7411 -0.8543
 7911TIP3    H245149   4.907   0.549  16.927 -0.4867 -2.2053  1.3911
 7912TIP3   OH245150   3.563   2.637   0.696  0.3827 -0.3480  0.1900
 7912TIP3    H145151   3.577   2.732   0.696 -1.2343 -0.0152 -2.0975
 7912TIP3    H245152   3.480   2.625   0.743  0.1321 -0.4989 -0.2756
 7913TIP3   OH245153   2.320   5.104  15.482  0.2930  0.1863 -0.2072
 7913TIP3    H145154   2.286   5.078  15.396  0.9715 -0.1426 -0.3799
 7913TIP3    H245155   2.389   5.041  15.500  0.5241  0.5960  0.3337
 7914TIP3   OH245156   1.019   5.162  14.555 -0.1681  0.0726 -0.1933
 7914TIP3    H145157   1.093   5.103  14.546 -1.2331 -1.1547 -1.5069
 7914TIP3    H245158   0.979   5.164  14.467 -0.9280  1.7314  0.1481
 7915TIP3   OH245159   0.170   2.415   0.710 -0.3825  0.0726 -0.4667
 7915TIP3    H145160   0.263   2.438   0.717  0.2366 -2.3996  0.2441
 7915TIP3    H245161   0.157   2.346   0.775 -2.9472  0.9369  0.0352
 7916TIP3   OH245162   3.836   3.756   5.325  0.2745  0.4874  0.3864
 7916TIP3    H145163   3.780   3.731   5.251  0.9136 -0.1283  0.0973
 7916TIP3    H245164   3.798   3.837   5.357 -0.6312  0.2212  0.0320
 7917TIP3   OH245165   0.986   4.367  11.652  0.2905 -0.2387 -0.3677
 7917TIP3    H145166   1.082   4.367  11.642  0.2759 -2.2422 -0.9915
 7917TIP3    H245167   0.971   4.331  11.739  0.0896  4.3824  1.8185
 7918TIP3   OH245168   4.255   5.054  13.944  0.1662 -0.5329  0.0701
 7918TIP3    H145169   4.221   5.067  14.032 -3.2406  0.3490 -1.2166
 7918TIP3    H245170   4.282   5.142  13.915 -0.8840 -0.3860 -0.5147
 7919TIP3   OH245171   0.624   0.758   3.464 -0.4254  0.0086  0.4365
 7919TIP3    H145172   0.576   0.788   3.541  0.7613 -0.5373  1.4348
 7919TIP3    H245173   0.714   0.748   3.495  0.1510  0.1192 -1.1285
 7920TIP3   OH245174   2.891   0.190  16.248  0.2217  0.2419 -0.1262
 7920TIP3    H145175   2.832   0.252  16.290 -1.2430 -1.0756 -0.1205
 7920TIP3    H245176   2.978   0.211  16.281 -0.3847  1.6247  0.6243
 7921TIP3   OH245177   5.866   3.514   6.018  0.8816 -0.3163 -0.7280
 7921TIP3    H145178   5.785   3.508   6.069 -0.0505 -0.2056 -2.1429
 7921TIP3    H245179   5.935   3.524   6.084 -0.2554 -0.3250  0.5090
 7922TIP3   OH245180   1.254   2.312   3.634 -0.1790 -0.3123 -0.2611
 7922TIP3    H145181   1.222   2.399   3.609  1.5596  0.4454  0.0550
 7922TIP3    H245182   1.234   2.306   3.727  2.4115  1.0531  0.4554
 7923TIP3   OH245183   1.774   4.488   2.565 -0.0078 -0.2748  0.4806
 7923TIP3    H145184   1.705   4.423   2.556 -0.8318  0.4995  1.0225
 7923TIP3    H245185   1.854   4.442   2.537 -0.6335 -1.3588  0.4058
 7924TIP3   OH245186   1.540   3.311   5.793  0.2446 -0.0673  0.4414
 7924TIP3    H145187   1.579   3.264   5.867 -2.1584 -0.8926  1.2762
 7924TIP3    H245188   1.533   3.401   5.823  2.1041  0.2940 -0.0326
 7925TIP3   OH245189   1.525   4.497   5.259  0.2747  0.1438 -0.3111
 7925TIP3    H145190   1.530   4.571   5.199  0.6662  0.8964  0.6161
 7925TIP3    H245191   1.589   4.434   5.225 -0.2560  0.1000 -1.2567
 7926TIP3   OH245192   4.298   1.283  11.717 -0.0399  0.5331  0.3993
 7926TIP3    H145193   4.309   1.326  11.801  2.2869  0.8359  0.0045
 7926TIP3    H245194   4.276   1.354  11.656 -1.5761  0.3335  0.6697
 7927TIP3   OH245195   5.005   1.385  14.159 -0.0953  0.0035 -0.1528
 7927TIP3    H145196   5.056   1.419  14.232  1.3581  4.0872 -2.6630
 7927TIP3    H245197   5.045   1.301  14.138  1.5394  0.2250  1.7977
 7928TIP3   OH245198   2.901   4.067  14.536 -0.4619 -0.1398  0.3046
 7928TIP3    H145199   2.991   4.097  14.548 -0.3821 -0.1767 -0.1741
 7928TIP3    H245200   2.872   4.040  14.623 -0.0209 -0.0912  0.4650
 7929TIP3   OH245201   1.733   1.552   1.065 -0.0182 -0.3029  0.3218
 7929TIP3    H145202   1.683   1.480   1.103 -0.0404 -0.8681 -0.7437
 7929TIP3    H245203   1.676   1.629   1.075 -0.8278 -0.8059 -0.2564
 7930TIP3   OH245204   6.644   0.398   5.398 -0.1942 -0.1673  0.4672
 7930TIP3    H145205   6.579   0.426   5.463 -0.4490  1.5660 -0.4746
 7930TIP3    H245206   6.593   0.381   5.319  0.4233  0.6908 -0.1307
 7931TIP3   OH245207   2.387   6.055   4.814  0.1628  0.4103 -0.5896
 7931TIP3    H145208   2.450   5.990   4.847 -0.7128 -0.0108  0.2945
 7931TIP3    H245209   2.334   6.006   4.751 -2.7819 -0.8439  2.5394
 7932TIP3   OH245210   2.961   3.519   0.757 -0.2940  0.1844  0.1045
 7932TIP3    H145211   2.988   3.452   0.821 -4.0685  0.3386  2.1181
 7932TIP3    H245212   2.984   3.602   0.799 -0.0933  0.2445 -0.1238
 7933TIP3   OH245213   2.278   0.528   3.729  0.6187 -0.2747 -0.3035
 7933TIP3    H145214   2.266   0.494   3.641  0.6944  0.8844 -0.7776
 7933TIP3    H245215   2.373   0.530   3.742  0.6129 -0.2937 -0.2572
 7934TIP3   OH245216   2.373   0.576   5.077 -0.0155  0.4790 -0.3876
 7934TIP3    H145217   2.449   0.585   5.020 -0.1624 -0.3498 -0.7256
 7934TIP3    H245218   2.301   0.615   5.027 -0.1818 -0.4130 -0.8591
 7935TIP3   OH245219   4.934   1.169  13.391 -0.0413  0.3725  0.5191
 7935TIP3    H145220   4.999   1.159  13.321 -0.8548 -1.2316 -0.0460
 7935TIP3    H245221   4.985   1.167  13.472  0.6748 -0.3461  0.0651
 7936TIP3   OH245222   5.428   4.442   4.882  0.0482 -0.6060  0.1185
 7936TIP3    H145223   5.427   4.411   4.791  2.3215  0.9492 -0.5301
 7936TIP3    H245224   5.349   4.495   4.890 -2.2797 -3.7770  0.3399
 7937TIP3   OH245225   2.591   4.142   0.777 -0.0342 -0.1670 -0.4269
 7937TIP3    H145226   2.545   4.065   0.744  0.6265 -0.8902  0.2792
 7937TIP3    H245227   2.684   4.121   0.767  0.1847 -0.1507  1.2149
 7938TIP3   OH245228   3.298   0.445   1.756  0.2872 -0.2092  0.0578
 7938TIP3    H145229   3.303   0.352   1.735  1.0131  0.0348 -0.9448
 7938TIP3    H245230   3.342   0.488   1.683  0.5871  0.8784  0.8496
 7939TIP3   OH245231   4.317   1.608   5.502 -0.2890 -0.1901 -0.2291
 7939TIP3    H145232   4.403   1.565   5.496 -0.3710 -0.4004  0.0535
 7939TIP3    H245233   4.273   1.562   5.574 -0.9644 -0.6665 -0.9199
 7940TIP3   OH245234   6.509   3.318   2.413  0.1786 -0.5005  0.2101
 7940TIP3    H145235   6.459   3.236   2.424 -1.0661  0.2022 -0.0346
 7940TIP3    H245236   6.559   3.305   2.333  0.8359 -1.4374  0.7556
 7941TIP3   OH245237   1.109   1.958   5.780  0.2067  0.0853 -0.4872
 7941TIP3    H145238   1.057   1.885   5.746  0.9481 -1.3789  1.4057
 7941TIP3    H245239   1.101   1.951   5.875 -0.2003  2.8785 -0.2375
 7942TIP3   OH245240   4.820   0.612  12.108  0.3741 -0.1914 -0.0961
 7942TIP3    H145241   4.837   0.688  12.052 -0.2260 -1.0517 -1.5028
 7942TIP3    H245242   4.892   0.552  12.088  0.0299 -0.6005 -0.1078
 7943TIP3   OH245243   5.314   2.651  16.596 -0.4000 -0.1697  0.0399
 7943TIP3    H145244   5.352   2.644  16.684 -0.4284 -0.9418 -0.0078
 7943TIP3    H245245   5.332   2.741  16.570  0.6091 -0.2615  0.3838
 7944TIP3   OH245246   6.705   2.834  17.175 -0.3035  0.6106 -0.0521
 7944TIP3    H145247   6.706   2.929  17.180 -1.2010  0.7349 -1.8171
 7944TIP3    H245248   6.631   2.807  17.230 -0.1542  0.9241  0.3059
 7945TIP3   OH245249   0.258   6.249  13.448  0.0497  0.3409  0.2202
 7945TIP3    H145250   0.279   6.157  13.461 -0.6968  0.1175 -0.0766
 7945TIP3    H245251   0.180   6.264  13.502 -1.0840  0.2483 -1.3281
 7946TIP3   OH245252   5.183   1.523  13.679 -0.0340  0.6175  0.1119
 7946TIP3    H145253   5.149   1.512  13.768  0.8314 -0.5431  0.3191
 7946TIP3    H245254   5.269   1.563  13.690  0.3670 -0.1645 -0.1613
 7947TIP3   OH245255   3.741   6.301   4.000  0.5692 -0.2717 -0.0040
 7947TIP3    H145256   3.673   6.253   3.951 -0.8059 -1.7154  3.0128
 7947TIP3    H245257   3.823   6.265   3.968 -0.3402 -2.7981  0.2414
 7948TIP3   OH245258   1.892   0.811   1.176 -0.1596  0.3424 -0.1078
 7948TIP3    H145259   1.817   0.836   1.230  0.8795  0.9570  1.1091
 7948TIP3    H245260   1.884   0.865   1.098 -1.1917  0.1191 -0.1632
 7949TIP3   OH245261   0.230   0.106  13.097 -0.2151  0.7209 -0.0789
 7949TIP3    H145262   0.276   0.174  13.147 -0.7603  1.8035 -0.9930
 7949TIP3    H245263   0.156   0.081  13.153 -0.8200  1.9176 -0.3055
 7950TIP3   OH245264   1.704   0.084  14.769 -0.1694 -0.0039  0.2569
 7950TIP3    H145265   1.624   0.050  14.728 -0.0341  0.3340 -0.2938
 7950TIP3    H245266   1.687   0.177  14.782 -0.0102 -0.0070  0.4934
 7951TIP3   OH245267   3.588   4.413   3.803  0.2788 -0.1787 -0.8066
 7951TIP3    H145268   3.543   4.465   3.871  1.2730 -0.7669  0.3341
 7951TIP3    H245269   3.599   4.327   3.842  1.1331 -0.4478 -1.6064
 7952TIP3   OH245270   1.998   3.521  14.094  0.0502  0.0492  0.1533
 7952TIP3    H145271   2.042   3.563  14.020 -3.1009  0.6693 -1.5518
 7952TIP3    H245272   2.035   3.433  14.098  0.7183  0.2070 -1.7761
 7953TIP3   OH245273   2.790   3.427  13.659  0.0213  0.6524  0.0603
 7953TIP3    H145274   2.798   3.463  13.571 -2.1878 -1.7898 -1.2698
 7953TIP3    H245275   2.836   3.343  13.656 -0.0022  0.5750  1.2702
 7954TIP3   OH245276   4.362   2.105  11.899 -0.2745 -0.1767  0.7298
 7954TIP3    H145277   4.368   2.201  11.895 -0.4882 -0.1596  0.7992
 7954TIP3    H245278   4.275   2.085  11.866 -1.2251 -0.1804  3.0304
 7955TIP3   OH245279   4.831   3.632  14.056 -0.2704 -0.1787 -0.0403
 7955TIP3    H145280   4.777   3.610  13.980  0.0682 -0.5216 -0.1842
 7955TIP3    H245281   4.894   3.696  14.023 -0.1228 -0.3280 -0.0472
 7956TIP3   OH245282   4.660   0.376   5.057  0.4074 -0.2505  0.1073
 7956TIP3    H145283   4.582   0.326   5.032 -0.8947  2.1266 -0.8483
 7956TIP3    H245284   4.704   0.393   4.974  1.2491 -0.4481  0.5096
 7957TIP3   OH245285   3.243   3.622   2.899 -0.4660 -0.6860  0.4512
 7957TIP3    H145286   3.306   3.610   2.969 -0.1078  0.5528  0.3710
 7957TIP3    H245287   3.188   3.695   2.929  0.1141  0.3131 -0.8270
 7958TIP3   OH245288   2.026   3.794  16.232  0.6034  0.3759 -0.4834
 7958TIP3    H145289   1.934   3.770  16.242  0.3572  1.2961 -0.4514
 7958TIP3    H245290   2.074   3.719  16.265 -0.1308 -0.2517 -0.7936
 7959TIP3   OH245291   1.207   1.699   2.705  0.7790 -0.1142  0.2808
 7959TIP3    H145292   1.159   1.779   2.726  1.5834  0.8943 -1.5012
 7959TIP3    H245293   1.145   1.629   2.726 -0.1672  0.9822  1.3218
 7960TIP3   OH245294   4.299   1.343  14.790  0.0260  0.6958 -0.3642
 7960TIP3    H145295   4.270   1.378  14.874  0.5483  1.9251 -0.6726
 7960TIP3    H245296   4.232   1.372  14.728 -1.0326 -1.2642 -0.2193
 7961TIP3   OH245297   2.395   5.023  14.498  0.1622 -0.0993 -0.1209
 7961TIP3    H145298   2.404   4.934  14.464 -0.4568 -0.3136  0.2684
 7961TIP3    H245299   2.301   5.042  14.494 -0.0751 -0.4808  2.3080
 7962TIP3   OH245300   0.503   1.616  16.999  0.5858  0.2573 -0.3967
 7962TIP3    H145301   0.534   1.544  17.055  1.1420 -1.8021 -3.1506
 7962TIP3    H245302   0.409   1.599  16.989  0.7729 -0.3115 -1.2903
 7963TIP3   OH245303   5.296   3.381   4.520  0.1322  0.8797  0.5212
 7963TIP3    H145304   5.376   3.410   4.476 -1.1676  0.1042 -2.6182
 7963TIP3    H245305   5.255   3.462   4.550 -0.1985  1.8234 -2.1894
 7964TIP3   OH245306   6.287   3.191  15.034  0.2499 -0.2315 -0.4747
 7964TIP3    H145307   6.292   3.174  14.940 -1.2964 -1.7899 -0.3243
 7964TIP3    H245308   6.216   3.136  15.064  0.6034  0.3776  1.6038
 7965TIP3   OH245309   1.783   3.917   0.412 -0.1829  0.7594  0.0142
 7965TIP3    H145310   1.704   3.885   0.370  0.0385  1.4301 -0.9357
 7965TIP3    H245311   1.855   3.881   0.360  0.1191  0.8762  0.3439
 7966TIP3   OH245312   2.944   1.060  11.050 -0.1832  0.0123 -0.0036
 7966TIP3    H145313   2.856   1.092  11.067 -0.1762 -0.0077  0.0689
 7966TIP3    H245314   2.942   0.968  11.078  0.9283  0.9571  3.7054
 7967TIP3   OH245315   1.208   2.209   2.146  0.7355 -0.1195 -0.5342
 7967TIP3    H145316   1.140   2.153   2.184  1.7611 -1.1063 -0.0638
 7967TIP3    H245317   1.165   2.254   2.074 -1.1911  1.4853  1.4828
 7968TIP3   OH245318   3.886   0.330  17.208 -0.2215  0.6608 -0.0420
 7968TIP3    H145319   3.817   0.372  17.156 -1.0542  1.1880  1.4580
 7968TIP3    H245320   3.966   0.372  17.178 -0.2787 -1.0309 -2.9256
 7969TIP3   OH245321   5.330   2.927  15.643 -0.3928 -0.3205  0.1471
 7969TIP3    H145322   5.358   3.010  15.682  0.8334 -1.1281  1.0517
 7969TIP3    H245323   5.391   2.862  15.679 -1.1322 -1.5652 -0.7918
 7970TIP3   OH245324   0.259   2.055   1.513 -0.7703 -0.3377 -0.7300
 7970TIP3    H145325   0.249   2.085   1.422 -1.5411 -0.6305 -0.7539
 7970TIP3    H245326   0.213   2.122   1.565  0.0520  0.0631 -0.5087
 7971TIP3   OH245327   0.154   3.159   0.902  0.5969 -0.0438 -0.3202
 7971TIP3    H145328   0.094   3.093   0.867  1.0496 -0.1628 -0.8982
 7971TIP3    H245329   0.181   3.210   0.825  0.1593  0.8985  0.1386
 7972TIP3   OH245330   1.561   0.609   0.604  0.7305  0.0839 -0.3893
 7972TIP3    H145331   1.507   0.534   0.630  1.0230 -0.0296 -0.1066
 7972TIP3    H245332   1.623   0.620   0.676 -0.1511  1.4231  0.2296
 7973TIP3   OH245333   5.437   6.487  15.934  0.3690 -0.0446 -0.0767
 7973TIP3    H145334   5.412   6.503  16.025  1.2534  0.7145  0.0491
 7973TIP3    H245335   5.455   6.574  15.898  1.1548 -0.4162 -0.6319
 7974TIP3   OH245336   4.625   6.031   5.016  0.2855  0.0444  0.3878
 7974TIP3    H145337   4.679   6.006   5.091  2.7942 -0.8285 -1.5765
 7974TIP3    H245338   4.585   5.949   4.986 -0.6683  0.3802  0.6972
 7975TIP3   OH245339   6.679   2.090  14.218 -0.0861 -0.1863  0.2061
 7975TIP3    H145340   6.693   2.150  14.145  1.7325  0.1950  0.8256
 7975TIP3    H245341   6.728   2.011  14.194 -2.4846 -1.5350 -0.6284
 7976TIP3   OH245342   4.926   3.201   0.497 -0.0025 -0.7095  0.1919
 7976TIP3    H145343   4.940   3.187   0.403 -0.2192 -1.5051  0.2730
 7976TIP3    H245344   5.014   3.200   0.534  0.1244  0.1431 -0.0689
 7977TIP3   OH245345   3.470   5.248   6.113 -0.3531  0.2622 -0.5099
 7977TIP3    H145346   3.565   5.255   6.118 -0.3915  0.6745 -0.2744
 7977TIP3    H245347   3.440   5.339   6.110 -0.7431  0.1343 -0.5315
 7978TIP3   OH245348   2.295   0.555  14.180 -0.2533 -0.5413  0.3547
 7978TIP3    H145349   2.379   0.601  14.179  0.2539 -1.4326 -1.3502
 7978TIP3    H245350   2.290   0.517  14.268  0.9575 -0.1986  0.5966
 7979TIP3   OH245351   6.063   0.897   5.024 -0.5450 -0.5316 -0.4529
 7979TIP3    H145352   6.002   0.825   5.012 -1.5479  0.3932 -1.0264
 7979TIP3    H245353   6.009   0.971   5.050  0.4381  0.0821 -0.0802
 7980TIP3   OH245354   2.074   5.702  14.380 -0.0695  0.3014 -0.0840
 7980TIP3    H145355   2.130   5.653  14.321  1.1931 -0.5796  1.7720
 7980TIP3    H245356   2.084   5.794  14.353  0.6264 -0.0649 -1.0919
 7981TIP3   OH245357   1.643   3.214   0.124 -0.2672  0.5485  0.0991
 7981TIP3    H145358   1.568   3.157   0.107  0.3648 -0.5091  0.7580
 7981TIP3    H245359   1.718   3.154   0.132  0.6801  1.5792 -0.6349
 7982TIP3   OH245360   1.337   3.425  16.547  0.5678 -0.2499 -0.3775
 7982TIP3    H145361   1.377   3.502  16.508  1.3476 -0.5784 -0.2437
 7982TIP3    H245362   1.244   3.434  16.528  0.5608  1.0554  0.2225
 7983TIP3   OH245363   6.435   5.681  11.069 -0.1258  0.4375 -0.0408
 7983TIP3    H145364   6.433   5.777  11.065 -3.1475  0.5506  1.5423
 7983TIP3    H245365   6.410   5.653  10.981  0.0885  1.1064 -0.3232
 7984TIP3   OH245366   4.573   0.822   4.678 -0.1012 -0.4808  0.3678
 7984TIP3    H145367   4.499   0.861   4.630  1.1779  0.8352 -0.6021
 7984TIP3    H245368   4.534   0.747   4.723 -2.1407  0.4545  0.2897
 7985TIP3   OH245369   0.525   6.080   1.963  0.2420 -0.1145  0.6003
 7985TIP3    H145370   0.558   6.105   1.876  0.9171  0.0382  0.8954
 7985TIP3    H245371   0.551   6.152   2.020  3.6920 -2.0787  1.8197
 7986TIP3   OH245372   5.333   2.157   3.893 -0.0276  0.5451  0.4242
 7986TIP3    H145373   5.377   2.079   3.926  3.6640  2.6633  1.0770
 7986TIP3    H245374   5.304   2.133   3.804 -0.4398 -1.9565  1.1636
 7987TIP3   OH245375   4.340   0.027  16.078 -0.0721  0.4439 -0.0775
 7987TIP3    H145376   4.324   0.110  16.032  0.6433  1.3630  1.2863
 7987TIP3    H245377   4.431   0.007  16.061 -0.1270  0.1653 -0.0460
 7988TIP3   OH245378   6.739   2.496  15.991 -0.2635 -0.1180 -0.1503
 7988TIP3    H145379   6.779   2.434  15.930  0.7152  1.3078 -1.0429
 7988TIP3    H245380   6.800   2.499  16.065 -0.9158 -1.0762  0.4354
 7989TIP3   OH245381   1.124   3.913  12.463 -0.2651  1.1224 -0.3951
 7989TIP3    H145382   1.195   3.928  12.526 -0.5734  0.7288  0.0515
 7989TIP3    H245383   1.162   3.938  12.378  0.9083 -0.4093 -0.3816
 7990TIP3   OH245384   1.018   4.577  15.828 -0.2552  0.0539  0.5550
 7990TIP3    H145385   0.973   4.516  15.769 -0.5543 -0.0805  0.9172
 7990TIP3    H245386   1.078   4.522  15.878 -0.1859  0.1263  0.5513
 7991TIP3   OH245387   6.002   4.897  12.657 -0.1706  0.0455 -0.0323
 7991TIP3    H145388   5.946   4.900  12.734 -1.7230  1.4412 -1.1418
 7991TIP3    H245389   5.953   4.843  12.594  0.1960  0.4500 -0.6717
 7992TIP3   OH245390   6.187   5.521   4.716 -0.0683  0.3592 -0.1202
 7992TIP3    H145391   6.186   5.543   4.622  0.2341  1.1146  0.0450
 7992TIP3    H245392   6.278   5.499   4.735 -0.2682 -0.5267 -0.1591
 7993TIP3   OH245393   3.504   6.763  17.059 -0.1894 -0.0449  0.2597
 7993TIP3    H145394   3.551   6.685  17.090 -0.7831 -0.6091 -0.2427
 7993TIP3    H245395   3.483   6.811  17.138  0.7563 -0.0584  0.5355
 7994TIP3   OH245396   6.058   6.299  10.991  0.3785 -0.1118 -0.6084
 7994TIP3    H145397   5.986   6.237  10.980  1.0862 -1.1391  0.2863
 7994TIP3    H245398   6.029   6.356  11.062 -1.1727  2.0108 -2.7862
 7995TIP3   OH245399   4.956   4.525   0.372 -0.1937 -0.2523 -0.3924
 7995TIP3    H145400   4.917   4.600   0.416  1.6128  1.5937 -1.7087
 7995TIP3    H245401   5.050   4.542   0.374  0.3732 -2.9636  0.0080
 7996TIP3   OH245402   1.925   1.807  14.905  0.2697  0.0288 -0.6985
 7996TIP3    H145403   1.890   1.896  14.904 -0.4497 -0.2445 -0.3175
 7996TIP3    H245404   1.863   1.756  14.852  1.6050  0.0749 -2.4174
 7997TIP3   OH245405   2.960   0.470   1.389 -0.9716  0.2368 -0.1603
 7997TIP3    H145406   2.974   0.430   1.475 -2.1685 -1.7456 -0.8352
 7997TIP3    H245407   2.921   0.555   1.409  0.3605  0.5755  1.2770
 7998TIP3   OH245408   3.150   3.844  16.587  0.0140  0.5069  0.4341
 7998TIP3    H145409   3.069   3.844  16.534  0.1400  2.5808  0.1683
 7998TIP3    H245410   3.206   3.780  16.544 -0.7130  0.5667 -0.6473
 7999TIP3   OH245411   5.654   0.589   0.678  0.6087  0.2073 -0.2387
 7999TIP3    H145412   5.575   0.585   0.732  1.4756 -0.8395  1.0010
 7999TIP3    H245413   5.621   0.598   0.589 -0.9097 -0.2728  0.2429
 8000TIP3   OH245414   4.665   1.199  13.800  0.1876  0.1047 -0.3552
 8000TIP3    H145415   4.750   1.230  13.828  0.6877 -0.9334 -0.6552
 8000TIP3    H245416   4.684   1.132  13.733 -0.8210 -0.6559  0.0834
 8001TIP3   OH245417   1.745   6.766   1.816  0.3327  0.4570 -0.2617
 8001TIP3    H145418   1.801   6.824   1.764  0.7188  0.0891 -0.2611
 8001TIP3    H245419   1.789   6.759   1.901  0.7384 -0.4929 -0.5312
 8002TIP3   OH245420   2.581   0.513   2.371 -0.8335 -0.4453  0.1942
 8002TIP3    H145421   2.603   0.596   2.328 -1.0009  0.0021  0.9512
 8002TIP3    H245422   2.557   0.455   2.299 -1.6920  0.4745 -0.2925
 8003TIP3   OH245423   3.531   4.048  12.813 -0.1588 -0.3507 -0.1072
 8003TIP3    H145424   3.608   4.041  12.756  0.1533 -0.0176  0.2676
 8003TIP3    H245425   3.563   4.026  12.900 -0.1941  0.9655  0.2664
 8004TIP3   OH245426   2.668   2.141   6.738  0.2602 -0.7919 -0.3317
 8004TIP3    H145427   2.704   2.083   6.806  1.7610  0.8209  0.3325
 8004TIP3    H245428   2.667   2.087   6.659  0.5966 -2.0381  0.4777
 8005TIP3   OH245429   2.041   1.074  16.198 -0.4888  0.3207 -0.3173
 8005TIP3    H145430   2.044   0.989  16.241 -0.1797  0.2111 -0.5483
 8005TIP3    H245431   2.092   1.132  16.255 -0.5066  0.2961 -0.2763
 8006TIP3   OH245432   1.099   3.919  11.913  0.2541 -0.6528 -0.0658
 8006TIP3    H145433   1.146   3.989  11.958  0.2278  0.4947 -1.7032
 8006TIP3    H245434   1.137   3.838  11.946  1.2124  0.1758  0.9080
 8007TIP3   OH245435   0.415   5.678   4.866  0.0718 -0.4708  0.0169
 8007TIP3    H145436   0.457   5.623   4.800 -1.8659  0.4689 -2.0948
 8007TIP3    H245437   0.343   5.721   4.821 -1.1365  0.5292  2.6661
 8008TIP3   OH245438   5.462   2.807   1.655  0.2520 -0.4112  0.2621
 8008TIP3    H145439   5.419   2.816   1.570  0.4341 -0.4394  0.1682
 8008TIP3    H245440   5.551   2.839   1.641 -0.1935  1.1967  0.8483
 8009TIP3   OH245441   4.612   2.843   5.098 -0.4370 -0.5754 -0.0372
 8009TIP3    H145442   4.554   2.828   5.173  1.6179  0.1170  1.8054
 8009TIP3    H245443   4.660   2.761   5.089 -0.9394 -0.7820 -0.8499
 8010TIP3   OH245444   4.108   2.560  14.793 -0.4999  0.0704 -0.2948
 8010TIP3    H145445   4.094   2.574  14.886 -1.0182  0.2829 -0.3990
 8010TIP3    H245446   4.131   2.467  14.785 -0.5151  0.0396  0.0346
 8011TIP3   OH245447   1.176   0.342   5.816  0.0843  0.2498 -0.2822
 8011TIP3    H145448   1.256   0.344   5.870 -0.3525 -2.4606  0.5950
 8011TIP3    H245449   1.110   0.302   5.872 -1.1746 -0.0735 -1.9196
 8012TIP3   OH245450   1.809   5.387  16.424  0.3167 -0.1480 -0.1417
 8012TIP3    H145451   1.846   5.398  16.336  0.1432 -1.0590 -0.3350
 8012TIP3    H245452   1.792   5.293  16.431  2.5786 -0.4896  1.7658
 8013TIP3   OH245453   2.171   2.499   4.392  0.4055  0.0807  0.0734
 8013TIP3    H145454   2.195   2.550   4.469  0.6779 -0.0647  0.0875
 8013TIP3    H245455   2.106   2.553   4.347  0.9628  0.6171 -0.1091
 8014TIP3   OH245456   3.022   4.910   4.837 -0.1328 -0.1015 -0.5604
 8014TIP3    H145457   2.963   4.851   4.885 -0.5784 -1.6973 -2.8946
 8014TIP3    H245458   3.106   4.864   4.834 -0.0404  0.0861 -1.0448
 8015TIP3   OH245459   4.807   0.400  13.196 -0.2950  0.5957  0.7587
 8015TIP3    H145460   4.758   0.468  13.241 -0.8763  0.1466  0.8152
 8015TIP3    H245461   4.828   0.336  13.264 -0.9377  0.0510  0.4538
 8016TIP3   OH245462   0.160   2.666   2.631 -0.1745 -1.3691 -0.8038
 8016TIP3    H145463   0.073   2.652   2.593  0.0095 -2.4719 -0.8538
 8016TIP3    H245464   0.207   2.716   2.564 -0.9799 -0.1120 -0.4700
 8017TIP3   OH245465   3.393   3.097  15.106  0.5328 -0.0772  0.0939
 8017TIP3    H145466   3.340   3.175  15.126  1.5413  0.6187  0.1661
 8017TIP3    H245467   3.342   3.049  15.041 -0.9675 -0.3193  1.3741
 8018TIP3   OH245468   4.915   1.885   3.846 -0.4954  0.1119 -0.4800
 8018TIP3    H145469   4.853   1.816   3.824  0.0311 -0.3188 -0.6217
 8018TIP3    H245470   4.953   1.911   3.762 -0.3767  0.2771 -0.3768
 8019TIP3   OH245471   2.171   4.521  10.578  0.2865  0.6539 -0.5261
 8019TIP3    H145472   2.146   4.436  10.541  1.6604  0.0417 -0.1286
 8019TIP3    H245473   2.224   4.563  10.510 -1.3407  1.7349 -1.1836
 8020TIP3   OH245474   0.453   5.258   0.365  0.3448 -0.0979  0.1254
 8020TIP3    H145475   0.445   5.276   0.271  0.8213 -0.3104  0.0413
 8020TIP3    H245476   0.441   5.163   0.371 -0.9075  0.0651  0.4208
 8021TIP3   OH245477   6.363   5.243   2.474  0.1273  0.1362 -0.4321
 8021TIP3    H145478   6.342   5.304   2.545  0.2290  0.0905 -0.3627
 8021TIP3    H245479   6.430   5.185   2.511  2.6782  2.1317 -1.5575
 8022TIP3   OH245480   0.625   3.422  13.677  0.4597 -0.4388 -0.7868
 8022TIP3    H145481   0.702   3.447  13.728 -0.5900  0.7438  0.2889
 8022TIP3    H245482   0.607   3.498  13.622  0.4378 -0.9711 -1.5323
 8023TIP3   OH245483   5.115   1.937  16.753 -0.7897  0.3851  0.3386
 8023TIP3    H145484   5.054   1.864  16.757 -0.4199  0.0670  0.2073
 8023TIP3    H245485   5.086   1.996  16.823  0.0746 -0.7952  1.7614
 8024TIP3   OH245486   1.661   3.706   2.207 -0.3626 -0.1180 -0.7611
 8024TIP3    H145487   1.756   3.712   2.197 -0.1986 -0.1963  0.5425
 8024TIP3    H245488   1.628   3.786   2.166  0.4413  0.9521  0.5742
 8025TIP3   OH245489   4.855   1.250   5.184 -0.2332 -0.0653  0.0596
 8025TIP3    H145490   4.915   1.217   5.251 -0.3868  0.0824  0.2709
 8025TIP3    H245491   4.769   1.247   5.225 -0.1649  1.2772  0.3440
 8026TIP3   OH245492   1.376   3.752   3.060 -0.2503 -0.0628 -0.6018
 8026TIP3    H145493   1.431   3.696   3.006  1.1047  1.3320 -0.7553
 8026TIP3    H245494   1.338   3.694   3.126 -0.8723 -1.5539 -2.2296
 8027TIP3   OH245495   5.434   2.114  15.112 -0.3084 -0.2790 -0.0629
 8027TIP3    H145496   5.524   2.138  15.090 -0.1674 -2.0082 -1.6718
 8027TIP3    H245497   5.440   2.022  15.138 -1.5357 -0.2183  0.4971
 8028TIP3   OH245498   3.149   5.458  16.516 -0.2861  0.3655 -0.2709
 8028TIP3    H145499   3.228   5.404  16.513 -0.2268  0.3614  0.8939
 8028TIP3    H245500   3.077   5.396  16.510 -0.2120  0.1909  0.5604
 8029TIP3   OH245501   3.127   2.111   4.013 -0.4190  0.4635 -0.1612
 8029TIP3    H145502   3.132   2.024   4.054 -1.9441  1.8005  3.2566
 8029TIP3    H245503   3.044   2.110   3.967 -0.5237  0.1657  0.0265
 8030TIP3   OH245504   2.401   0.951   5.611 -0.3645  0.0525  0.4672
 8030TIP3    H145505   2.399   0.978   5.519 -2.0286  0.6289  0.6397
 8030TIP3    H245506   2.484   0.986   5.644  0.5843 -0.7444 -0.9597
 8031TIP3   OH245507   3.536   2.395   4.011 -0.2012  0.4230 -0.4770
 8031TIP3    H145508   3.554   2.448   3.933  1.0924  1.8505  0.7373
 8031TIP3    H245509   3.591   2.432   4.079 -2.2654  0.1001  1.5026
 8032TIP3   OH245510   5.453   5.249   1.255  0.2442  0.4070 -0.6007
 8032TIP3    H145511   5.371   5.264   1.208 -1.4546  1.4471  2.4772
 8032TIP3    H245512   5.469   5.155   1.245 -2.4969 -0.2635  0.4043
 8033TIP3   OH245513   3.465   2.751   1.344 -0.4462 -0.1581 -0.1188
 8033TIP3    H145514   3.441   2.817   1.279 -0.2524  0.1728  0.1430
 8033TIP3    H245515   3.519   2.689   1.296 -1.6427 -0.8018 -0.6723
 8034TIP3   OH245516   2.361   5.573   2.219 -0.2703 -0.4904 -0.0968
 8034TIP3    H145517   2.326   5.623   2.145 -0.1423 -2.1616 -1.3514
 8034TIP3    H245518   2.447   5.543   2.189  0.4153  0.0139  1.3161
 8035TIP3   OH245519   4.551   4.145   4.728 -0.4053 -0.0041 -0.4903
 8035TIP3    H145520   4.466   4.103   4.743  0.3388 -0.5495  3.3313
 8035TIP3    H245521   4.532   4.239   4.730 -0.9030 -0.0836  1.6256
 8036TIP3   OH245522   5.738   3.295  13.186 -0.4464 -0.4176 -0.2692
 8036TIP3    H145523   5.712   3.386  13.173 -0.1729 -0.5350 -1.8490
 8036TIP3    H245524   5.817   3.284  13.132  1.0952 -0.9233  1.9080
 8037TIP3   OH245525   3.999   0.907   4.477 -0.4167 -0.1496  0.0894
 8037TIP3    H145526   3.904   0.902   4.482 -0.3905  0.7743  2.7909
 8037TIP3    H245527   4.022   0.986   4.525  1.7850 -0.8707  0.3398
 8038TIP3   OH245528   6.134   1.702  16.040 -0.1303 -0.0593 -0.0619
 8038TIP3    H145529   6.183   1.622  16.057  0.3781  0.1335 -0.5958
 8038TIP3    H245530   6.155   1.760  16.113 -0.6771 -0.4893  0.4455
 8039TIP3   OH245531   0.954   4.618   5.081 -0.2802 -0.5923  0.3719
 8039TIP3    H145532   0.945   4.528   5.047  0.9740 -0.1861 -1.1494
 8039TIP3    H245533   0.868   4.657   5.068 -0.6267 -1.3358  0.3444
 8040TIP3   OH245534   5.108   0.383  16.063 -0.4072  0.7032  0.7216
 8040TIP3    H145535   5.077   0.308  16.013  0.0152  0.2533  1.1377
 8040TIP3    H245536   5.039   0.399  16.128 -0.4407  0.6068  0.7088
 8041TIP3   OH245537   5.398   5.119  14.497 -0.5170  0.2832  0.3894
 8041TIP3    H145538   5.368   5.052  14.559  1.2578 -0.0471  0.9405
 8041TIP3    H245539   5.493   5.107  14.492 -0.6420 -0.1223 -2.9133
 8042TIP3   OH245540   1.941   5.998  14.693 -0.0843 -0.1031 -0.3368
 8042TIP3    H145541   2.032   5.981  14.718 -0.6182  0.4425  2.2831
 8042TIP3    H245542   1.899   5.912  14.695 -0.2472 -0.0176  1.4626
 8043TIP3   OH245543   1.825   0.328  15.296  0.3685  0.9761  0.3191
 8043TIP3    H145544   1.738   0.310  15.331  0.4403 -0.0231  0.0358
 8043TIP3    H245545   1.811   0.353  15.205  0.3877  0.5814  0.2051
 8044TIP3   OH245546   3.763   6.185  11.208 -0.0065  0.4864  0.3481
 8044TIP3    H145547   3.766   6.191  11.112 -1.4468 -0.5792  0.2110
 8044TIP3    H245548   3.703   6.113  11.226  0.8030  0.1920  2.0619
 8045TIP3   OH245549   0.641   0.591   2.130  0.2384  0.2028 -0.0196
 8045TIP3    H145550   0.732   0.564   2.145  0.1174 -1.1978 -1.5901
 8045TIP3    H245551   0.590   0.533   2.187  0.2437  0.0396 -0.1806
 8046TIP3   OH245552   5.429   2.486  14.234 -0.2765 -0.1774  0.0508
 8046TIP3    H145553   5.523   2.495  14.251  0.1985 -2.0994 -1.2580
 8046TIP3    H245554   5.413   2.392  14.241 -2.1712  0.1434  0.4638
 8047TIP3   OH245555   5.718   4.646   5.477 -0.1033 -0.3318 -0.0903
 8047TIP3    H145556   5.625   4.627   5.488 -0.3632 -1.6029 -3.3671
 8047TIP3    H245557   5.761   4.560   5.488  0.6368  0.1226  0.7207
 8048TIP3   OH245558   2.967   6.396   4.392  0.2214 -0.4422 -0.3845
 8048TIP3    H145559   2.872   6.394   4.393  0.2120 -0.8440  1.4145
 8048TIP3    H245560   2.993   6.335   4.461  1.7032  1.6358  1.0136
 8049TIP3   OH245561   2.525   6.079   0.249 -0.0741  0.0684  0.5095
 8049TIP3    H145562   2.528   6.142   0.176  0.0318 -1.0076 -0.4474
 8049TIP3    H245563   2.480   6.003   0.213 -0.5553 -0.2639  1.7668
 8050TIP3   OH245564   1.591   5.385   1.650 -0.0332 -0.2645  0.6678
 8050TIP3    H145565   1.513   5.336   1.625 -0.5363  0.5989  0.5304
 8050TIP3    H245566   1.558   5.460   1.700  0.5611  1.1287 -0.9582
 8051TIP3   OH245567   4.078   2.050  15.055 -0.0212 -0.0276 -0.1012
 8051TIP3    H145568   4.132   2.125  15.082 -2.8292  3.0626 -2.3251
 8051TIP3    H245569   4.134   2.000  14.995  1.2812  1.4479 -0.1781
 8052TIP3   OH245570   2.968   0.844   0.959 -0.3716 -0.3888  0.1288
 8052TIP3    H145571   2.970   0.756   0.922 -0.6157 -0.7025  0.8370
 8052TIP3    H245572   2.883   0.879   0.933 -0.1279 -0.2228 -0.4565
 8053TIP3   OH245573   1.036   1.269   1.104  0.2083 -0.3590 -0.0898
 8053TIP3    H145574   1.027   1.278   1.009 -0.3941  2.8840  0.1396
 8053TIP3    H245575   0.948   1.251   1.135  0.3845 -1.2918 -0.0917
 8054TIP3   OH245576   3.663   1.553   2.438 -0.5774 -0.1440  0.0921
 8054TIP3    H145577   3.696   1.494   2.370  2.9520 -0.4928  1.8492
 8054TIP3    H245578   3.631   1.494   2.506  0.3270  0.0010  0.6618
 8055TIP3   OH245579   5.130   4.515   4.309  0.2753 -0.1537  0.7752
 8055TIP3    H145580   5.063   4.457   4.275  0.1223 -0.3036  1.3270
 8055TIP3    H245581   5.100   4.603   4.285  0.3461 -0.2759  0.2253
 8056TIP3   OH245582   1.808   0.794  15.452 -0.2638 -0.5011  0.8540
 8056TIP3    H145583   1.886   0.849  15.452 -0.4732 -0.1952  0.1181
 8056TIP3    H245584   1.841   0.706  15.437 -0.2180 -0.0955 -1.8407
 8057TIP3   OH245585   4.366   5.577   4.822 -0.0340 -0.2306 -0.7389
 8057TIP3    H145586   4.338   5.554   4.911  1.8667  0.2908  0.0383
 8057TIP3    H245587   4.459   5.554   4.820 -0.3684 -1.6987 -3.1178
 8058TIP3   OH245588   4.516   3.664   0.973  0.0697 -0.9973  0.2491
 8058TIP3    H145589   4.441   3.720   0.995  0.6471  0.0892 -0.4537
 8058TIP3    H245590   4.546   3.629   1.057 -0.9904 -1.1492  0.5794
 8059TIP3   OH245591   2.448   1.328  12.662  0.1509  0.0815  0.2536
 8059TIP3    H145592   2.455   1.424  12.662  2.2914 -0.0083  1.2981
 8059TIP3    H245593   2.430   1.305  12.571  4.0483  1.2995 -1.0099
 8060TIP3   OH245594   0.059   1.210   1.710 -0.4590  0.6286  0.0701
 8060TIP3    H145595   0.075   1.248   1.796  0.2889  1.0462 -0.2469
 8060TIP3    H245596  -0.006   1.141   1.726 -1.8451  2.0099  0.6513
 8061TIP3   OH245597   1.253   5.397  11.798 -0.0806  0.2156  0.2728
 8061TIP3    H145598   1.264   5.378  11.705 -1.0154  1.6504 -0.1646
 8061TIP3    H245599   1.309   5.474  11.814  0.2730 -0.1711  0.9706
 8062TIP3   OH245600   4.055   1.698  15.795  0.5566 -0.0244  0.6858
 8062TIP3    H145601   4.087   1.690  15.706  4.0827  1.9523  1.5827
 8062TIP3    H245602   4.122   1.655  15.849 -0.0288  1.2404  2.5444
 8063TIP3   OH245603   5.487   2.907   1.917  0.1683  0.0613  0.2734
 8063TIP3    H145604   5.474   2.876   1.828  1.7423  1.0100 -0.3243
 8063TIP3    H245605   5.407   2.881   1.963  0.6583 -3.2988 -0.5407
 8064TIP3   OH245606   0.465   4.144  14.816  0.1313 -0.2326 -0.4004
 8064TIP3    H145607   0.439   4.054  14.837  0.3965 -0.0010  0.9806
 8064TIP3    H245608   0.541   4.134  14.759  0.6345 -0.8827  0.3773
 8065TIP3   OH245609   0.642   1.836  17.013 -0.1238 -0.1883  0.1948
 8065TIP3    H145610   0.584   1.762  16.993 -2.1877  1.4953 -0.4386
 8065TIP3    H245611   0.704   1.801  17.077 -0.3383 -2.7342 -0.8454
 8066TIP3   OH245612   4.480   2.240   6.346 -0.3448  0.3436 -0.0808
 8066TIP3    H145613   4.491   2.286   6.429 -1.0458  2.0985 -0.9272
 8066TIP3    H245614   4.563   2.193   6.334 -1.0223 -1.8302  2.6596
 8067TIP3   OH245615   1.354   5.927  13.954 -0.0362 -0.2972 -0.1344
 8067TIP3    H145616   1.398   5.897  13.875 -1.6066 -0.4781 -0.9776
 8067TIP3    H245617   1.309   5.849  13.987  0.0380 -0.0558  0.5495
 8068TIP3   OH245618   5.633   6.295  15.303 -0.0586  0.3235  0.0735
 8068TIP3    H145619   5.602   6.245  15.378 -1.4348  1.9861  0.6736
 8068TIP3    H245620   5.689   6.234  15.255  0.1020 -1.0769  1.9246
 8069TIP3   OH245621   1.838   1.878  12.969  0.0504  0.2473 -0.3130
 8069TIP3    H145622   1.912   1.829  13.005 -2.0879 -1.4953  2.0703
 8069TIP3    H245623   1.859   1.889  12.877  1.7844 -3.1040 -0.4527
 8070TIP3   OH245624   2.857   1.651   0.857 -0.1485 -0.6551  0.3553
 8070TIP3    H145625   2.867   1.623   0.767  0.9710 -1.5603  0.7341
 8070TIP3    H245626   2.845   1.746   0.851  1.9388 -0.3861 -0.6712
 8071TIP3   OH245627   1.404   5.534   4.451 -0.0632 -0.1123  0.1334
 8071TIP3    H145628   1.471   5.523   4.384 -0.5388  1.8172 -0.7294
 8071TIP3    H245629   1.325   5.561   4.403 -1.3126 -1.6963  1.1799
 8072TIP3   OH245630   4.787   3.379  12.203  0.1373  0.5002  0.3223
 8072TIP3    H145631   4.698   3.385  12.169  0.4801  1.4416 -0.4458
 8072TIP3    H245632   4.801   3.463  12.246 -0.1566 -0.5086  2.5537
 8073TIP3   OH245633   5.451   3.117  16.839 -0.8584  1.0443 -0.2145
 8073TIP3    H145634   5.515   3.176  16.799  0.6010  1.4250  2.4780
 8073TIP3    H245635   5.471   3.031  16.802 -1.3688  1.7586 -2.2832
 8074TIP3   OH245636   4.812   5.335   0.503  0.2118 -0.0933  0.1535
 8074TIP3    H145637   4.886   5.281   0.476  0.2457  0.4569 -0.8926
 8074TIP3    H245638   4.849   5.422   0.515  0.3824 -0.4514  2.9100
 8075TIP3   OH245639   0.260   3.118   0.478 -0.0193 -0.6205 -0.4125
 8075TIP3    H145640   0.224   3.037   0.443 -3.3180  1.3830 -2.0747
 8075TIP3    H245641   0.186   3.178   0.484  1.9244  1.8370  2.3662
 8076TIP3   OH245642   1.124   6.660  12.024 -0.2223  0.2597  0.2652
 8076TIP3    H145643   1.059   6.623  11.965 -0.1441 -1.4521  1.2002
 8076TIP3    H245644   1.100   6.628  12.111  0.7518  1.1904  0.9110
 8077TIP3   OH245645   6.037   5.734  10.482  0.7179  0.6331 -0.4439
 8077TIP3    H145646   6.074   5.654  10.445 -1.7767 -1.4174  1.1242
 8077TIP3    H245647   5.942   5.725  10.470  0.1570  2.0502  2.1432
 8078TIP3   OH245648   0.225   6.779   3.355 -0.6585  0.2559 -0.3189
 8078TIP3    H145649   0.152   6.806   3.411 -0.1876  0.7923  0.0493
 8078TIP3    H245650   0.219   6.837   3.279  1.0494  2.3103  1.0022
 8079TIP3   OH245651   0.954   0.307  15.240 -0.5093  0.1438  0.5521
 8079TIP3    H145652   0.951   0.233  15.178 -0.0998  0.6321 -0.0683
 8079TIP3    H245653   1.016   0.368  15.200  0.4547  0.0837  1.8995
 8080TIP3   OH245654   1.151   2.352   2.790 -0.5266 -0.1677  0.3141
 8080TIP3    H145655   1.170   2.318   2.878 -1.0668 -0.1624  0.4360
 8080TIP3    H245656   1.097   2.429   2.806 -0.1592  0.1554 -0.0041
 8081TIP3   OH245657   5.262   6.783   6.625 -0.0848  0.2986 -0.4250
 8081TIP3    H145658   5.263   6.798   6.530  1.3934  1.3530 -0.2777
 8081TIP3    H245659   5.351   6.758   6.646 -0.4916 -0.2753  0.6514
 8082TIP3   OH245660   2.741   2.060  14.215 -0.0597 -0.1572 -0.5553
 8082TIP3    H145661   2.701   2.143  14.241  1.4370  0.2628  0.4827
 8082TIP3    H245662   2.737   2.061  14.119 -0.0595  1.1153 -0.5585
 8083TIP3   OH245663   5.644   2.664  15.161  0.4093 -0.0833  0.1982
 8083TIP3    H145664   5.709   2.631  15.223  2.3117  0.5949 -1.3281
 8083TIP3    H245665   5.579   2.709  15.216  2.2990  0.9563  1.7060
 8084TIP3   OH245666   4.506   4.298  14.342  0.0085 -0.0972  0.3082
 8084TIP3    H145667   4.444   4.366  14.369  0.0275 -0.3769  1.0546
 8084TIP3    H245668   4.586   4.347  14.322 -0.5282  0.3015 -0.9674
 8085TIP3   OH245669   4.568   0.637   5.885  0.5744 -0.1221  0.2317
 8085TIP3    H145670   4.536   0.548   5.873 -0.7054  0.0621  1.9274
 8085TIP3    H245671   4.633   0.631   5.954 -1.0287  0.5006  1.8685
 8086TIP3   OH245672   6.639   6.607   2.005 -0.5289  0.0093  0.7171
 8086TIP3    H145673   6.605   6.644   1.924 -0.0839 -1.7868 -0.3420
 8086TIP3    H245674   6.719   6.656   2.024 -0.0804 -0.2233 -0.5128
 8087TIP3   OH245675   4.633   4.909  16.013  0.1336 -0.0713  0.1735
 8087TIP3    H145676   4.594   4.990  16.045  0.7223  1.0114 -1.7186
 8087TIP3    H245677   4.723   4.912  16.044 -0.4267 -1.1667  2.0597
 8088TIP3   OH245678   4.211   0.747   5.714  0.3856  0.3934  0.1138
 8088TIP3    H145679   4.195   0.688   5.788  0.9634  0.8595  0.6149
 8088TIP3    H245680   4.208   0.835   5.752 -0.1396  0.6883 -0.5707
 8089TIP3   OH245681   5.498   3.411   1.268 -0.0652  0.6634  0.3488
 8089TIP3    H145682   5.435   3.377   1.205  0.3463  0.4540  0.0420
 8089TIP3    H245683   5.457   3.399   1.353  0.5257 -1.6920  0.3685
 8090TIP3   OH245684   1.626   3.489  15.926  0.0814  0.1723  0.8941
 8090TIP3    H145685   1.708   3.468  15.969  0.3173 -0.3708  0.2091
 8090TIP3    H245686   1.623   3.585  15.924  1.0579  0.2029  0.2759
 8091TIP3   OH245687   5.580   2.221  14.694  0.4904  0.1831  0.1556
 8091TIP3    H145688   5.535   2.145  14.732 -0.0478  0.2369 -0.3584
 8091TIP3    H245689   5.525   2.246  14.620  1.7104 -0.1508 -0.9061
 8092TIP3   OH245690   0.221   1.030  17.123  0.2172 -0.0181 -0.1866
 8092TIP3    H145691   0.283   1.046  17.193 -0.5241  0.3360  0.4083
 8092TIP3    H245692   0.269   0.978  17.059  0.8191 -0.5870  0.7111
 8093TIP3   OH245693   4.549   1.173  14.662 -0.5882  0.0041  0.1390
 8093TIP3    H145694   4.619   1.171  14.596 -1.1738 -1.0778 -0.4638
 8093TIP3    H245695   4.520   1.264  14.663  0.2089  0.2717 -0.2578
 8094TIP3   OH245696   2.173   2.882   3.390  0.1330  0.0398  0.4002
 8094TIP3    H145697   2.213   2.831   3.462  2.6965  0.3506 -0.6999
 8094TIP3    H245698   2.216   2.967   3.395  0.8403 -0.1397 -1.8642
 8095TIP3   OH245699   2.147   6.131   2.176  0.3012 -0.3901 -0.3028
 8095TIP3    H145700   2.130   6.131   2.082 -0.3539  1.5516 -0.2282
 8095TIP3    H245701   2.201   6.208   2.191 -1.1308  0.4001  1.1345
 8096TIP3   OH245702   5.656   0.809   1.238 -0.4852 -0.1002 -0.3391
 8096TIP3    H145703   5.742   0.836   1.204 -1.0897 -0.3493 -2.2018
 8096TIP3    H245704   5.637   0.873   1.306  0.8692  0.3887 -0.3757
 8097TIP3   OH245705   5.661   2.111   0.137  0.5176 -0.4023 -0.1227
 8097TIP3    H145706   5.647   2.108   0.043  1.5021 -1.5285 -0.2482
 8097TIP3    H245707   5.578   2.145   0.172 -0.2565 -0.9968 -1.2972
 8098TIP3   OH245708   3.123   2.798  13.760  0.0078  0.1279  0.3646
 8098TIP3    H145709   3.116   2.803  13.665  0.1605 -1.4048  0.2397
 8098TIP3    H245710   3.215   2.813  13.779 -0.2314  1.7224  0.4094
 8099TIP3   OH245711   6.769   4.871  14.268  0.3187 -0.4891 -0.1330
 8099TIP3    H145712   6.803   4.810  14.333  1.1862 -0.9781 -1.0301
 8099TIP3    H245713   6.779   4.826  14.184  0.0830  0.5025 -0.7152
 8100TIP3   OH245714   4.687   2.552   2.548 -0.0574  0.2971 -0.2847
 8100TIP3    H145715   4.621   2.487   2.521 -0.4432  0.5267  0.0890
 8100TIP3    H245716   4.770   2.508   2.535 -0.3210 -0.3329  0.0905
 8101TIP3   OH245717   6.406   2.247  15.473  0.2989 -0.0312 -0.2455
 8101TIP3    H145718   6.376   2.323  15.522  0.4257 -0.8887  1.2159
 8101TIP3    H245719   6.395   2.173  15.534  0.1150 -1.1948 -1.6342
 8102TIP3   OH245720   1.797   6.027   4.804 -0.3796  0.1708 -0.3213
 8102TIP3    H145721   1.850   6.093   4.849 -1.1575  0.6973 -0.1599
 8102TIP3    H245722   1.757   5.976   4.874 -0.7106  0.2842 -0.4250
 8103TIP3   OH245723   0.210   1.133  12.234 -0.1930 -0.5609 -0.2037
 8103TIP3    H145724   0.291   1.087  12.254  0.8412  0.8280 -1.0629
 8103TIP3    H245725   0.202   1.128  12.139 -0.5187  0.2763 -0.2317
 8104TIP3   OH245726   0.296   0.803  12.549 -0.2073  0.5838 -0.3430
 8104TIP3    H145727   0.264   0.824  12.637  0.9292  0.7886  0.0335
 8104TIP3    H245728   0.391   0.815  12.554  0.4342 -3.0478 -0.5176
 8105TIP3   OH245729   2.628   0.883  14.351  0.1229 -0.2620 -0.0337
 8105TIP3    H145730   2.620   0.977  14.339 -0.2315 -0.3870 -0.9213
 8105TIP3    H245731   2.705   0.871  14.407  0.9341  0.5020 -0.9550
 8106TIP3   OH245732   5.575   1.646  12.268  0.0805 -0.4160  0.1032
 8106TIP3    H145733   5.624   1.564  12.260  1.1578 -0.1698  2.9936
 8106TIP3    H245734   5.588   1.689  12.183  0.3670 -2.7024 -1.1182
 8107TIP3   OH245735   1.309   3.547  11.193 -0.0120  0.0317 -0.5561
 8107TIP3    H145736   1.330   3.506  11.277 -1.0264 -0.8178 -0.6915
 8107TIP3    H245737   1.216   3.526  11.179 -0.3640  1.7748 -0.9939
 8108TIP3   OH245738   0.907   2.085  10.934  0.7571 -0.1273  0.5605
 8108TIP3    H145739   0.926   2.130  10.851  0.5396 -1.2927 -0.1466
 8108TIP3    H245740   0.857   2.007  10.908 -0.4915  0.1831  1.9201
 8109TIP3   OH245741   5.964   5.368   6.044  0.2041 -0.1698  0.3528
 8109TIP3    H145742   5.985   5.450   6.088  1.8907 -0.4954  0.2480
 8109TIP3    H245743   6.046   5.342   6.002  0.5811 -3.2896  2.6611
 8110TIP3   OH245744   1.641   1.168   5.150  0.9099 -0.3824 -0.1398
 8110TIP3    H145745   1.574   1.219   5.195  1.7505  1.5316 -0.9577
 8110TIP3    H245746   1.718   1.175   5.206  1.1043 -0.5724 -0.3822
 8111TIP3   OH245747   0.419   4.945  13.358 -0.5933  0.9937  0.1646
 8111TIP3    H145748   0.402   4.951  13.264 -0.6650  0.2159  0.1288
 8111TIP3    H245749   0.477   4.870  13.367  1.5802  2.6232  0.4632
 8112TIP3   OH245750   4.992   2.758   4.067  0.0840 -0.1081  0.4329
 8112TIP3    H145751   4.996   2.762   4.163  2.8304 -0.4807  0.4056
 8112TIP3    H245752   5.084   2.759   4.039 -0.6138 -1.2534 -2.1587
 8113TIP3   OH245753   1.018   2.347  16.333 -0.0048 -0.1942  0.1043
 8113TIP3    H145754   0.977   2.328  16.418 -0.0639 -0.2433  0.0633
 8113TIP3    H245755   1.081   2.276  16.321  1.9098  1.1780  1.3509
 8114TIP3   OH245756   6.649   6.487   2.286 -0.1519 -0.4713  0.1735
 8114TIP3    H145757   6.658   6.549   2.214  0.9315 -0.7651  0.0365
 8114TIP3    H245758   6.591   6.530   2.349  1.3913  1.1352  0.5660
 8115TIP3   OH245759   3.799   6.461   4.377  0.1211 -0.4565  0.2695
 8115TIP3    H145760   3.794   6.510   4.459  0.3507  1.4039 -0.7629
 8115TIP3    H245761   3.886   6.481   4.342 -0.3037 -0.4643 -0.8399
 8116TIP3   OH245762   4.340   5.503  17.036 -0.1691 -0.2208 -0.0000
 8116TIP3    H145763   4.279   5.575  17.053 -0.9021 -0.9283  0.4624
 8116TIP3    H245764   4.321   5.476  16.946  0.1482  0.1997 -0.1942
 8117TIP3   OH245765   6.478   5.184  16.882  0.6072 -0.6656  0.0693
 8117TIP3    H145766   6.515   5.218  16.800  1.0587 -0.8361  0.2001
 8117TIP3    H245767   6.533   5.109  16.904 -0.4850 -1.5984 -0.2982
 8118TIP3   OH245768   1.645   3.945  15.339  0.3359  0.1727  0.0719
 8118TIP3    H145769   1.563   3.915  15.298 -0.6828  1.1365  1.3214
 8118TIP3    H245770   1.628   3.941  15.433  1.7433  0.3896  0.3587
 8119TIP3   OH245771   4.108   1.916   1.795  0.8505 -0.2010  0.4775
 8119TIP3    H145772   4.024   1.874   1.774  0.4853  1.2799 -1.3050
 8119TIP3    H245773   4.097   1.947   1.885 -1.5494  2.1110 -0.4816
 8120TIP3   OH245774   3.746   0.504   5.295  0.0762 -0.5644  1.0300
 8120TIP3    H145775   3.768   0.452   5.373  1.8785 -0.4426  0.6535
 8120TIP3    H245776   3.746   0.594   5.326 -1.9373 -0.6554  1.4377
 8121TIP3   OH245777   6.509   1.931  11.633  0.3880  0.2395  0.0304
 8121TIP3    H145778   6.538   2.021  11.646 -0.5335  0.6324 -0.5309
 8121TIP3    H245779   6.443   1.917  11.700  0.1088  0.1792 -0.2561
 8122TIP3   OH245780   4.672   5.176   0.668 -0.4024 -0.3750 -0.6818
 8122TIP3    H145781   4.669   5.094   0.619  1.6854 -0.8026 -0.1877
 8122TIP3    H245782   4.714   5.238   0.609 -1.3145  0.1650 -0.7839
 8123TIP3   OH245783   6.699   3.936  13.909 -1.0570 -0.0862  0.0509
 8123TIP3    H145784   6.691   3.841  13.917  1.7068 -0.2747  1.6697
 8123TIP3    H245785   6.746   3.949  13.826  0.5400 -0.3319  0.8792
 8124TIP3   OH245786   5.852   6.757   3.246 -0.0910  0.0972  0.1375
 8124TIP3    H145787   5.808   6.810   3.180  0.0240  0.1802  0.1267
 8124TIP3    H245788   5.846   6.667   3.213  0.5839  0.2142 -0.3452
 8125TIP3   OH245789   1.816   6.248  12.957 -0.2837 -0.1586 -0.6747
 8125TIP3    H145790   1.785   6.212  12.874 -1.0941 -1.1511  0.0192
 8125TIP3    H245791   1.757   6.209  13.022 -0.3410  1.4328  0.2580
 8126TIP3   OH245792   3.184   5.660  13.158  0.2602 -0.6919  0.4425
 8126TIP3    H145793   3.103   5.610  13.147 -0.9797  1.2074  0.3449
 8126TIP3    H245794   3.195   5.668  13.252 -0.6923  0.5165  0.4805
 8127TIP3   OH245795   2.865   3.451   5.522  0.0995 -0.7307 -0.3628
 8127TIP3    H145796   2.799   3.405   5.470 -0.4909 -2.0651  1.4513
 8127TIP3    H245797   2.830   3.539   5.534 -1.2628 -1.3521  0.3643
 8128TIP3   OH245798   4.317   1.837  12.583  0.2368  0.2873  0.2034
 8128TIP3    H145799   4.246   1.869  12.527 -0.3872  1.4457  1.5912
 8128TIP3    H245800   4.273   1.811  12.664  1.2974  0.1649  0.7510
 8129TIP3   OH245801   1.233   5.653  14.599  0.0275  0.0279  0.5477
 8129TIP3    H145802   1.163   5.682  14.657  0.8323  0.3581  1.3880
 8129TIP3    H245803   1.236   5.558  14.610 -0.3608 -0.0005  0.4177
 8130TIP3   OH245804   3.893   3.929   2.927 -0.0176  0.3537  0.3467
 8130TIP3    H145805   3.909   3.838   2.953 -1.1179 -0.3461 -1.2370
 8130TIP3    H245806   3.802   3.930   2.897 -0.1684  2.0995  0.7442
 8131TIP3   OH245807   4.455   1.830  15.146  0.3989 -0.0097  0.0120
 8131TIP3    H145808   4.371   1.789  15.169  0.6476 -1.3390 -1.3124
 8131TIP3    H245809   4.434   1.889  15.074  0.5600 -0.1376 -0.1382
 8132TIP3   OH245810   5.240   3.268   0.267  0.0270  0.1644  0.3994
 8132TIP3    H145811   5.265   3.177   0.250  3.4031  1.5402 -3.9683
 8132TIP3    H245812   5.316   3.305   0.312 -0.3180  1.2892  0.0747
 8133TIP3   OH245813   1.707   0.119  13.670  0.1041  0.0980  0.5741
 8133TIP3    H145814   1.687   0.082  13.584  2.0427  0.9446 -0.2928
 8133TIP3    H245815   1.633   0.177  13.689 -0.2811  0.0074 -0.5749
 8134TIP3   OH245816   5.223   2.106  10.749 -0.2412 -0.2159  0.1940
 8134TIP3    H145817   5.149   2.045  10.741  0.0838 -0.3633 -4.0214
 8134TIP3    H245818   5.293   2.066  10.698  1.4222  1.7730  0.7755
 8135TIP3   OH245819   6.134   0.832  16.390  0.1255  0.4837  0.1656
 8135TIP3    H145820   6.142   0.920  16.428 -0.4818  1.2284 -1.3341
 8135TIP3    H245821   6.041   0.812  16.395 -0.1505  1.0666 -1.8367
 8136TIP3   OH245822   6.233   5.374  16.470 -0.3946 -0.4434 -0.0714
 8136TIP3    H145823   6.210   5.282  16.464 -1.2506 -0.4972  2.5306
 8136TIP3    H245824   6.261   5.386  16.561  1.8409  1.4278 -0.9079
 8137TIP3   OH245825   4.446   6.491  11.522  0.2574 -0.3987 -0.3859
 8137TIP3    H145826   4.421   6.551  11.593  1.5809 -1.4005  0.9918
 8137TIP3    H245827   4.538   6.473  11.537  0.6051 -0.5824 -2.4687
 8138TIP3   OH245828   4.340   0.033   6.548  0.4070 -0.3700 -0.0150
 8138TIP3    H145829   4.416   0.067   6.502 -0.7904  1.6563 -0.6090
 8138TIP3    H245830   4.273   0.101   6.538 -1.7795 -2.4357 -0.2546
 8139TIP3   OH245831   4.201   4.773   0.595  0.0860 -0.2658 -0.2999
 8139TIP3    H145832   4.180   4.769   0.501  0.1467  1.3439 -0.4241
 8139TIP3    H245833   4.205   4.867   0.613 -3.5048 -0.3936  2.0960
 8140TIP3   OH245834   4.906   2.793  16.218  0.0960  0.4050 -0.0699
 8140TIP3    H145835   4.960   2.740  16.276 -0.4837  1.8284  1.8649
 8140TIP3    H245836   4.953   2.876  16.209 -0.4628  0.6787 -0.5705
 8141TIP3   OH245837   0.152   4.610   6.139  0.4718 -0.2987 -0.2878
 8141TIP3    H145838   0.132   4.676   6.205  0.0662 -0.9104  0.2129
 8141TIP3    H245839   0.247   4.618   6.125  1.3718 -2.6022  3.1363
 8142TIP3   OH245840   6.466   5.704   4.848 -0.0572  0.4120 -0.1180
 8142TIP3    H145841   6.463   5.781   4.906 -1.4354 -0.2005  0.6673
 8142TIP3    H245842   6.497   5.633   4.904  1.0059  0.3256 -0.7874
 8143TIP3   OH245843   3.246   0.642  14.896  0.8431 -0.5376  0.5556
 8143TIP3    H145844   3.324   0.640  14.951  1.3769 -0.1707 -0.1757
 8143TIP3    H245845   3.229   0.551  14.875  1.4639 -0.5656  0.1716
 8144TIP3   OH245846   4.126   4.718   0.344  0.3419 -0.3350 -0.1607
 8144TIP3    H145847   4.086   4.634   0.367 -1.5295  0.5940  0.1707
 8144TIP3    H245848   4.118   4.723   0.249  1.1903 -0.8494 -0.2747
 8145TIP3   OH245849   6.343   1.377   3.455  0.3174 -0.2783  0.3833
 8145TIP3    H145850   6.354   1.463   3.497  0.0734 -1.3226  2.7533
 8145TIP3    H245851   6.402   1.319   3.505 -0.4504 -1.7356 -0.3483
 8146TIP3   OH245852   3.018   4.388  16.931 -0.2533  0.5528 -0.2116
 8146TIP3    H145853   2.995   4.445  17.004 -1.7031  1.6346 -1.4638
 8146TIP3    H245854   3.092   4.432  16.888  0.9920 -0.3793  0.8790
 8147TIP3   OH245855   5.675   0.186   0.715 -0.3847 -0.2198 -0.1606
 8147TIP3    H145856   5.594   0.235   0.722 -1.7188 -2.2379 -0.4830
 8147TIP3    H245857   5.694   0.185   0.621 -1.0124 -1.2114 -0.3021
 8148TIP3   OH245858   4.551   3.965  14.109 -0.1540 -0.1994 -0.0968
 8148TIP3    H145859   4.587   4.052  14.128  0.6886 -0.6021  0.2243
 8148TIP3    H245860   4.563   3.954  14.015  4.3626 -1.8718  0.4197
 8149TIP3   OH245861   2.446   1.698   3.522  0.4216 -0.0114 -0.5859
 8149TIP3    H145862   2.490   1.614   3.517 -0.1037 -0.3077 -0.3415
 8149TIP3    H245863   2.406   1.699   3.609 -0.4153  0.0596 -0.9567
 8150TIP3   OH245864   4.964   6.040   0.762 -0.3010  0.0465 -0.2032
 8150TIP3    H145865   4.995   5.955   0.731 -0.0129  0.4706 -1.1070
 8150TIP3    H245866   5.041   6.097   0.756 -0.9984  0.8881 -1.5987
 8151TIP3   OH245867   3.315   3.528  12.715 -0.9910 -0.2141  0.4997
 8151TIP3    H145868   3.302   3.509  12.808 -1.7055  0.5099  0.5572
 8151TIP3    H245869   3.388   3.589  12.713  0.3512 -1.7469  0.4178
 8152TIP3   OH245870   5.724   0.811   5.315  0.0701  0.0324  0.1763
 8152TIP3    H145871   5.676   0.894   5.317  1.1199  0.8050 -2.1917
 8152TIP3    H245872   5.816   0.836   5.329  0.2245 -0.9495  1.0005
 8153TIP3   OH245873   2.740   3.963   5.682 -0.1500 -0.4401 -0.3840
 8153TIP3    H145874   2.687   4.040   5.707  0.3282  0.5667 -2.2479
 8153TIP3    H245875   2.805   3.998   5.622  0.9436 -2.1233 -0.2336
 8154TIP3   OH245876   0.834   5.360   4.358 -0.0318 -0.0337  0.2487
 8154TIP3    H145877   0.914   5.348   4.409  1.5920  1.9014 -1.6851
 8154TIP3    H245878   0.850   5.315   4.275 -1.1519 -0.0523  0.0158
 8155TIP3   OH245879   5.864   6.588   3.563 -0.3815  0.0837 -0.1548
 8155TIP3    H145880   5.804   6.535   3.511 -0.1619  0.3704 -0.7105
 8155TIP3    H245881   5.942   6.597   3.509 -0.5538  1.2928 -0.2444
 8156TIP3   OH245882   5.063   5.165  11.250 -0.9513 -0.0729  0.2559
 8156TIP3    H145883   5.074   5.260  11.255 -2.0969  0.1637 -1.0539
 8156TIP3    H245884   4.999   5.152  11.180  2.1567 -1.9793 -2.5528
 8157TIP3   OH245885   4.670   1.470   4.826  0.0459  0.3867  0.2118
 8157TIP3    H145886   4.606   1.486   4.756 -0.5498 -0.3861  0.5638
 8157TIP3    H245887   4.659   1.377   4.848  0.2699  0.5989  1.2860
 8158TIP3   OH245888   3.945   6.140   0.670  0.4706  0.1207  0.2884
 8158TIP3    H145889   3.880   6.205   0.699  0.9708  0.6936  0.1378
 8158TIP3    H245890   3.905   6.055   0.691 -0.5668  0.4449 -0.3095
 8159TIP3   OH245891   1.287   2.409  12.820  0.6434 -0.0444 -0.1264
 8159TIP3    H145892   1.230   2.460  12.761  0.7162 -0.7366 -0.8138
 8159TIP3    H245893   1.298   2.465  12.896 -1.1030  0.0583  0.1108
 8160TIP3   OH245894   4.293   0.544   2.296 -0.3446 -0.2111 -0.4183
 8160TIP3    H145895   4.353   0.615   2.275  0.4159  0.2214  2.6623
 8160TIP3    H245896   4.207   0.585   2.300 -0.4996 -0.2960 -2.3351
 8161TIP3   OH245897   2.800   5.287  13.768  0.6075  0.0558 -0.3469
 8161TIP3    H145898   2.785   5.378  13.792  1.3502  1.2235 -3.6636
 8161TIP3    H245899   2.892   5.285  13.739 -0.0601 -1.0577 -2.6803
 8162TIP3   OH245900   1.544   6.342   4.825 -0.3133  0.0656  0.5803
 8162TIP3    H145901   1.610   6.378   4.766 -1.3341  0.8427 -0.1197
 8162TIP3    H245902   1.569   6.374   4.911  0.2154  0.3568  0.3246
 8163TIP3   OH245903   1.440   0.804   2.549 -0.6450 -0.0091  0.1610
 8163TIP3    H145904   1.492   0.856   2.610  1.4805 -1.0651 -0.6513
 8163TIP3    H245905   1.442   0.854   2.467 -1.7215  0.3827  0.3556
 8164TIP3   OH245906   4.493   2.851   5.352 -0.5326 -0.1630 -0.6196
 8164TIP3    H145907   4.426   2.797   5.393  0.7628 -0.3975  1.3577
 8164TIP3    H245908   4.476   2.939   5.385 -1.9337  0.4828 -2.9092
 8165TIP3   OH245909   2.760   2.967  12.512 -0.3922  0.1604  0.1561
 8165TIP3    H145910   2.824   2.907  12.473  0.0317  1.4042 -1.1449
 8165TIP3    H245911   2.766   2.950  12.606  0.8451 -0.7390 -0.0563
 8166TIP3   OH245912   4.643   4.200   6.644  0.6033  0.1318 -0.0268
 8166TIP3    H145913   4.688   4.233   6.567  1.6927 -0.8519  0.1593
 8166TIP3    H245914   4.551   4.225   6.632  0.2437 -2.0602 -2.8389
 8167TIP3   OH245915   0.367   5.199   4.649  0.4237 -0.7972 -0.0296
 8167TIP3    H145916   0.317   5.137   4.596  0.3151 -0.0077 -0.8792
 8167TIP3    H245917   0.453   5.203   4.608  1.5821 -2.8703  1.9801
 8168TIP3   OH245918   4.035   0.003  10.824 -0.4142  0.3963  0.3184
 8168TIP3    H145919   3.950   0.031  10.858 -0.3010 -0.7150  1.6376
 8168TIP3    H245920   4.028  -0.092  10.819  0.3633  0.3814 -0.7132
 8169TIP3   OH245921   6.689   6.095   4.682  0.1471 -0.0442 -0.5585
 8169TIP3    H145922   6.660   6.183   4.706  1.2082 -0.2398  1.6882
 8169TIP3    H245923   6.744   6.108   4.604 -0.0983  1.2030 -0.5505
 8170TIP3   OH245924   4.536   2.508   5.614  0.0322  0.6021 -0.4544
 8170TIP3    H145925   4.591   2.532   5.689  0.9802 -0.4001 -0.8065
 8170TIP3    H245926   4.459   2.467   5.653 -0.0245  1.1338  0.0088
 8171TIP3   OH245927   0.747   4.826   5.024  0.2491  0.4223  0.5803
 8171TIP3    H145928   0.699   4.838   5.107  0.1046 -0.9641  0.7317
 8171TIP3    H245929   0.696   4.875   4.960 -1.1466 -0.5980  0.8346
 8172TIP3   OH245930   2.805   6.744  12.121  0.1080  0.3044  0.1019
 8172TIP3    H145931   2.742   6.673  12.133  1.5874 -0.9449  0.8178
 8172TIP3    H245932   2.786   6.779  12.034  0.4036 -2.1210 -1.0199
 8173TIP3   OH245933   1.296   1.945   3.596  0.4373 -0.4156 -0.4017
 8173TIP3    H145934   1.310   2.027   3.643  0.0929 -1.0451  0.8343
 8173TIP3    H245935   1.344   1.880   3.647 -1.6763 -1.4883  0.3511
 8174TIP3   OH245936   1.219   1.654  15.670 -0.4172  0.1859 -0.6297
 8174TIP3    H145937   1.209   1.572  15.621 -0.7042  0.1270 -0.4762
 8174TIP3    H245938   1.313   1.669  15.673 -0.3816  0.0143 -0.9116
 8175TIP3   OH245939   5.352   1.323   5.052 -0.2010  0.8024 -0.1533
 8175TIP3    H145940   5.354   1.283   4.965  1.5682  0.0373  0.2000
 8175TIP3    H245941   5.283   1.389   5.046 -1.1873 -0.2931 -1.6518
 8176TIP3   OH245942   5.240   5.576   3.649  0.0663 -0.1555  1.1128
 8176TIP3    H145943   5.310   5.594   3.586 -0.4824 -0.5101  0.3849
 8176TIP3    H245944   5.275   5.605   3.733  0.8516  0.2341  0.6606
 8177TIP3   OH245945   3.927   2.624  11.210  0.6908 -0.3052 -0.4160
 8177TIP3    H145946   3.894   2.697  11.159  1.5934 -1.4274 -2.7175
 8177TIP3    H245947   4.022   2.628  11.200  0.8630 -0.9296  0.7162
 8178TIP3   OH245948   0.604   3.582   5.485 -0.4922  0.0829  0.1002
 8178TIP3    H145949   0.668   3.591   5.415 -0.0512  1.9399  0.6788
 8178TIP3    H245950   0.521   3.606   5.444 -0.1695  1.6077  0.2692
 8179TIP3   OH245951   2.266   1.250   0.774 -0.3010  0.2035  0.3737
 8179TIP3    H145952   2.235   1.239   0.684 -1.5701  0.3560  0.7661
 8179TIP3    H245953   2.263   1.345   0.789  2.4312  0.4607 -0.2456
 8180TIP3   OH245954   3.916   1.107  13.087 -0.3377 -0.3432  0.1340
 8180TIP3    H145955   3.989   1.048  13.105 -1.5682 -3.0719 -2.9095
 8180TIP3    H245956   3.872   1.117  13.171  2.5805  0.2141  1.7502
 8181TIP3   OH245957   3.206   1.866  15.263  0.1456  0.2902  0.1804
 8181TIP3    H145958   3.160   1.845  15.182 -1.7070 -0.0264  1.2715
 8181TIP3    H245959   3.165   1.946  15.295 -0.7504 -0.7934  1.9345
 8182TIP3   OH245960   1.293   0.682   1.659 -0.0658 -0.0918  1.0160
 8182TIP3    H145961   1.265   0.662   1.570 -0.2756  0.4681  0.9525
 8182TIP3    H245962   1.298   0.597   1.702 -0.7274 -0.3031  0.6920
 8183TIP3   OH245963   5.499   3.634  16.194  0.0658 -0.3092 -0.9660
 8183TIP3    H145964   5.471   3.707  16.250 -1.9247 -1.8276  0.1396
 8183TIP3    H245965   5.508   3.560  16.254 -0.4868 -1.5973 -2.4032
 8184TIP3   OH245966   5.983   1.165  15.330 -0.3019  0.5017  0.4148
 8184TIP3    H145967   6.068   1.198  15.300  0.8874 -2.6674 -0.1086
 8184TIP3    H245968   5.996   1.146  15.423 -0.3854 -0.0234  0.3239
 8185TIP3   OH245969   5.360   4.646  16.585 -0.1187 -0.5978  0.2058
 8185TIP3    H145970   5.432   4.662  16.524  1.7093  1.4281  2.6770
 8185TIP3    H245971   5.385   4.566  16.630  0.4112 -0.1386  0.7497
 8186TIP3   OH245972   5.975   1.604   5.323  0.1889  0.4136  0.3162
 8186TIP3    H145973   6.058   1.564   5.350 -0.1622 -1.0307 -0.6629
 8186TIP3    H245974   5.908   1.554   5.369 -0.2637 -0.2925 -1.0579
 8187TIP3   OH245975   6.025   1.341   2.206  0.7134 -0.2971 -0.3109
 8187TIP3    H145976   6.079   1.263   2.198  0.3161 -0.5245 -0.8142
 8187TIP3    H245977   6.049   1.378   2.291  1.1046 -0.8136 -0.1935
 8188TIP3   OH245978   6.171   2.027   4.448 -0.0687 -0.2396  0.5411
 8188TIP3    H145979   6.090   2.076   4.464 -1.3270 -1.7050 -1.0180
 8188TIP3    H245980   6.225   2.087   4.396  0.5804  1.3397  2.8652
 8189TIP3   OH245981   1.409   1.519  16.276  0.4073  0.4836 -0.5175
 8189TIP3    H145982   1.419   1.428  16.248  0.1074  0.5103 -0.7074
 8189TIP3    H245983   1.453   1.522  16.362  1.0648  0.3352 -0.8390
 8190TIP3   OH245984   1.216   0.011  14.683  0.0946 -0.0978  0.0205
 8190TIP3    H145985   1.204   0.077  14.616  1.4048 -0.0281 -0.1775
 8190TIP3    H245986   1.127  -0.016  14.707 -0.3985  0.0128 -1.5882
 8191TIP3   OH245987   5.196   3.418  11.187 -0.7179 -0.2233 -0.8574
 8191TIP3    H145988   5.271   3.460  11.144 -0.6403  0.5336 -0.0165
 8191TIP3    H245989   5.236   3.362  11.254 -0.9009  0.5930 -0.0450
 8192TIP3   OH245990   4.391   2.650   3.578  0.2710  0.4945  0.4681
 8192TIP3    H145991   4.374   2.595   3.501 -0.4222  0.7443  0.4445
 8192TIP3    H245992   4.430   2.730   3.543  2.8824 -0.5987  0.6143
 8193TIP3   OH245993   0.216   3.281  15.104 -0.6968 -0.3063  0.2352
 8193TIP3    H145994   0.267   3.201  15.111 -0.9821 -0.4843  0.3130
 8193TIP3    H245995   0.141   3.266  15.162 -1.1321 -0.2807 -0.3191
 8194TIP3   OH245996   6.379   0.083  12.209  0.2444 -0.7384 -0.0876
 8194TIP3    H145997   6.301   0.057  12.161 -0.1613 -0.9495  0.6706
 8194TIP3    H245998   6.353   0.160  12.260  0.5898 -0.6667 -0.0152
 8195TIP3   OH245999   5.346   0.729   1.811  0.0746 -0.9807 -0.2701
 8195TIP3    H146000   5.298   0.782   1.875 -1.4520 -0.7465 -1.5310
 8195TIP3    H246001   5.340   0.640   1.846 -0.5799 -0.8353  0.0146
 8196TIP3   OH246002   1.319   4.290   5.334 -0.7847  0.1440  0.4551
 8196TIP3    H146003   1.378   4.359   5.303  0.2272 -0.8597  0.0610
 8196TIP3    H246004   1.322   4.297   5.429 -0.3422  0.3717  0.4304
 8197TIP3   OH246005   0.333   4.522  12.049 -0.1714 -0.0025  0.2568
 8197TIP3    H146006   0.258   4.511  12.108 -0.2190 -0.3044  0.1438
 8197TIP3    H246007   0.399   4.567  12.102 -0.6985  0.9243  0.1337
 8198TIP3   OH246008   6.340   0.238  11.934 -0.1777 -0.3609  0.1902
 8198TIP3    H146009   6.286   0.183  11.992  0.2484  0.0386  0.9673
 8198TIP3    H246010   6.391   0.292  11.993 -1.2821  1.5866 -0.5530
 8199TIP3   OH246011   4.882   3.677   4.201 -0.4359  0.5982 -0.1698
 8199TIP3    H146012   4.921   3.761   4.179  0.6913 -0.1400 -1.1436
 8199TIP3    H246013   4.807   3.699   4.256 -0.3984  2.2454 -0.7189
 8200TIP3   OH246014   5.204   0.338   6.562  0.0327  0.5484 -0.1401
 8200TIP3    H146015   5.210   0.430   6.536  0.2286  0.3793 -0.7106
 8200TIP3    H246016   5.265   0.329   6.635 -0.7998  1.1180  0.6417
 8201TIP3   OH246017   2.187   0.499   5.848  0.1008 -0.0372  0.0796
 8201TIP3    H146018   2.144   0.429   5.801 -2.1742  1.9287 -0.9617
 8201TIP3    H246019   2.212   0.562   5.780  0.3513  1.0414  1.1389
 8202TIP3   OH246020   4.767   3.917  12.658  0.3450  0.3745  0.0958
 8202TIP3    H146021   4.818   3.980  12.608  0.2289  0.5962  0.2493
 8202TIP3    H246022   4.676   3.934  12.633  0.4622 -2.0097 -2.4698
 8203TIP3   OH246023   5.239   4.763  15.581 -0.3702  0.3859  0.0614
 8203TIP3    H146024   5.173   4.697  15.604  0.7962 -1.1655 -0.9292
 8203TIP3    H246025   5.254   4.750  15.488  1.9571  0.1202  0.4326
 8204TIP3   OH246026   2.687   1.480   2.772 -0.3741  0.2156  0.3895
 8204TIP3    H146027   2.634   1.554   2.743 -1.4217 -0.8707 -0.5828
 8204TIP3    H246028   2.701   1.496   2.865 -0.0474  1.9332  0.0814
 8205TIP3   OH246029   5.939   5.194   5.217 -0.2760  0.4991 -0.2866
 8205TIP3    H146030   6.008   5.169   5.278 -0.2606  0.8419 -0.1616
 8205TIP3    H246031   5.985   5.229   5.141 -0.2938  0.0317 -0.5174
 8206TIP3   OH246032   1.891   1.888  13.266 -0.2808 -0.2148 -0.4755
 8206TIP3    H146033   1.881   1.966  13.321 -0.1557 -0.5918  0.0901
 8206TIP3    H246034   1.884   1.921  13.177 -0.0614  0.4734 -0.2464
 8207TIP3   OH246035   0.612   0.838  15.998 -0.5857 -0.2392  0.0251
 8207TIP3    H146036   0.527   0.801  15.975 -0.3521 -0.4282 -0.5355
 8207TIP3    H246037   0.638   0.890  15.922 -0.9424  1.1578  0.8288
 8208TIP3   OH246038   4.526   6.593   1.481 -0.4600 -0.1408  0.3971
 8208TIP3    H146039   4.577   6.659   1.528 -2.1721 -0.1679  2.4240
 8208TIP3    H246040   4.521   6.626   1.391  0.0361  1.6820  0.9976
 8209TIP3   OH246041   1.968   0.650  16.807 -0.4895  0.6490 -0.6122
 8209TIP3    H146042   1.889   0.703  16.794  1.0760  3.0520 -0.8286
 8209TIP3    H246043   1.959   0.615  16.896 -2.0486  0.3282 -0.8540
 8210TIP3   OH246044   3.092   4.289   0.223  0.1240 -0.4885 -0.0113
 8210TIP3    H146045   3.156   4.359   0.210 -1.1418  0.7619  0.3479
 8210TIP3    H246046   3.103   4.263   0.315  2.3113 -2.5782 -0.7311
 8211TIP3   OH246047   5.271   6.755   2.778  0.1071  0.4683  0.5709
 8211TIP3    H146048   5.366   6.763   2.768  0.4068 -1.5375  1.2964
 8211TIP3    H246049   5.237   6.841   2.753  1.9119  0.5683 -1.9884
 8212TIP3   OH246050   3.670   6.132  16.271 -0.0945 -0.2786 -0.4112
 8212TIP3    H146051   3.582   6.100  16.249 -0.5214 -0.6541  1.6146
 8212TIP3    H246052   3.670   6.223  16.243 -1.5304  0.0291  0.4690
 8213TIP3   OH246053   6.022   3.213  16.349  0.3408  0.4149 -0.3823
 8213TIP3    H146054   6.084   3.240  16.417 -0.6213  1.7473  0.0051
 8213TIP3    H246055   5.948   3.177  16.398 -0.0173  0.6332 -0.7639
 8214TIP3   OH246056   2.346   3.067   5.439 -0.1277 -0.0527 -0.2688
 8214TIP3    H146057   2.439   3.068   5.418  0.0811 -2.6576  0.1935
 8214TIP3    H246058   2.342   3.085   5.533  0.1894 -2.0824  0.2001
 8215TIP3   OH246059   3.050   1.857  15.018  0.0576  0.1697 -0.9708
 8215TIP3    H146060   3.000   1.937  15.030  0.6063  0.3377  0.3750
 8215TIP3    H246061   2.998   1.805  14.957 -1.8940  0.2308  0.5425
 8216TIP3   OH246062   3.102   3.055   3.857  0.0199  0.3835  0.0640
 8216TIP3    H146063   3.037   2.996   3.895  2.2149 -0.6083  2.6337
 8216TIP3    H246064   3.107   3.030   3.765 -0.1415 -2.5586  0.7599
 8217TIP3   OH246065   0.585   3.148   3.844 -0.8764 -0.4262  0.6069
 8217TIP3    H146066   0.605   3.236   3.814  1.3261 -1.4917 -1.3082
 8217TIP3    H246067   0.494   3.134   3.818 -1.0949  1.0870  0.4958
 8218TIP3   OH246068   3.273   6.117   1.210 -0.3493 -0.1271  0.3915
 8218TIP3    H146069   3.361   6.091   1.238 -0.7483 -0.2715  1.5502
 8218TIP3    H246070   3.286   6.200   1.164  0.6406 -1.1770 -1.2851
 8219TIP3   OH246071   3.227   0.621   1.327  0.3876  0.2075 -0.1574
 8219TIP3    H146072   3.209   0.683   1.256 -1.1830 -1.2777 -1.1433
 8219TIP3    H246073   3.143   0.578   1.344  1.5788 -2.4268 -0.3050
 8220TIP3   OH246074   2.987   1.467   5.131 -0.6558 -0.1080 -0.4001
 8220TIP3    H146075   3.008   1.478   5.038 -1.2341  0.8551 -0.4259
 8220TIP3    H246076   2.900   1.428   5.132 -0.1420 -1.3069 -0.2563
 8221TIP3   OH246077   2.372   6.448  11.721 -0.2693 -0.0152  0.3131
 8221TIP3    H146078   2.285   6.457  11.758 -0.5785  0.4379 -0.5019
 8221TIP3    H246079   2.399   6.538  11.701 -0.4143 -0.2839 -1.2099
 8222TIP3   OH246080   6.662   5.173  12.102  0.2338 -0.3259 -0.7831
 8222TIP3    H146081   6.707   5.093  12.130 -0.1134  0.1480  1.2795
 8222TIP3    H246082   6.730   5.227  12.063  0.9664 -0.6526  0.0108
 8223TIP3   OH246083   0.720   6.309  16.543 -1.1363  0.1998  0.1458
 8223TIP3    H146084   0.755   6.374  16.604  0.5616  1.3784 -1.9238
 8223TIP3    H246085   0.648   6.354  16.499 -0.4236  0.4869 -0.7778
 8224TIP3   OH246086   3.410   4.706  14.102  0.2271 -0.2052  0.0619
 8224TIP3    H146087   3.450   4.678  14.185  1.0396 -2.0834 -0.8995
 8224TIP3    H246088   3.372   4.792  14.122  1.1723 -0.1912  2.1329
 8225TIP3   OH246089   6.280   6.269   2.343  0.0789 -0.2336  0.2094
 8225TIP3    H146090   6.219   6.314   2.402  1.0857  0.7259  0.5598
 8225TIP3    H246091   6.307   6.337   2.281 -0.6429 -1.1317 -1.1243
 8226TIP3   OH246092   3.264   3.561  14.398 -0.3989 -0.3344 -0.2962
 8226TIP3    H146093   3.292   3.552  14.489  0.9049 -0.9440 -0.7395
 8226TIP3    H246094   3.284   3.477  14.358 -1.9630 -0.4511 -0.9081
 8227TIP3   OH246095   1.665   5.250   3.274 -0.2512 -0.1681  0.0349
 8227TIP3    H146096   1.703   5.336   3.290 -0.3939 -0.1191  0.1229
 8227TIP3    H246097   1.591   5.246   3.335  0.1406 -0.6114  0.4931
 8228TIP3   OH246098   3.892   1.138  16.557  0.7331  0.3556  0.0679
 8228TIP3    H146099   3.917   1.055  16.597 -1.0402 -0.7427 -0.9863
 8228TIP3    H246100   3.937   1.139  16.473  0.3357  0.2214 -0.1463
 8229TIP3   OH246101   2.100   4.640   5.414  0.1893  0.5119 -0.1249
 8229TIP3    H146102   2.022   4.616   5.365  0.1726  2.9780 -1.4678
 8229TIP3    H246103   2.068   4.696   5.484  0.6204  0.2668  0.2754
 8230TIP3   OH246104   2.468   3.925  13.516 -0.1540  0.0424 -0.2428
 8230TIP3    H146105   2.515   3.843  13.526 -0.1965  0.1188  0.6461
 8230TIP3    H246106   2.535   3.993  13.527 -0.0779  0.1367 -1.1936
 8231TIP3   OH246107   4.967   0.594  13.330 -0.5133  0.7840 -0.8810
 8231TIP3    H146108   5.005   0.567  13.247  1.4057 -0.6273  0.3774
 8231TIP3    H246109   4.938   0.684  13.315  1.1447  1.0887 -2.6486
 8232TIP3   OH246110   5.766   1.211  11.234  0.0978  0.4132  0.5062
 8232TIP3    H146111   5.700   1.145  11.215  1.8709 -1.2406 -0.1760
 8232TIP3    H246112   5.787   1.199  11.327  0.4177  0.0140  0.3827
 8233TIP3   OH246113   5.904   5.444   1.601 -0.0752  0.2364 -0.0937
 8233TIP3    H146114   5.889   5.355   1.571  1.1486 -0.6110  1.6347
 8233TIP3    H246115   5.954   5.485   1.530 -1.4762 -0.1126 -1.3202
 8234TIP3   OH246116   0.947   2.517  14.523 -0.3444 -0.4955  0.0749
 8234TIP3    H146117   0.858   2.498  14.554 -1.0273 -0.1535 -1.5695
 8234TIP3    H246118   0.975   2.435  14.481  0.5950 -0.9762  1.5635
 8235TIP3   OH246119   4.105   5.151   2.926 -0.1137  0.2954 -0.4873
 8235TIP3    H146120   4.036   5.087   2.939 -0.4022  0.4184 -1.3497
 8235TIP3    H246121   4.164   5.139   3.001  0.1021 -1.3019 -0.8820
 8236TIP3   OH246122   1.741   2.456  16.469 -0.8009 -0.2011  0.3235
 8236TIP3    H146123   1.781   2.517  16.406  0.0485 -0.4650  0.5851
 8236TIP3    H246124   1.660   2.428  16.427 -0.7377  0.3896 -0.2133
 8237TIP3   OH246125   5.907   4.881   5.145  0.1062 -0.1316 -0.1829
 8237TIP3    H146126   5.973   4.846   5.085  1.3542 -0.4221  1.3094
 8237TIP3    H246127   5.923   4.836   5.228 -0.8655  1.0647  0.6906
 8238TIP3   OH246128   5.466   1.164   1.114 -0.2042  0.0488  0.5456
 8238TIP3    H146129   5.510   1.248   1.101 -2.2817  1.0003 -1.0598
 8238TIP3    H246130   5.373   1.184   1.102 -0.8013 -2.4227  0.5060
 8239TIP3   OH246131   1.925   1.483   0.901 -0.3383 -0.4615  0.2252
 8239TIP3    H146132   1.849   1.515   0.949 -0.9110 -0.6363 -0.5454
 8239TIP3    H246133   1.897   1.484   0.809  0.5255 -0.7068 -0.0448
 8240TIP3   OH246134   0.687   4.555   1.967 -0.0252 -0.0390 -0.2564
 8240TIP3    H146135   0.724   4.475   1.930 -1.1104  0.0814 -1.6756
 8240TIP3    H246136   0.593   4.541   1.967 -0.1023 -0.1917  2.9645
 8241TIP3   OH246137   4.196   0.769  12.738  0.0785 -0.0573  0.3498
 8241TIP3    H146138   4.234   0.762  12.650 -0.1831 -1.6872  0.3315
 8241TIP3    H246139   4.167   0.680  12.758  0.4765  0.2138  2.2568
 8242TIP3   OH246140   0.377   3.331  17.184  0.0875  0.9738  0.2067
 8242TIP3    H146141   0.314   3.337  17.112 -1.5703  2.5706  1.6821
 8242TIP3    H246142   0.347   3.258  17.237 -0.9068  2.0425  1.1806
 8243TIP3   OH246143   3.971   0.490  15.011 -0.3599 -0.2165  0.2298
 8243TIP3    H146144   3.983   0.474  14.918 -2.6194 -0.5902 -0.0427
 8243TIP3    H246145   3.942   0.581  15.017  1.0473  0.2433  0.7412
 8244TIP3   OH246146   5.603   1.578   2.706 -0.5987  0.1931  0.1425
 8244TIP3    H146147   5.528   1.588   2.765 -0.9748 -0.9032 -0.1209
 8244TIP3    H246148   5.563   1.574   2.618 -0.3339 -1.2199  0.0570
 8245TIP3   OH246149   5.528   0.015  14.289  0.5468 -0.4304  0.6196
 8245TIP3    H146150   5.566  -0.023  14.210  2.8965 -0.3336  1.6204
 8245TIP3    H246151   5.518  -0.058  14.349 -0.5228 -0.3806  0.5260
 8246TIP3   OH246152   4.614   0.375  12.339 -0.1141  0.1164 -0.3814
 8246TIP3    H146153   4.568   0.354  12.421  1.3410 -0.9976  0.1977
 8246TIP3    H246154   4.679   0.440  12.364  0.1481 -0.0208 -0.7026
 8247TIP3   OH246155   3.369   5.428   4.713  0.3615  0.0854  0.0025
 8247TIP3    H146156   3.292   5.406   4.661  1.3267 -2.4036 -0.5401
 8247TIP3    H246157   3.391   5.346   4.759  2.2484  0.9175  0.6959
 8248TIP3   OH246158   6.323   5.009  14.459  0.1694 -0.0591  0.3909
 8248TIP3    H146159   6.392   5.047  14.405 -0.7893  0.8257 -0.2483
 8248TIP3    H246160   6.359   4.925  14.487  2.3926  1.2590  1.8704
 8249TIP3   OH246161   5.441   4.533   4.412 -0.0070 -0.3797 -0.7203
 8249TIP3    H146162   5.409   4.623   4.417 -1.1290 -0.7685 -0.7864
 8249TIP3    H246163   5.401   4.497   4.332 -0.2106 -1.1827 -0.2657
 8250TIP3   OH246164   1.231   2.990   0.499 -0.2054  0.3436 -0.2328
 8250TIP3    H146165   1.290   3.053   0.541 -0.7113  2.2678 -2.2148
 8250TIP3    H246166   1.290   2.923   0.463  0.5628  0.8506  0.0397
 8251TIP3   OH246167   0.767   5.403  16.843  0.2126 -0.0942 -0.3853
 8251TIP3    H146168   0.826   5.457  16.790 -0.0820 -0.5537 -1.2165
 8251TIP3    H246169   0.685   5.403  16.793  0.2054 -1.2877 -0.3909
 8252TIP3   OH246170   0.366   2.634   5.579 -0.7029 -0.3791 -0.5506
 8252TIP3    H146171   0.360   2.638   5.484 -2.3848  1.4821 -0.4235
 8252TIP3    H246172   0.325   2.551   5.602  1.9341 -2.0765 -1.5029
 8253TIP3   OH246173   5.163   4.138   4.716 -0.1049 -0.8665  0.2389
 8253TIP3    H146174   5.189   4.135   4.624 -0.4805 -0.8650  0.1338
 8253TIP3    H246175   5.246   4.140   4.764  0.0930 -1.3906 -0.0795
 8254TIP3   OH246176   1.751   3.140  16.748 -0.3624  0.4002 -0.2235
 8254TIP3    H146177   1.730   3.232  16.764  1.8715  1.5015 -2.8802
 8254TIP3    H246178   1.824   3.121  16.807 -0.0758  0.6859 -0.4858
 8255TIP3   OH246179   3.544   1.442   0.412  0.0397  0.1245 -0.0751
 8255TIP3    H146180   3.460   1.440   0.459 -0.8570 -0.5058 -1.6209
 8255TIP3    H246181   3.595   1.509   0.458 -0.3218 -1.2065  2.4813
 8256TIP3   OH246182   0.636   5.986   3.471  0.7210 -0.3785  0.4518
 8256TIP3    H146183   0.651   5.903   3.515  0.2884  0.0202  1.3734
 8256TIP3    H246184   0.662   6.052   3.536  1.0518  0.2083 -0.2633
 8257TIP3   OH246185   2.828   5.704   5.187  0.5811  0.2445 -0.3194
 8257TIP3    H146186   2.792   5.790   5.165  0.4432  0.0407 -0.9047
 8257TIP3    H246187   2.879   5.679   5.110  0.5701 -0.2247 -0.1770
 8258TIP3   OH246188   2.782   1.451   3.033 -0.2728 -0.3083 -0.2922
 8258TIP3    H146189   2.852   1.515   3.044  0.8563 -1.5595  0.0464
 8258TIP3    H246190   2.783   1.400   3.114 -0.8612 -1.0147 -0.7168
 8259TIP3   OH246191   2.838   1.973   2.596 -0.3248  0.7330  1.0053
 8259TIP3    H146192   2.906   2.016   2.544  1.1324 -0.5139  1.8022
 8259TIP3    H246193   2.882   1.947   2.677 -0.8463 -2.7754  0.3629
 8260TIP3   OH246194   4.815   0.416  14.849  0.1785  0.0401  0.2459
 8260TIP3    H146195   4.851   0.328  14.837  1.9580  0.6641  0.7375
 8260TIP3    H246196   4.769   0.434  14.767  1.0285 -0.7941 -0.4393
 8261TIP3   OH246197   5.281   4.192   4.140  0.1101  0.5762  0.2340
 8261TIP3    H146198   5.367   4.162   4.112 -0.5546  0.0108 -1.3218
 8261TIP3    H246199   5.291   4.286   4.153  1.0967  0.4234  0.6877
 8262TIP3   OH246200   5.018   0.771  12.360 -0.8297 -0.0549  0.1878
 8262TIP3    H146201   5.102   0.741  12.325 -0.3689  1.3895 -0.0284
 8262TIP3    H246202   5.011   0.729  12.446  0.4707  0.3517  0.5208
 8263TIP3   OH246203   4.809   0.192  14.434  0.0708 -0.4518 -0.9726
 8263TIP3    H146204   4.732   0.234  14.471  1.1485  2.0437 -1.3421
 8263TIP3    H246205   4.798   0.099  14.454 -1.6253  0.1836  1.4323
 8264TIP3   OH246206   4.488   3.267  13.039  0.2051  0.1421  0.1737
 8264TIP3    H146207   4.512   3.180  13.006 -0.1513 -0.0442  0.3924
 8264TIP3    H246208   4.564   3.322  13.020  0.9555 -0.5095  1.1723
 8265TIP3   OH246209   6.680   5.612  16.768  0.3036  0.4447 -0.7530
 8265TIP3    H146210   6.698   5.610  16.862  0.0606  0.1065 -0.7120
 8265TIP3    H246211   6.643   5.526  16.749  0.5661  0.4292 -1.2027
 8266TIP3   OH246212   3.612   4.359   5.713  0.7200  0.0327  0.3868
 8266TIP3    H146213   3.554   4.284   5.727  0.7212  0.1659  1.1580
 8266TIP3    H246214   3.664   4.364   5.793 -0.8371  2.2234  1.3505
 8267TIP3   OH246215   5.590   4.405   0.159  0.2133  0.0313  0.4346
 8267TIP3    H146216   5.669   4.446   0.195  2.1770 -0.2254 -3.1336
 8267TIP3    H246217   5.528   4.478   0.150  1.8380  1.3405 -1.0734
 8268TIP3   OH246218   5.304   0.386   2.572  0.2544 -0.6333  0.1729
 8268TIP3    H146219   5.265   0.404   2.486  0.6078 -1.9265 -0.2846
 8268TIP3    H246220   5.374   0.451   2.580  0.1162 -0.3979 -0.4546
 8269TIP3   OH246221   2.800   4.867   3.865 -0.2076  0.0628 -0.5410
 8269TIP3    H146222   2.863   4.803   3.897  1.8165  1.3669 -1.6815
 8269TIP3    H246223   2.771   4.832   3.781  0.8170  0.5387 -1.1145
 8270TIP3   OH246224   5.712   2.410   1.625 -0.0996  0.1007  0.0705
 8270TIP3    H146225   5.688   2.446   1.710 -0.7934  0.7602 -0.3917
 8270TIP3    H246226   5.658   2.457   1.562  0.3669 -0.4062 -0.7408
 8271TIP3   OH246227   0.840   3.883  12.016 -0.1009  0.2179  0.0931
 8271TIP3    H146228   0.771   3.942  11.988  0.7315  1.5613  0.7826
 8271TIP3    H246229   0.916   3.908  11.963  0.3507 -0.0112  0.6161
 8272TIP3   OH246230   1.812   2.258   5.569 -0.8827 -0.1076  0.0878
 8272TIP3    H146231   1.845   2.343   5.599  0.0579 -0.7595  0.9875
 8272TIP3    H246232   1.883   2.222   5.515 -1.2882 -0.2985 -0.3168
 8273TIP3   OH246233   4.107   2.583   5.728 -0.4424 -0.1703  0.4312
 8273TIP3    H146234   4.042   2.567   5.660 -1.0465  0.2361  0.9003
 8273TIP3    H246235   4.188   2.546   5.694 -0.7337  0.0501 -0.5093
 8274TIP3   OH246236   3.863   5.463   5.523  0.5923  0.4877  0.3591
 8274TIP3    H146237   3.910   5.382   5.505  1.8729  1.7909 -3.0294
 8274TIP3    H246238   3.781   5.454   5.474  1.3882  1.7104 -1.3112
 8275TIP3   OH246239   4.162   0.016   3.555  0.4384  0.1169 -1.0378
 8275TIP3    H146240   4.149   0.102   3.516  3.1456 -0.2623 -3.0746
 8275TIP3    H246241   4.240   0.026   3.610  1.5402 -1.2323 -2.2762
 8276TIP3   OH246242   6.742   1.338  16.817 -0.2078  0.1687 -0.2952
 8276TIP3    H146243   6.668   1.385  16.855 -0.2748  0.0938 -0.3342
 8276TIP3    H246244   6.757   1.265  16.877 -0.8466 -0.4358 -0.8549
 8277TIP3   OH246245   6.141   1.018  16.882  0.1416 -0.3308 -0.2718
 8277TIP3    H146246   6.099   1.070  16.814 -2.2547 -0.5574  0.9079
 8277TIP3    H246247   6.143   0.929  16.846  0.9133 -0.0750 -0.8792
 8278TIP3   OH246248   5.680   5.614   4.792  0.0921 -0.9407 -0.0093
 8278TIP3    H146249   5.633   5.653   4.865  0.4128 -0.5589 -0.0032
 8278TIP3    H246250   5.654   5.522   4.793 -0.9644 -0.6593 -0.2552
 8279TIP3   OH246251   0.287   3.579   5.842  0.0958 -0.1402  0.1615
 8279TIP3    H146252   0.369   3.546   5.804  0.6132  0.6513  0.5479
 8279TIP3    H246253   0.246   3.629   5.771 -0.6639 -1.5232 -0.4086
 8280TIP3   OH246254   4.295   2.695   4.266 -0.1465 -0.1043  0.6885
 8280TIP3    H146255   4.248   2.667   4.187 -2.6409  1.5434  1.4389
 8280TIP3    H246256   4.340   2.775   4.240  1.3299 -1.0315  0.2860
 8281TIP3   OH246257   4.710   3.810  14.268  0.0394  0.5392  0.1931
 8281TIP3    H146258   4.654   3.867  14.215  0.5358  1.1786  0.3410
 8281TIP3    H246259   4.660   3.729  14.277 -0.7659  1.0157  0.1396
 8282TIP3   OH246260   2.563   5.800  12.022 -0.6455 -0.5055 -0.2061
 8282TIP3    H146261   2.563   5.777  12.115  1.2793  2.5312  0.6708
 8282TIP3    H246262   2.498   5.870  12.014  2.3564  2.5529 -0.0119
 8283TIP3   OH246263   0.893   0.112  11.191 -0.1466  0.3755  0.0707
 8283TIP3    H146264   0.864   0.201  11.211  1.7893  1.0464  0.0245
 8283TIP3    H246265   0.852   0.058  11.260  0.5329  1.6264  1.5158
 8284TIP3   OH246266   4.371   6.583  16.431 -0.4678 -0.3089  0.2012
 8284TIP3    H146267   4.374   6.532  16.513 -0.7139 -2.1368 -0.8566
 8284TIP3    H246268   4.461   6.580  16.399 -0.5773 -0.4719 -0.0892
 8285TIP3   OH246269   6.374   6.392   6.104  0.0859  0.4622  0.1084
 8285TIP3    H146270   6.327   6.327   6.156 -0.5999 -0.9592 -2.1510
 8285TIP3    H246271   6.459   6.400   6.146  0.3041 -2.1351  0.3219
 8286TIP3   OH246272   3.729   2.282   5.489  0.4900  0.1534 -0.3659
 8286TIP3    H146273   3.719   2.234   5.407  3.8394  0.9424 -1.3736
 8286TIP3    H246274   3.735   2.214   5.557  1.9447 -0.7368 -1.3467
 8287TIP3   OH246275   5.980   3.678   1.947 -0.3364 -0.2018  0.0250
 8287TIP3    H146276   5.980   3.747   2.014 -1.1109  1.3498 -1.4990
 8287TIP3    H246277   5.990   3.597   1.997  2.2242  1.0566  1.7875
 8288TIP3   OH246278   0.864   2.845  12.437  0.2894 -0.1213 -0.1042
 8288TIP3    H146279   0.786   2.822  12.488 -0.9887 -2.1825 -2.7416
 8288TIP3    H246280   0.831   2.908  12.373  1.0779 -0.1196 -0.5093
 8289TIP3   OH246281   4.666   2.575   1.481 -0.2092 -0.5499  0.3388
 8289TIP3    H146282   4.611   2.501   1.506 -1.6219  0.3698  0.1240
 8289TIP3    H246283   4.629   2.604   1.397  1.4336 -0.6784 -0.4632
 8290TIP3   OH246284   6.311   1.329   1.879 -0.1369 -0.5120 -0.1202
 8290TIP3    H146285   6.276   1.244   1.854 -0.1249 -1.2394  2.1073
 8290TIP3    H246286   6.241   1.370   1.930  0.5141  0.0175  0.3657
 8291TIP3   OH246287   1.937   1.214  12.853  0.5534  0.8352  0.5394
 8291TIP3    H146288   2.030   1.212  12.830  0.7155  1.2394  1.1467
 8291TIP3    H246289   1.930   1.280  12.922 -0.5602  2.6061 -1.1633
 8292TIP3   OH246290   2.763   1.657   1.674  0.4943 -0.1761  0.2809
 8292TIP3    H146291   2.730   1.636   1.587  0.7856 -0.9194  0.3424
 8292TIP3    H246292   2.699   1.719   1.710 -0.2360 -0.7436 -0.0233
 8293TIP3   OH246293   5.239   0.856  15.339 -0.2411  0.0209  0.2052
 8293TIP3    H146294   5.269   0.933  15.388 -1.1863 -0.1620  1.1014
 8293TIP3    H246295   5.163   0.824  15.388  1.5844 -2.9975  1.3335
 8294TIP3   OH246296   1.166   0.529   5.438  0.2803  0.0855  0.4133
 8294TIP3    H146297   1.245   0.549   5.387 -0.0440 -0.0992 -0.1748
 8294TIP3    H246298   1.176   0.437   5.462  0.8554  0.4042  1.4642
 8295TIP3   OH246299   1.799   5.686   0.941 -0.2824  0.3115 -0.4952
 8295TIP3    H146300   1.732   5.728   0.886 -1.3093 -0.5740  0.0383
 8295TIP3    H246301   1.804   5.742   1.019  0.8021  1.2823 -1.2337
 8296TIP3   OH246302   1.172   0.455   0.076 -0.1411 -0.8415 -0.6315
 8296TIP3    H146303   1.161   0.362   0.092 -1.0542 -0.8877 -1.4330
 8296TIP3    H246304   1.219   0.488   0.153 -1.1284 -1.6801  0.3532
 8297TIP3   OH246305   0.413   5.448  15.875 -0.3912  0.0962  0.0604
 8297TIP3    H146306   0.472   5.524  15.878 -1.2158  0.8033 -0.8071
 8297TIP3    H246307   0.464   5.377  15.913  1.3725  0.4656 -1.4349
 8298TIP3   OH246308   5.124   3.480  12.086 -0.1540  0.2339  0.6522
 8298TIP3    H146309   5.146   3.388  12.070 -0.5228  0.2406  0.0440
 8298TIP3    H246310   5.206   3.527  12.072  0.2147 -0.0652  1.6882
 8299TIP3   OH246311   0.330   5.596   1.286 -0.0974 -0.2504 -0.0720
 8299TIP3    H146312   0.238   5.617   1.268 -0.7928 -0.2118  2.9987
 8299TIP3    H246313   0.377   5.678   1.271 -0.5538 -0.2165 -1.4577
 8300TIP3   OH246314   5.273   4.855   6.609  0.4192  0.2954 -0.2661
 8300TIP3    H146315   5.182   4.875   6.632  0.4378 -0.3608  0.4339
 8300TIP3    H246316   5.305   4.934   6.567 -0.7409  0.2318 -1.3377
 8301TIP3   OH246317   5.333   0.227   6.038 -0.2496 -0.6385  0.6808
 8301TIP3    H146318   5.312   0.231   5.945  0.4430 -0.0926  0.5436
 8301TIP3    H246319   5.248   0.234   6.082 -0.5294 -0.3757  0.1087
 8302TIP3   OH246320   6.759   2.228   0.540  0.1723  0.0859  0.2713
 8302TIP3    H146321   6.820   2.269   0.602  2.1528  0.0090 -1.5141
 8302TIP3    H246322   6.719   2.157   0.590  0.2491  1.2021  2.0067
 8303TIP3   OH246323   1.262   2.827   1.930 -0.5087  0.1645 -0.0664
 8303TIP3    H146324   1.266   2.806   2.023 -1.8431  1.3893  0.3084
 8303TIP3    H246325   1.323   2.766   1.888 -1.6674 -2.0926  1.3113
 8304TIP3   OH246326   4.596   5.442   2.799 -0.4735 -0.0197  0.0444
 8304TIP3    H146327   4.686   5.467   2.777 -0.2655 -0.3572  0.5114
 8304TIP3    H246328   4.544   5.517   2.771 -0.1756 -0.2503 -1.2303
 8305TIP3   OH246329   4.536   5.981   1.917 -0.2137 -0.0269  0.1062
 8305TIP3    H146330   4.573   6.063   1.883 -0.9774  0.2224 -0.1387
 8305TIP3    H246331   4.532   5.994   2.012 -2.3664  1.1127 -0.0861
 8306TIP3   OH246332   2.624   2.864   2.148 -0.8201 -0.1816  0.4264
 8306TIP3    H146333   2.660   2.846   2.061  0.7315  0.1554  0.9589
 8306TIP3    H246334   2.547   2.808   2.155 -0.1485 -1.2748 -0.6140
 8307TIP3   OH246335   1.388   5.009  13.297  0.0418  0.5857  0.4657
 8307TIP3    H146336   1.296   4.990  13.278 -0.1974  2.2282 -0.1504
 8307TIP3    H246337   1.435   4.929  13.273 -1.0140  0.3686 -0.9521
 8308TIP3   OH246338   5.980   2.894   2.984  0.3620  0.3943 -0.2514
 8308TIP3    H146339   5.947   2.977   3.019 -1.7312  0.4575 -2.1383
 8308TIP3    H246340   5.908   2.832   2.997  0.8540 -0.4333 -1.2732
 8309TIP3   OH246341   4.143   0.369   1.880  0.9725 -0.6535  0.1444
 8309TIP3    H146342   4.061   0.362   1.831  1.0410  1.3225 -0.3185
 8309TIP3    H246343   4.198   0.427   1.827  2.0574 -0.6102  1.2642
 8310TIP3   OH246344   3.670   2.708   5.714  0.0821 -0.5209  0.1713
 8310TIP3    H146345   3.714   2.693   5.798  1.7735  1.2836 -0.3132
 8310TIP3    H246346   3.667   2.621   5.673  2.5186 -0.8772  0.5858
 8311TIP3   OH246347   0.859   5.044   2.946 -0.0271  0.3033  0.2878
 8311TIP3    H146348   0.897   5.110   2.887 -0.3257  1.4507  1.3229
 8311TIP3    H246349   0.927   4.978   2.955 -0.2816 -0.3600 -1.9857
 8312TIP3   OH246350   1.130   3.307   0.190  0.3676  0.2777  0.2389
 8312TIP3    H146351   1.203   3.313   0.128  0.0079 -0.1125 -0.2333
 8312TIP3    H246352   1.171   3.288   0.274  0.8488  0.6059  0.0818
 8313TIP3   OH246353   0.836   5.831   3.252  0.4890 -0.6063 -0.5088
 8313TIP3    H146354   0.850   5.742   3.286 -3.2839 -1.3892 -0.6390
 8313TIP3    H246355   0.825   5.885   3.330 -0.3935 -0.9031 -0.4183
 8314TIP3   OH246356   3.493   6.770   4.799  0.0660  0.0158 -0.2345
 8314TIP3    H146357   3.554   6.719   4.851 -0.0918  0.7080  0.6539
 8314TIP3    H246358   3.452   6.830   4.861 -2.3515 -1.1611 -0.5532
 8315TIP3   OH246359   4.100   4.806   2.225 -0.5611 -0.3863 -0.2925
 8315TIP3    H146360   4.026   4.846   2.270  0.4297  0.2611  0.8407
 8315TIP3    H246361   4.064   4.773   2.143 -1.9322  0.5831 -0.1113
 8316TIP3   OH246362   1.397   6.333   1.874 -0.4939 -0.2538 -0.8337
 8316TIP3    H146363   1.442   6.384   1.941  0.1200 -0.1593 -1.3145
 8316TIP3    H246364   1.304   6.349   1.891 -0.3419 -0.0788 -0.1257
 8317TIP3   OH246365   5.887   1.010  14.290  0.6494 -0.6199  0.0190
 8317TIP3    H146366   5.917   0.920  14.276 -0.6737 -1.0037 -0.5853
 8317TIP3    H246367   5.966   1.064  14.283  1.3412 -1.6586 -0.4115
 8318TIP3   OH246368   0.487   0.879   4.828 -0.2335  0.0186 -0.5628
 8318TIP3    H146369   0.433   0.913   4.899 -3.0918  1.5733 -3.2038
 8318TIP3    H246370   0.468   0.785   4.826 -2.2767  0.3837 -0.8420
 8319TIP3   OH246371   0.650   2.233   6.329  0.0496  0.0599 -0.6427
 8319TIP3    H146372   0.582   2.247   6.396 -0.0301 -0.5928 -0.5746
 8319TIP3    H246373   0.605   2.182   6.261  0.3351  0.0707 -0.8383
 8320TIP3   OH246374   5.267   4.480  15.765 -0.3477  0.0108  0.1402
 8320TIP3    H146375   5.223   4.478  15.680 -1.1097  1.3989  0.4752
 8320TIP3    H246376   5.202   4.517  15.824  0.0927 -1.1570  1.3954
 8321TIP3   OH246377   5.650   4.594   3.722 -0.3052 -0.5513 -0.0568
 8321TIP3    H146378   5.677   4.628   3.637 -1.8276 -1.2422 -0.8588
 8321TIP3    H246379   5.558   4.619   3.731  0.4655  1.9272  2.6810
 8322TIP3   OH246380   3.483   1.063  15.352 -0.1434  0.5893 -0.2734
 8322TIP3    H146381   3.439   1.033  15.432  1.2579 -0.5508  0.1103
 8322TIP3    H246382   3.412   1.095  15.296 -1.1846  1.1718  1.3101
 8323TIP3   OH246383   4.195   2.395  12.769  0.3143 -0.5040 -0.1673
 8323TIP3    H146384   4.113   2.353  12.798 -0.8549  1.5732 -0.3072
 8323TIP3    H246385   4.260   2.366  12.833 -1.3259  0.6880  2.1953
 8324TIP3   OH246386   6.059   4.452  16.550 -0.1550 -0.2021 -0.4714
 8324TIP3    H146387   6.095   4.464  16.638  1.1313 -1.1487 -0.8418
 8324TIP3    H246388   6.045   4.357  16.543 -2.9712  0.1028 -0.2939
 8325TIP3   OH246389   4.926   0.980   5.085 -0.3944 -0.2430 -0.0510
 8325TIP3    H146390   4.933   1.073   5.106  0.3853 -0.1416 -0.6987
 8325TIP3    H246391   4.859   0.976   5.016 -1.1736 -0.2923  0.6955
 8326TIP3   OH246392   3.683   0.653   3.610  0.1337  0.4672  0.1875
 8326TIP3    H146393   3.606   0.708   3.595 -0.0538 -0.0038 -0.6431
 8326TIP3    H246394   3.725   0.691   3.687 -1.3673  0.2392  1.1669
 8327TIP3   OH246395   2.806   1.217   4.998 -0.7222  0.0416  0.1614
 8327TIP3    H146396   2.819   1.149   4.933 -1.8937  0.1774 -0.2386
 8327TIP3    H246397   2.806   1.171   5.082  0.6034 -0.1573  0.0780
 8328TIP3   OH246398   1.302   2.269   1.807  0.2973 -0.3819  0.1051
 8328TIP3    H146399   1.392   2.238   1.813  0.2646 -1.0294 -1.9525
 8328TIP3    H246400   1.299   2.321   1.727 -1.2894 -0.9438 -0.2599
 8329TIP3   OH246401   4.771   1.904  15.299 -0.3147  0.0468 -0.0479
 8329TIP3    H146402   4.823   1.854  15.237 -0.0267  0.9523 -0.5479
 8329TIP3    H246403   4.762   1.846  15.375  0.6090 -0.4866 -0.3323
 8330TIP3   OH246404   6.516   2.283  12.794 -0.5919 -0.2290  0.3486
 8330TIP3    H146405   6.434   2.277  12.745 -1.1765  1.4211  1.0359
 8330TIP3    H246406   6.582   2.304  12.728 -0.9280 -0.4621 -0.0630
 8331TIP3   OH246407   4.595   0.472   3.242 -0.1065  0.4220 -0.6616
 8331TIP3    H146408   4.675   0.424   3.222 -0.5153 -0.5565 -0.0191
 8331TIP3    H246409   4.555   0.424   3.315  0.1864  2.5592  1.0155
 8332TIP3   OH246410   4.840   6.318   1.292  0.2160 -0.7857 -0.3125
 8332TIP3    H146411   4.747   6.302   1.277 -0.1361 -1.9222  2.5916
 8332TIP3    H246412   4.878   6.232   1.308  0.8722 -0.0624  2.6649
 8333TIP3   OH246413   0.145   3.855   2.615 -0.2637 -0.2350 -0.1645
 8333TIP3    H146414   0.095   3.803   2.551  0.8791 -0.8165 -0.6104
 8333TIP3    H246415   0.091   3.854   2.694 -0.5302 -1.6465 -0.3345
 8334TIP3   OH246416   2.545   6.242  11.850  0.1954  0.1694  0.1548
 8334TIP3    H146417   2.529   6.336  11.837  0.5574  0.1745 -0.3043
 8334TIP3    H246418   2.543   6.206  11.761 -1.1745 -0.4644  0.4155
 8335TIP3   OH246419   5.856   1.088   5.031 -0.3922  0.4460 -0.2285
 8335TIP3    H146420   5.864   1.158   5.095 -0.0641 -1.8767  2.4728
 8335TIP3    H246421   5.764   1.089   5.005 -0.5755  1.3358  0.4209
 8336TIP3   OH246422   2.422   3.510   1.751 -0.4052 -0.3180 -0.5965
 8336TIP3    H146423   2.482   3.572   1.792 -1.2298 -0.3658  0.7099
 8336TIP3    H246424   2.472   3.428   1.747  0.5639  0.2791 -2.0206
 8337TIP3   OH246425   4.394   4.602  14.030 -0.3244 -0.2024  0.9880
 8337TIP3    H146426   4.405   4.692  13.998  1.3810 -1.1488 -1.4143
 8337TIP3    H246427   4.305   4.599  14.064 -0.6708  2.2010  0.4880
 8338TIP3   OH246428   1.111   6.259   3.266 -0.0864 -0.1768  0.9901
 8338TIP3    H146429   1.038   6.231   3.321 -0.6429  0.5745  0.6655
 8338TIP3    H246430   1.143   6.339   3.307 -0.3023  0.2171  0.4090
 8339TIP3   OH246431   0.171   4.627   3.451  0.3114 -0.1622 -0.4790
 8339TIP3    H146432   0.083   4.664   3.446  0.4617  0.0336 -2.0803
 8339TIP3    H246433   0.159   4.541   3.491 -0.1484  1.1481  2.4777
 8340TIP3   OH246434   1.864   6.058  13.232 -0.5838 -0.0425 -0.6568
 8340TIP3    H146435   1.940   6.116  13.238 -2.4702  2.4661  2.0086
 8340TIP3    H246436   1.855   6.020  13.319 -1.6672 -1.2998 -1.2770
 8341TIP3   OH246437   2.887   4.191   5.006 -0.0723 -0.3436 -0.1196
 8341TIP3    H146438   2.806   4.217   4.962 -1.6620 -0.3897  2.5875
 8341TIP3    H246439   2.921   4.119   4.953 -2.6973 -1.4470 -0.4545
 8342TIP3   OH246440   4.229   3.564  11.392 -0.1364 -0.3260 -0.5000
 8342TIP3    H146441   4.196   3.488  11.441 -0.4582  0.4144  0.4685
 8342TIP3    H246442   4.150   3.613  11.369  0.1231  0.2537 -0.1912
 8343TIP3   OH246443   4.853   3.218   3.722 -0.2414 -0.4022  0.2741
 8343TIP3    H146444   4.823   3.183   3.805  0.6425 -1.0197  0.3448
 8343TIP3    H246445   4.856   3.142   3.663  1.4821 -0.4510  0.3719
 8344TIP3   OH246446   3.748   5.535   2.366 -0.1793  0.0315 -0.5783
 8344TIP3    H146447   3.774   5.495   2.283 -1.6902  1.1571 -1.6306
 8344TIP3    H246448   3.668   5.490   2.390 -0.8027  1.0260 -0.7453
 8345TIP3   OH246449   6.590   1.684  15.834 -0.3718 -0.5232 -0.1483
 8345TIP3    H146450   6.584   1.727  15.919 -0.8866  2.6807 -1.6178
 8345TIP3    H246451   6.505   1.644  15.821 -0.8631  0.3747  0.2123
 8346TIP3   OH246452   4.658   3.168  11.450 -0.4007 -0.5386  0.1262
 8346TIP3    H146453   4.642   3.257  11.481 -0.8146 -0.5036 -0.1858
 8346TIP3    H246454   4.576   3.142  11.409 -0.6773 -1.5114  1.2673
 8347TIP3   OH246455   1.353   3.102  11.467 -0.2946  0.3145  0.2054
 8347TIP3    H146456   1.271   3.101  11.417 -2.4678 -3.0564  3.3096
 8347TIP3    H246457   1.325   3.108  11.559  3.3331  4.1088  1.3573
 8348TIP3   OH246458   1.078   3.792  17.174  0.4166  0.4273  0.0534
 8348TIP3    H146459   1.113   3.854  17.239  2.5925 -0.5726 -0.0540
 8348TIP3    H246460   1.155   3.742  17.147 -0.9332 -0.9573 -1.3560
 8349TIP3   OH246461   2.674   1.483   1.866  0.0075  0.6190  0.0210
 8349TIP3    H146462   2.728   1.530   1.803 -0.3032  1.1868  0.1715
 8349TIP3    H246463   2.594   1.536   1.874 -0.5741 -0.1964 -0.1964
 8350TIP3   OH246464   0.171   4.475   2.873  0.6549 -0.1591  0.0808
 8350TIP3    H146465   0.231   4.496   2.944  0.7716  0.3649 -0.1711
 8350TIP3    H246466   0.109   4.413   2.911  2.1167 -1.7705  0.0191
 8351TIP3   OH246467   5.439   0.697   4.993  0.1502  0.2547  0.1302
 8351TIP3    H146468   5.518   0.657   5.030  0.8427  2.0924  0.7789
 8351TIP3    H246469   5.369   0.634   5.010  1.5262 -1.6486 -0.8760
 8352TIP3   OH246470   2.624   4.236  15.853  0.3500  0.2939 -0.2446
 8352TIP3    H146471   2.571   4.297  15.802 -1.9320 -0.0630  1.5242
 8352TIP3    H246472   2.658   4.289  15.926  2.2206  0.4334 -1.1639
 8353TIP3   OH246473   5.500   1.911  13.754 -0.1037  0.0226  0.3527
 8353TIP3    H146474   5.516   1.881  13.843  1.4083  0.8656  0.4073
 8353TIP3    H246475   5.445   1.988  13.764 -1.9994 -1.2697  0.3607
 8354TIP3   OH246476   1.294   1.687  13.653  1.0516 -0.6074 -0.4181
 8354TIP3    H146477   1.295   1.778  13.683 -1.8441 -1.0217  1.3129
 8354TIP3    H246478   1.206   1.674  13.618  2.3616 -1.9601 -3.6098
 8355TIP3   OH246479   2.546   2.979  13.127  0.2034 -0.0640  0.1859
 8355TIP3    H146480   2.535   3.062  13.173  1.0895  0.4857 -0.5652
 8355TIP3    H246481   2.508   2.913  13.185 -1.1409  0.9473  0.4856
 8356TIP3   OH246482   0.015   0.053   5.433  0.0274  0.0988  0.3778
 8356TIP3    H146483   0.080   0.122   5.425  1.0613 -0.9706 -0.8812
 8356TIP3    H246484   0.055  -0.023   5.392 -1.2172 -1.1698  1.3987
 8357TIP3   OH246485   0.332   3.067  11.666  0.1580  0.1825  0.6299
 8357TIP3    H146486   0.255   3.031  11.709  0.3451 -1.1889 -0.1294
 8357TIP3    H246487   0.297   3.133  11.606 -0.6730 -1.6845 -1.0639
 8358TIP3   OH246488   3.175   1.863  14.415 -0.0940  0.0790  0.2740
 8358TIP3    H146489   3.132   1.943  14.385  0.1633 -0.0497 -0.4542
 8358TIP3    H246490   3.266   1.872  14.388  0.2297  0.0868  1.2954
 8359TIP3   OH246491   1.079   1.837   0.123  0.3168 -0.3725 -0.1860
 8359TIP3    H146492   1.104   1.768   0.185 -0.4111 -0.1765  0.3433
 8359TIP3    H246493   0.984   1.830   0.117  0.2936  0.2186 -0.5634
 8360TIP3   OH246494   2.286   0.385   2.241  0.5340 -0.6947 -0.3513
 8360TIP3    H146495   2.316   0.356   2.154  0.5421 -0.0602 -0.5614
 8360TIP3    H246496   2.303   0.479   2.242  0.9906 -0.7771  0.5225
 8361TIP3   OH246497   5.646   4.490   2.596 -0.7421 -0.7773 -0.0151
 8361TIP3    H146498   5.700   4.466   2.521 -0.8102  0.4702 -0.4943
 8361TIP3    H246499   5.607   4.408   2.626  0.1863 -1.4538 -0.6351
 8362TIP3   OH246500   1.068   3.532  16.633 -0.2635  0.4448  0.3190
 8362TIP3    H146501   0.995   3.518  16.693  0.4229 -0.8318  0.8840
 8362TIP3    H246502   1.077   3.627  16.629 -0.2988  0.5659  2.2708
 8363TIP3   OH246503   3.201   3.290  15.932 -0.1695 -0.1348 -0.0399
 8363TIP3    H146504   3.202   3.381  15.901 -2.5960 -1.0546 -3.5179
 8363TIP3    H246505   3.138   3.290  16.005  1.0456  1.1530  1.0568
 8364TIP3   OH246506   6.615   3.112   5.680 -0.1007  0.1853 -0.0505
 8364TIP3    H146507   6.629   3.110   5.774  0.9437 -1.2836 -0.2013
 8364TIP3    H246508   6.612   3.020   5.654  0.8597  0.5468 -1.6072
 8365TIP3   OH246509   0.584   3.946   0.678  0.1895  0.2409 -0.6741
 8365TIP3    H146510   0.588   4.041   0.683 -0.7186  0.3208 -1.2002
 8365TIP3    H246511   0.577   3.917   0.769  2.6078  0.5309 -0.3380
 8366TIP3   OH246512   1.886   2.687   4.784 -0.0883  0.5221 -0.1622
 8366TIP3    H146513   1.970   2.689   4.829  0.2354  1.1842 -0.7793
 8366TIP3    H246514   1.833   2.753   4.830 -0.8401 -0.9997  1.2628
 8367TIP3   OH246515   3.238   1.843   3.672  0.1674 -0.5566  0.4282
 8367TIP3    H146516   3.229   1.789   3.593 -0.7908 -0.3942  0.4155
 8367TIP3    H246517   3.159   1.897   3.673 -0.4138 -1.4024  2.1495
 8368TIP3   OH246518   1.452   4.489  11.726 -0.5538 -0.6285  0.7085
 8368TIP3    H146519   1.449   4.575  11.684 -0.3285 -1.0434 -0.1931
 8368TIP3    H246520   1.475   4.508  11.817 -1.6550  0.3388  0.8054
 8369TIP3   OH246521   0.238   6.519   3.465  0.6191 -0.1862  0.3269
 8369TIP3    H146522   0.202   6.529   3.553  1.1995 -1.7971  0.7637
 8369TIP3    H246523   0.253   6.609   3.435 -4.5191  0.8091 -0.2801
 8370TIP3   OH246524   0.528   0.469   3.803 -0.2922 -0.2461  0.4880
 8370TIP3    H146525   0.549   0.428   3.719  0.4836 -0.4685  0.7810
 8370TIP3    H246526   0.613   0.491   3.841 -0.6501  0.1692  1.0602
 8371TIP3   OH246527   2.774   5.320   5.247  0.0495  0.2864 -0.5793
 8371TIP3    H146528   2.847   5.297   5.189  0.1228 -1.1474  0.0473
 8371TIP3    H246529   2.698   5.322   5.189  0.0691 -1.4245 -0.7247
 8372TIP3   OH246530   3.002   2.514  11.018  0.1355 -0.1141  0.1956
 8372TIP3    H146531   3.068   2.450  10.992  0.4048  0.3946 -0.3817
 8372TIP3    H246532   2.920   2.479  10.982  0.4213  0.3189 -0.9128
 8373TIP3   OH246533   1.606   3.737   5.990 -0.0207 -0.1278 -1.1722
 8373TIP3    H146534   1.561   3.655   6.013 -0.1639  0.0182 -0.9293
 8373TIP3    H246535   1.661   3.714   5.915  2.2437 -1.2073  0.6734
 8374TIP3   OH246536   2.592   1.198   4.284 -0.3442 -0.5819  0.2742
 8374TIP3    H146537   2.506   1.234   4.261 -0.5314 -1.5818 -0.6626
 8374TIP3    H246538   2.605   1.225   4.375 -1.3423  0.1617  0.2228
 8375TIP3   OH246539   0.255   6.733  12.332  0.3558 -0.2857 -0.0454
 8375TIP3    H146540   0.241   6.811  12.279  0.6942 -0.9209 -1.1015
 8375TIP3    H246541   0.344   6.742  12.366 -0.0869  0.4364  0.9919
 8376TIP3   OH246542   5.422   6.087   0.812 -0.5894  0.2039 -0.2704
 8376TIP3    H146543   5.338   6.130   0.829 -0.6960 -0.2669  0.4448
 8376TIP3    H246544   5.432   6.025   0.885  0.9608  1.1086  0.3336
 8377TIP3   OH246545   1.398   3.572   4.930 -0.3682 -0.1678 -0.2888
 8377TIP3    H146546   1.464   3.554   4.997  0.5997  0.1870 -1.1227
 8377TIP3    H246547   1.352   3.489   4.919 -0.2356 -0.3555  0.4738
 8378TIP3   OH246548   4.376   3.400   5.058  0.0356  0.3540 -0.5643
 8378TIP3    H146549   4.466   3.369   5.074 -0.4846 -1.5266 -1.0815
 8378TIP3    H246550   4.330   3.381   5.139 -0.5571 -1.3782 -1.2576
 8379TIP3   OH246551   6.716   2.645  13.932 -0.4344  0.3051  0.4546
 8379TIP3    H146552   6.684   2.735  13.925 -0.8340  0.1036 -0.4542
 8379TIP3    H246553   6.791   2.651  13.990 -0.8502  1.1229  0.9279
 8380TIP3   OH246554   5.933   2.025  17.161 -0.0634 -0.2600  0.5849
 8380TIP3    H146555   5.987   2.021  17.082 -0.8895 -0.0588 -0.0059
 8380TIP3    H246556   5.993   2.000  17.232  0.5748 -0.9131 -0.1541
 8381TIP3   OH246557   6.646   2.174  16.422 -0.6557 -0.4266 -0.4868
 8381TIP3    H146558   6.574   2.212  16.472 -1.5707 -0.0986 -1.9658
 8381TIP3    H246559   6.637   2.214  16.335  1.9390  0.4047 -0.4515
 8382TIP3   OH246560   6.228   3.807  14.867  0.2078 -0.0743  0.3533
 8382TIP3    H146561   6.147   3.813  14.918  0.5391 -0.8263  0.9697
 8382TIP3    H246562   6.265   3.722  14.889  1.9299  0.8445  1.2090
 8383TIP3   OH246563   2.260   0.804   1.973 -0.8066  0.1383 -0.0542
 8383TIP3    H146564   2.283   0.790   1.882 -0.1207  0.0283  0.1287
 8383TIP3    H246565   2.166   0.791   1.977 -0.5033 -2.7381 -0.2363
 8384TIP3   OH246566   2.114   4.060  11.065 -0.0961 -0.5446  0.7073
 8384TIP3    H146567   2.179   4.005  11.109  0.2228 -1.7617 -1.2075
 8384TIP3    H246568   2.058   3.999  11.018 -2.6747  0.4757  2.2557
 8385TIP3   OH246569   5.149   6.355   0.033  0.2838 -0.3601 -0.2015
 8385TIP3    H146570   5.152   6.282  -0.028  0.1462 -0.2275 -0.3687
 8385TIP3    H246571   5.183   6.320   0.115  1.2073 -0.3331 -0.5614
 8386TIP3   OH246572   5.200   1.186   3.971 -0.1558 -0.3502  0.5346
 8386TIP3    H146573   5.182   1.095   3.944  0.2657 -0.1111 -0.6071
 8386TIP3    H246574   5.117   1.232   3.957 -0.2922 -0.4936  0.8542
 8387TIP3   OH246575   6.216   1.732   3.140  0.1002 -0.1370 -0.1163
 8387TIP3    H146576   6.195   1.688   3.057 -0.1239  0.3659 -0.3316
 8387TIP3    H246577   6.131   1.741   3.184 -0.1025  1.4441 -0.7618
 8388TIP3   OH246578   3.281   6.337   1.649  0.8086  0.6496  0.1572
 8388TIP3    H146579   3.230   6.415   1.673 -0.2876  0.0340 -0.1403
 8388TIP3    H246580   3.261   6.274   1.718 -0.2595 -0.2101 -0.9038
 8389TIP3   OH246581   5.167   6.443   5.578  0.2072  0.1639  0.1607
 8389TIP3    H146582   5.210   6.457   5.662 -0.9187  1.2284  0.5753
 8389TIP3    H246583   5.173   6.348   5.564  0.7553  0.0258  1.2416
 8390TIP3   OH246584   5.015   2.869  15.555  0.0557 -0.2986  0.1873
 8390TIP3    H146585   4.944   2.879  15.492 -0.6108 -0.2155  0.9470
 8390TIP3    H246586   5.047   2.958  15.570  0.3261 -0.3352 -0.1491
 8391TIP3   OH246587   5.113   3.349  14.030 -0.3538 -0.3098 -0.1566
 8391TIP3    H146588   5.186   3.303  14.071 -1.3048 -0.6323  1.2742
 8391TIP3    H246589   5.055   3.371  14.104 -1.0035  1.2107 -1.0653
 8392TIP3   OH246590   4.782   6.134  13.308 -0.5126 -0.6103  1.3507
 8392TIP3    H146591   4.828   6.117  13.225 -1.9082  0.0565  0.3954
 8392TIP3    H246592   4.736   6.052  13.327 -1.2260 -0.3729  0.7401
 8393TIP3   OH246593   4.507   2.142  13.134  0.2776  0.3451 -0.1342
 8393TIP3    H146594   4.524   2.058  13.092 -0.6522  0.0654  0.0372
 8393TIP3    H246595   4.568   2.144  13.208  0.5130 -0.0407 -0.3135
 8394TIP3   OH246596   4.241   1.652  11.782  0.0167 -0.2964  0.5543
 8394TIP3    H146597   4.207   1.583  11.726 -0.8464  0.8802 -0.4199
 8394TIP3    H246598   4.319   1.684  11.736  0.5402 -0.7496  1.1106
 8395TIP3   OH246599   2.516   3.864   0.900  0.4280 -0.0358  0.4081
 8395TIP3    H146600   2.461   3.795   0.863 -0.2568 -0.6564  2.4423
 8395TIP3    H246601   2.604   3.826   0.899  0.1173 -0.7965  1.1468
 8396TIP3   OH246602   3.295   6.772  16.243 -0.0999  0.3539  0.3679
 8396TIP3    H146603   3.233   6.712  16.284 -0.4936  0.4660 -0.0608
 8396TIP3    H246604   3.325   6.726  16.165  1.8876 -0.5597  1.5890
 8397TIP3   OH246605   1.726   2.687  16.299 -0.3782 -0.1201 -0.0356
 8397TIP3    H146606   1.663   2.721  16.235 -0.9711  3.6215  2.2378
 8397TIP3    H246607   1.673   2.668  16.377  0.8346 -0.7287  0.6695
 8398TIP3   OH246608   5.324   1.142  13.230 -0.1043  0.1788 -0.0198
 8398TIP3    H146609   5.338   1.237  13.232  0.1300  0.1394  2.6646
 8398TIP3    H246610   5.380   1.112  13.158 -0.7000  2.1107 -1.3812
 8399TIP3   OH246611   5.905   1.243   2.481  0.4432 -0.6159  0.6524
 8399TIP3    H146612   5.848   1.274   2.552 -0.1650 -1.4181  0.5312
 8399TIP3    H246613   5.992   1.272   2.506  0.1256 -0.2416  1.3598
 8400TIP3   OH246614   1.593   0.597   1.708 -0.0039  0.2343 -0.2285
 8400TIP3    H146615   1.526   0.533   1.734  0.4555 -0.3838 -0.5215
 8400TIP3    H246616   1.580   0.671   1.767  0.6755 -0.9099  1.4369
 8401TIP3   OH246617   4.003   3.999   3.185 -0.1547  0.6006  0.0091
 8401TIP3    H146618   4.089   3.958   3.178  0.1929  1.1321  0.9227
 8401TIP3    H246619   3.956   3.971   3.107  0.1977 -1.1948  0.4129
 8402TIP3   OH246620   2.586   4.701   0.356  0.1893  0.8869 -0.7756
 8402TIP3    H146621   2.678   4.675   0.367  0.0363 -0.6065 -2.5579
 8402TIP3    H246622   2.586   4.796   0.372  1.4692  0.5279  2.2004
 8403TIP3   OH246623   0.429   5.620  16.396  0.6595 -0.1102  0.4738
 8403TIP3    H146624   0.416   5.556  16.326  1.0113 -0.3815  0.6605
 8403TIP3    H246625   0.341   5.633  16.433  0.5582 -0.3368  0.3124
 8404TIP3   OH246626   3.326   0.292  12.061 -0.4474 -0.6084 -0.4289
 8404TIP3    H146627   3.382   0.281  12.137  0.7768  1.4368 -0.9452
 8404TIP3    H246628   3.245   0.247  12.083  0.5671 -1.6769  1.2807
 8405TIP3   OH246629   2.525   3.537   3.071  0.1010  0.1880 -0.1537
 8405TIP3    H146630   2.445   3.557   3.120  0.3737  0.0280  0.3720
 8405TIP3    H246631   2.541   3.444   3.089  0.6974  0.3512  0.1960
 8406TIP3   OH246632   5.842   1.788   0.793  0.1680 -0.3547  0.2922
 8406TIP3    H146633   5.936   1.776   0.806  0.0736  1.2440  3.4586
 8406TIP3    H246634   5.801   1.716   0.841 -0.2995 -1.7120 -2.0227
 8407TIP3   OH246635   4.864   3.186   2.692  0.1523  0.4384  0.4410
 8407TIP3    H146636   4.930   3.243   2.651 -0.6861  1.0595 -0.0760
 8407TIP3    H246637   4.834   3.236   2.768  0.7834 -0.1583  1.0950
 8408TIP3   OH246638   6.378   2.306   2.302 -0.0338  0.2336 -0.4435
 8408TIP3    H146639   6.287   2.282   2.321 -1.0401  3.1002 -1.1767
 8408TIP3    H246640   6.422   2.222   2.290 -1.7424 -1.4634  3.2719
 8409TIP3   OH246641   1.255   5.582  14.326 -0.1361 -0.0862 -0.0058
 8409TIP3    H146642   1.267   5.619  14.414  0.3505  1.1983 -0.5881
 8409TIP3    H246643   1.337   5.536  14.309 -0.3714 -0.6448  0.3488
 8410TIP3   OH246644   6.276   3.486  15.316 -0.0335 -0.9377  0.1616
 8410TIP3    H146645   6.363   3.453  15.339 -0.1161  0.0723  2.1497
 8410TIP3    H246646   6.293   3.552  15.248  0.5802 -1.8106 -0.5466
 8411TIP3   OH246647   2.174   2.803  14.459 -0.4233 -0.2279 -0.2452
 8411TIP3    H146648   2.179   2.898  14.457  0.8678 -0.2918 -1.4811
 8411TIP3    H246649   2.264   2.773  14.446 -1.0043 -1.6164 -1.4066
 8412TIP3   OH246650   0.477   3.120  12.727 -0.3971  0.0865  0.1516
 8412TIP3    H146651   0.467   3.118  12.632 -1.0245 -0.3465  0.2256
 8412TIP3    H246652   0.388   3.124  12.761 -0.1899 -0.0855  0.7292
 8413TIP3   OH246653   3.299   0.486  13.118  0.2813  0.4595 -0.5586
 8413TIP3    H146654   3.217   0.449  13.084  0.6256  0.8058 -1.8127
 8413TIP3    H246655   3.341   0.413  13.163 -0.4326  0.1211 -0.4131
 8414TIP3   OH246656   5.156   3.995  14.240 -0.4413 -0.3506  0.3940
 8414TIP3    H146657   5.119   3.909  14.259  1.5663 -1.1554  0.8613
 8414TIP3    H246658   5.082   4.056  14.251 -1.5936 -1.8475  1.2941
 8415TIP3   OH246659   6.532   0.654  14.385  0.3265 -1.0368  0.7283
 8415TIP3    H146660   6.508   0.652  14.477 -2.0459 -0.7934  0.1785
 8415TIP3    H246661   6.539   0.561  14.361 -0.8830 -1.1629  0.7674
 8416TIP3   OH246662   3.617   1.982  11.623 -0.0323 -0.0479  0.7865
 8416TIP3    H146663   3.590   1.895  11.593 -1.0249 -0.0944  1.7394
 8416TIP3    H246664   3.580   2.042  11.559  1.1359 -0.3407 -0.1899
 8417TIP3   OH246665   4.399   2.865  14.702 -0.3405  0.4817 -0.1389
 8417TIP3    H146666   4.436   2.906  14.780  0.7997  2.0507 -1.4254
 8417TIP3    H246667   4.343   2.933  14.664  1.1722  0.7355 -2.0556
 8418TIP3   OH246668   4.350   5.927   0.151 -0.1529 -0.1994 -0.9617
 8418TIP3    H146669   4.355   5.860   0.219 -0.8129 -2.6834 -3.2210
 8418TIP3    H246670   4.441   5.953   0.138 -0.0953  1.2878  1.6240
 8419TIP3   OH246671   6.256   5.799   6.238 -0.2022 -0.4798 -0.0969
 8419TIP3    H146672   6.290   5.789   6.149 -1.1353  0.8902 -0.6457
 8419TIP3    H246673   6.308   5.871   6.275 -0.5402 -0.3278  0.0831
 8420TIP3   OH246674   5.862   5.097   3.159 -0.2369 -0.0568  0.3920
 8420TIP3    H146675   5.913   5.170   3.125 -0.7858 -0.4639 -1.3975
 8420TIP3    H246676   5.774   5.134   3.173 -0.8915 -0.6141 -1.8069
 8421TIP3   OH246677   1.578   6.202   5.350 -0.2556 -0.3153  0.7570
 8421TIP3    H146678   1.583   6.185   5.444  1.2217  1.2280  1.0086
 8421TIP3    H246679   1.668   6.195   5.319 -0.5993  0.0170 -0.3856
 8422TIP3   OH246680   1.940   3.334  14.311  0.1278  0.1562  0.5642
 8422TIP3    H146681   1.929   3.306  14.402  0.6177 -0.2824  0.4915
 8422TIP3    H246682   2.032   3.356  14.303  0.1476 -0.0801  0.0992
 8423TIP3   OH246683   3.355   3.600   1.288  0.4118 -0.5413 -0.9088
 8423TIP3    H146684   3.281   3.614   1.346  0.5126  0.2115 -0.9495
 8423TIP3    H246685   3.317   3.597   1.200  0.4765  0.4117 -0.9824
 8424TIP3   OH246686   6.043   2.806   1.080  0.4748  0.0144 -0.1866
 8424TIP3    H146687   5.971   2.818   1.018  0.0875  3.6159  0.7633
 8424TIP3    H246688   6.001   2.787   1.163  0.5558  1.7356  0.2872
 8425TIP3   OH246689   4.392   6.204  13.833  0.4684  0.2701 -0.0704
 8425TIP3    H146690   4.439   6.228  13.913 -0.5369 -1.9461  1.2756
 8425TIP3    H246691   4.384   6.109  13.837 -1.5453  0.2924 -1.6919
 8426TIP3   OH246692   6.121   6.480  14.111 -0.3127  0.4263  0.3159
 8426TIP3    H146693   6.152   6.442  14.029 -0.0060  0.1397  0.5632
 8426TIP3    H246694   6.198   6.525  14.147 -0.5689  0.9505  0.2157
 8427TIP3   OH246695   1.097   1.991  11.228 -0.0257  0.0729 -0.6605
 8427TIP3    H146696   1.184   2.018  11.256  0.8747 -2.5788 -0.5342
 8427TIP3    H246697   1.081   2.040  11.148  0.2395  2.8053  0.8471
 8428TIP3   OH246698   0.569   2.144  11.758  0.2082  0.1692  0.3067
 8428TIP3    H146699   0.506   2.138  11.830 -1.8382  2.0049 -1.1848
 8428TIP3    H246700   0.629   2.071  11.773 -0.0120  0.5449  3.9070
 8429TIP3   OH246701   4.640   3.014  12.980  0.0612  0.2031  0.5469
 8429TIP3    H146702   4.581   3.034  12.908  1.3783  1.6259 -0.2122
 8429TIP3    H246703   4.595   2.947  13.031 -2.2161  1.2703  0.0630
 8430TIP3   OH246704   2.998   5.607  14.580 -0.4993  0.2877  0.2067
 8430TIP3    H146705   3.093   5.598  14.576 -0.3463 -0.0585  3.1059
 8430TIP3    H246706   2.984   5.696  14.614 -1.1601 -0.1412  1.0831
 8431TIP3   OH246707   1.561   2.086  16.200 -0.3408  0.7412 -0.0585
 8431TIP3    H146708   1.513   2.009  16.169 -0.3741  0.7703 -0.0800
 8431TIP3    H246709   1.622   2.051  16.265 -0.2756  0.6803 -0.1523
 8432TIP3   OH246710   3.191   0.323  14.408 -0.5404 -1.1086  0.2276
 8432TIP3    H146711   3.186   0.336  14.313  0.0416  1.5509  0.4879
 8432TIP3    H246712   3.272   0.273  14.421  0.2642 -0.0700 -0.5961
 8433TIP3   OH246713   3.114   3.279   3.064 -0.1137  0.7021  0.0261
 8433TIP3    H146714   3.207   3.269   3.048  0.2446  0.7165  1.8528
 8433TIP3    H246715   3.101   3.372   3.080  0.0209  0.4238  2.0575
 8434TIP3   OH246716   4.122   3.158  12.293  0.3692 -0.7740  0.5139
 8434TIP3    H146717   4.087   3.186  12.377 -1.7415 -0.0471 -0.5419
 8434TIP3    H246718   4.053   3.105  12.254  1.3400 -1.1904 -0.7224
 8435TIP3   OH246719   2.369   4.504  13.286 -0.8950  0.6914 -0.2603
 8435TIP3    H146720   2.354   4.555  13.366  1.3784  0.1071  0.6326
 8435TIP3    H246721   2.464   4.505  13.275 -0.9896 -1.1194 -1.7028
 8436TIP3   OH246722   2.390   2.442  16.249  0.4683 -0.1133 -0.1857
 8436TIP3    H146723   2.358   2.360  16.286  0.3123 -0.0800 -0.2444
 8436TIP3    H246724   2.370   2.436  16.156  1.0225 -0.2744 -0.3019
 8437TIP3   OH246725   1.411   0.801  12.455 -0.0424  0.1660 -0.0137
 8437TIP3    H146726   1.467   0.725  12.440  1.2010  1.1375 -0.5030
 8437TIP3    H246727   1.335   0.787  12.398  0.5916 -0.2943 -0.7686
 8438TIP3   OH246728   3.229   5.145   4.551 -0.4033 -0.1675  0.2794
 8438TIP3    H146729   3.264   5.123   4.465  1.0552 -1.5350  1.1605
 8438TIP3    H246730   3.306   5.163   4.605 -1.2516  0.1219  1.4455
 8439TIP3   OH246731   3.686   4.861  12.085  0.6768 -0.0869  0.1299
 8439TIP3    H146732   3.631   4.790  12.118 -1.9011  2.3837  1.5848
 8439TIP3    H246733   3.674   4.859  11.990 -0.3013 -0.8805  0.2576
 8440TIP3   OH246734   1.005   1.189   6.414 -0.2707 -0.2880 -0.0517
 8440TIP3    H146735   0.986   1.265   6.359 -0.8567 -0.2071  0.2540
 8440TIP3    H246736   0.983   1.114   6.359 -1.2921 -0.1982  0.2206
 8441TIP3   OH246737   4.717   4.840   6.378  0.2087  0.6199 -0.0455
 8441TIP3    H146738   4.716   4.747   6.357  2.4440  0.9262 -1.9002
 8441TIP3    H246739   4.643   4.876   6.328 -1.1383 -0.2062  1.2769
 8442TIP3   OH246740   1.350   6.224  10.881  0.7437 -0.5769 -0.2908
 8442TIP3    H146741   1.310   6.265  10.805  0.4304  1.2917  0.8147
 8442TIP3    H246742   1.412   6.289  10.914  0.2433 -0.9617  1.5475
 8443TIP3   OH246743   0.324   2.413   0.458 -0.5740  0.2820 -0.4745
 8443TIP3    H146744   0.239   2.436   0.493 -1.4712 -1.2320 -1.5136
 8443TIP3    H246745   0.378   2.395   0.535 -1.9603 -1.2313  0.2052
 8444TIP3   OH246746   2.554   0.658  12.028  0.2707  0.0632 -0.7102
 8444TIP3    H146747   2.460   0.642  12.035  0.2637  0.5806  0.5747
 8444TIP3    H246748   2.560   0.746  11.991  0.2109  0.6246  0.5589
 8445TIP3   OH246749   5.719   3.773  16.810 -0.0034 -0.1143  0.2475
 8445TIP3    H146750   5.674   3.724  16.742  1.7714 -0.5493 -0.6746
 8445TIP3    H246751   5.655   3.781  16.880 -0.3027 -4.0801  0.6482
 8446TIP3   OH246752   6.314   0.785   3.841  0.2144  0.1112  0.0277
 8446TIP3    H146753   6.364   0.864   3.818  1.1275  0.7654  3.6535
 8446TIP3    H246754   6.348   0.718   3.782  2.1749  1.5756 -0.6459
 8447TIP3   OH246755   4.653   6.136   6.544  0.4271  0.0595 -0.1574
 8447TIP3    H146756   4.599   6.176   6.613 -1.5023 -0.0443 -1.5176
 8447TIP3    H246757   4.702   6.209   6.507 -1.3375  0.8378 -1.0954
 8448TIP3   OH246758   2.626   2.282  14.316 -0.2732 -0.3881  0.1494
 8448TIP3    H146759   2.633   2.317  14.405  1.3332 -0.0829 -0.0780
 8448TIP3    H246760   2.623   2.358  14.259  2.7164 -0.5114 -0.3077
 8449TIP3   OH246761   3.428   4.622  17.011 -0.1975 -0.2111 -0.2658
 8449TIP3    H146762   3.507   4.674  16.990 -0.7432  0.0979 -1.7014
 8449TIP3    H246763   3.393   4.598  16.925 -2.2615  0.5643  0.2994
 8450TIP3   OH246764   3.942   4.016   0.299  0.1155 -0.0710  0.2189
 8450TIP3    H146765   3.986   3.950   0.245 -0.4217 -1.8754  1.8473
 8450TIP3    H246766   4.009   4.043   0.363  0.6057  1.6893 -0.9934
 8451TIP3   OH246767   0.843   6.531  11.327 -0.2058 -0.4017 -0.3275
 8451TIP3    H146768   0.852   6.457  11.267 -0.0160 -0.2927 -0.4357
 8451TIP3    H246769   0.754   6.524  11.362 -0.1310 -0.7708 -0.2174
 8452TIP3   OH246770   5.552   5.787   0.401  0.0716  0.0555  0.1029
 8452TIP3    H146771   5.620   5.792   0.334 -1.2295  0.7261 -1.2312
 8452TIP3    H246772   5.595   5.748   0.477  2.0053  0.7484 -0.5884
 8453TIP3   OH246773   6.520   0.081   2.516 -0.1132  0.4249  0.3586
 8453TIP3    H146774   6.512  -0.010   2.488 -1.3537  1.5625 -3.7404
 8453TIP3    H246775   6.610   0.106   2.493  0.3254  0.1877  1.7651
 8454TIP3   OH246776   4.951   0.898   6.011  0.9361 -0.2122  0.3559
 8454TIP3    H146777   4.868   0.938   6.038  1.3047  1.9513 -1.3819
 8454TIP3    H246778   5.010   0.913   6.084  0.2235 -0.3332  0.9658
 8455TIP3   OH246779   5.807   0.971  16.983  1.3248 -0.0198  0.3267
 8455TIP3    H146780   5.861   1.015  17.047  1.2813 -1.4393  1.3950
 8455TIP3    H246781   5.790   0.884  17.021 -0.0122 -0.3367 -0.8841
 8456TIP3   OH246782   2.192   2.780  12.794  0.5623 -0.5766  0.0248
 8456TIP3    H146783   2.272   2.812  12.835  0.3862  1.9234 -1.3916
 8456TIP3    H246784   2.211   2.779  12.701 -1.3798  1.2847 -0.4748
 8457TIP3   OH246785   1.465   4.358  16.490 -0.2079 -0.1632  0.1224
 8457TIP3    H146786   1.553   4.390  16.513  0.0657 -1.5388  1.1181
 8457TIP3    H246787   1.478   4.312  16.407 -0.1064  0.1519 -0.0387
 8458TIP3   OH246788   1.303   0.883  14.004 -0.0987 -0.0986  0.3206
 8458TIP3    H146789   1.343   0.889  13.917  0.1473 -1.5691  0.3190
 8458TIP3    H246790   1.287   0.974  14.028 -0.5791  0.3268 -1.4452
 8459TIP3   OH246791   2.115   6.305   3.825  0.3644 -0.3606  0.1298
 8459TIP3    H146792   2.170   6.237   3.788 -1.8012 -1.5232 -1.1692
 8459TIP3    H246793   2.094   6.362   3.751 -0.5608 -0.2447  0.4672
 8460TIP3   OH246794   1.926   3.649   2.201  0.7507 -0.3335 -0.9588
 8460TIP3    H146795   1.989   3.694   2.256  0.9844  0.0429 -1.5307
 8460TIP3    H246796   1.934   3.557   2.226  0.5522 -0.1188 -0.0708
 8461TIP3   OH246797   5.839   2.996   3.632 -0.1410  0.0480 -0.8268
 8461TIP3    H146798   5.755   2.999   3.678 -0.2075 -1.1060 -0.8551
 8461TIP3    H246799   5.892   3.063   3.676  0.4276 -2.2166  2.2243
 8462TIP3   OH246800   3.713   4.181  13.931  0.2785 -0.0521  0.1004
 8462TIP3    H146801   3.667   4.238  13.993 -1.2468 -1.9721  0.8302
 8462TIP3    H246802   3.789   4.148  13.980 -0.2240 -0.5732  0.5467
 8463TIP3   OH246803   5.406   3.999  12.924  0.1103  0.6606 -0.2132
 8463TIP3    H146804   5.327   3.991  12.870  1.5661 -0.8800 -2.2988
 8463TIP3    H246805   5.444   4.083  12.898 -0.3055  0.9271  0.0330
 8464TIP3   OH246806   1.749   3.599  15.427  0.6729 -0.4604  0.0562
 8464TIP3    H146807   1.782   3.685  15.454  1.7094 -0.1287 -2.0808
 8464TIP3    H246808   1.698   3.617  15.348 -2.9320 -1.2761  1.9905
 8465TIP3   OH246809   4.912   2.404  12.864  0.3098 -0.1249 -0.7370
 8465TIP3    H146810   4.915   2.426  12.771  1.4544  0.7677 -0.5065
 8465TIP3    H246811   4.936   2.485  12.909 -0.7261 -0.3974  0.3747
 8466TIP3   OH246812   4.710   1.696  11.561  0.1904 -0.6671 -0.2704
 8466TIP3    H146813   4.623   1.684  11.598  0.2493 -2.2773 -0.5837
 8466TIP3    H246814   4.701   1.771  11.501 -1.2247 -1.4187 -1.0381
 8467TIP3   OH246815   0.397   5.685   3.655  0.3799 -0.3574  0.1592
 8467TIP3    H146816   0.335   5.758   3.649 -0.9095 -1.1729  2.4978
 8467TIP3    H246817   0.379   5.632   3.577  0.2371  0.9475 -0.7336
 8468TIP3   OH246818   0.820   4.675   3.043 -0.2253 -0.1455 -0.3498
 8468TIP3    H146819   0.772   4.688   3.125  0.7782 -0.2751  0.2761
 8468TIP3    H246820   0.752   4.664   2.977 -1.0543 -0.2678  0.4999
 8469TIP3   OH246821   4.341   0.989  16.272  0.1663  0.3153  0.1057
 8469TIP3    H146822   4.298   1.036  16.201 -0.1075 -1.4480 -0.9521
 8469TIP3    H246823   4.403   0.931  16.228  1.0631  0.2441  1.4125
 8470TIP3   OH246824   4.443   4.836  15.277 -0.5881  0.6882  0.6160
 8470TIP3    H146825   4.430   4.919  15.323 -0.2003  0.5640  0.9521
 8470TIP3    H246826   4.506   4.857  15.208  0.4271  0.4133  1.4439
 8471TIP3   OH246827   3.822   5.486   0.512 -0.1499 -0.0248 -0.4247
 8471TIP3    H146828   3.875   5.449   0.442  0.3720  0.1402 -0.1204
 8471TIP3    H246829   3.869   5.565   0.539  0.3345 -0.7642  0.9719
 8472TIP3   OH246830   1.172   2.979   3.122  0.8338  0.1012 -0.5584
 8472TIP3    H146831   1.228   3.056   3.115  0.8777  0.0521 -0.7496
 8472TIP3    H246832   1.175   2.955   3.214  2.0066 -0.5622 -0.7430
 8473TIP3   OH246833   3.678   1.864  13.768 -0.2142  0.0861 -0.0070
 8473TIP3    H146834   3.698   1.948  13.810  2.2562 -0.5315  0.2380
 8473TIP3    H246835   3.758   1.812  13.781 -0.8262 -1.5021 -2.1384
 8474TIP3   OH246836   1.192   4.228   0.384  0.2234  0.0226 -0.0761
 8474TIP3    H146837   1.103   4.255   0.360  0.6440 -0.8585 -3.0930
 8474TIP3    H246838   1.183   4.138   0.415 -0.0676  0.3949  0.9530
 8475TIP3   OH246839   2.351   0.632  15.130 -0.2259  0.1426  0.2228
 8475TIP3    H146840   2.405   0.686  15.072 -0.9594  0.5407 -0.1198
 8475TIP3    H246841   2.397   0.549  15.136  1.3732  1.0708  1.4342
 8476TIP3   OH246842   4.598   1.879  13.459  0.4551  0.1240  0.1058
 8476TIP3    H146843   4.542   1.803  13.442 -2.9402  2.1173  1.4735
 8476TIP3    H246844   4.684   1.841  13.479 -1.1372 -3.3924  1.1483
 8477TIP3   OH246845   5.315   5.197  12.664 -0.4588 -0.4832  0.0127
 8477TIP3    H146846   5.388   5.206  12.602 -0.5991  0.7039  0.0019
 8477TIP3    H246847   5.351   5.228  12.747 -0.6421 -0.8967  0.2475
 8478TIP3   OH246848   4.567   1.824  16.379 -0.1633  0.5099 -0.1910
 8478TIP3    H146849   4.640   1.883  16.399 -0.0719 -0.2588  2.0311
 8478TIP3    H246850   4.597   1.773  16.303  2.7115 -1.4116  2.0220
 8479TIP3   OH246851   6.068   5.922  13.114  0.3995 -0.5402 -0.0983
 8479TIP3    H146852   6.083   5.841  13.164 -0.8323  0.5902  2.2985
 8479TIP3    H246853   6.147   5.974  13.129 -0.0807 -0.0909  0.9872
 8480TIP3   OH246854   5.440   3.312   0.433 -0.6606 -0.3907 -0.3372
 8480TIP3    H146855   5.503   3.341   0.368  0.4451  0.5741  1.1070
 8480TIP3    H246856   5.421   3.390   0.485 -2.3424 -0.8820 -0.1372
 8481TIP3   OH246857   6.038   1.156  14.720  0.0181  0.3555  0.5502
 8481TIP3    H146858   6.021   1.248  14.700  0.5392  0.2864 -0.2484
 8481TIP3    H246859   5.982   1.138  14.795  0.1436  1.4043  0.9129
 8482TIP3   OH246860   4.042   2.069   2.545  0.1513  0.1029 -0.2963
 8482TIP3    H146861   4.025   2.005   2.614 -0.5654 -0.0753 -0.6258
 8482TIP3    H246862   3.998   2.148   2.575  2.3781  0.9966  0.8952
 8483TIP3   OH246863   5.967   1.420   1.643 -0.6871 -0.1892  0.1938
 8483TIP3    H146864   6.054   1.395   1.673 -0.0753  2.9424  1.4226
 8483TIP3    H246865   5.979   1.444   1.551 -0.2612  0.2321  0.3617
 8484TIP3   OH246866   3.132   2.209  13.462 -0.5682 -0.1108 -0.0591
 8484TIP3    H146867   3.041   2.215  13.431  0.0970  1.5291 -1.8981
 8484TIP3    H246868   3.125   2.216  13.557 -2.6048 -3.8898  0.2556
 8485TIP3   OH246869   3.096   5.415   6.049  0.2997 -0.4966  0.8464
 8485TIP3    H146870   3.075   5.376   5.964  1.7129 -0.3794  0.4176
 8485TIP3    H246871   3.014   5.413   6.097 -0.7134  0.0835 -0.7783
 8486TIP3   OH246872   1.229   4.942  14.224  0.3403 -0.3368  0.0988
 8486TIP3    H146873   1.142   4.924  14.188 -0.2218 -0.3146  1.3863
 8486TIP3    H246874   1.289   4.888  14.171 -0.3516  0.1636 -1.2486
 8487TIP3   OH246875   1.841   2.395  13.802 -0.3264 -0.1462  0.0298
 8487TIP3    H146876   1.837   2.490  13.791  0.2689 -0.4048 -3.9015
 8487TIP3    H246877   1.918   2.381  13.856  0.2427  1.5808 -0.2607
 8488TIP3   OH246878   5.589   3.215   4.650  0.0430  0.6373  0.2823
 8488TIP3    H146879   5.617   3.206   4.741 -1.2698  0.2386  0.6664
 8488TIP3    H246880   5.668   3.242   4.604  0.2717  3.1251  1.9055
 8489TIP3   OH246881   4.176   2.885  13.437 -0.2246 -0.1169 -0.2905
 8489TIP3    H146882   4.266   2.896  13.468  0.6514 -2.5370 -1.6572
 8489TIP3    H246883   4.182   2.893  13.342 -1.3912 -0.5031 -0.4085
 8490TIP3   OH246884   0.912   4.759  10.561  0.2193  0.1216  0.4198
 8490TIP3    H146885   0.858   4.753  10.640 -0.6897 -2.8543 -0.3044
 8490TIP3    H246886   1.002   4.749  10.593 -0.0355  0.2143  1.1968
 8491TIP3   OH246887   3.616   1.171  16.670 -0.1804  0.2624  0.5232
 8491TIP3    H146888   3.576   1.112  16.606 -1.9686  0.5420  1.3104
 8491TIP3    H246889   3.709   1.171  16.648 -0.4810 -1.0250 -0.9430
 8492TIP3   OH246890   0.064   5.966   4.004 -0.2220  0.2325 -0.0611
 8492TIP3    H146891   0.078   5.885   4.053 -2.6545  0.8655  1.9043
 8492TIP3    H246892   0.152   5.995   3.979  0.8020 -2.2877  0.3077
 8493TIP3   OH246893   5.948   6.005   1.729  0.0893  0.5105  0.2360
 8493TIP3    H146894   5.862   5.969   1.754  0.3801  0.6112  1.4255
 8493TIP3    H246895   5.945   6.007   1.634 -0.5724 -1.1392  0.1737
 8494TIP3   OH246896   4.489   3.873   3.298 -0.1632 -0.1923 -0.1733
 8494TIP3    H146897   4.417   3.877   3.361  0.2110 -2.1198  0.4322
 8494TIP3    H246898   4.557   3.823   3.341  1.5438  1.4764 -0.8012
 8495TIP3   OH246899   5.442   0.317   0.443  0.3083  0.1768 -0.1360
 8495TIP3    H146900   5.446   0.222   0.432  0.0959  0.3140 -1.5930
 8495TIP3    H246901   5.528   0.348   0.416  0.2225  0.4364 -0.1131
 8496TIP3   OH246902   5.368   6.511  11.433 -0.4035 -0.7726  0.0005
 8496TIP3    H146903   5.293   6.473  11.478 -0.6355 -1.4358 -0.9111
 8496TIP3    H246904   5.405   6.573  11.496 -0.0984 -2.3864  1.4844
 8497TIP3   OH246905   3.579   6.629  12.679 -0.1777 -0.0273  0.2827
 8497TIP3    H146906   3.524   6.649  12.603  0.9383 -0.3760 -0.6466
 8497TIP3    H246907   3.531   6.560  12.726 -1.6254  1.2605  0.7728
 8498TIP3   OH246908   2.382   0.369   2.529  0.1953  0.1401  0.3103
 8498TIP3    H146909   2.361   0.278   2.504 -1.0978  0.8755 -1.5580
 8498TIP3    H246910   2.372   0.418   2.447  2.4458  1.7463  0.9251
 8499TIP3   OH246911   0.445   3.530  11.333 -0.0152 -0.0044 -0.2708
 8499TIP3    H146912   0.391   3.529  11.254  2.1108 -2.1662 -1.8277
 8499TIP3    H246913   0.468   3.623  11.344  0.9094  0.2167 -3.1835
 8500TIP3   OH246914   6.531   2.061   1.228  0.2541 -0.2843  0.0214
 8500TIP3    H146915   6.535   2.092   1.138 -0.3863  0.0447  0.0938
 8500TIP3    H246916   6.518   1.966   1.221  0.5518 -0.3043 -0.2288
 8501TIP3   OH246917   0.785   3.151   5.633 -0.3059  0.2458  0.1361
 8501TIP3    H146918   0.773   3.169   5.726  1.2901 -0.2766  0.4660
 8501TIP3    H246919   0.822   3.063   5.630 -0.1408  0.3386 -0.9867
 8502TIP3   OH246920   0.938   1.824   0.916  0.2875 -0.7668  0.2610
 8502TIP3    H146921   0.934   1.850   1.008 -0.2816  0.4230 -0.0883
 8502TIP3    H246922   0.847   1.811   0.891  0.3083  0.4699 -0.5504
 8503TIP3   OH246923   6.116   5.915   0.787  0.1163  0.5708 -0.2954
 8503TIP3    H146924   6.080   5.987   0.838 -0.8679  1.3874 -2.0491
 8503TIP3    H246925   6.052   5.844   0.796  0.2817  0.4767  0.1401
 8504TIP3   OH246926   5.331   3.117   1.706 -0.0854 -0.2226 -0.0340
 8504TIP3    H146927   5.312   3.159   1.790  0.4825 -0.2584  0.1161
 8504TIP3    H246928   5.410   3.066   1.722  0.0626 -0.1802 -0.6082
 8505TIP3   OH246929   5.408   4.710  13.774 -0.1167  0.2417 -0.2196
 8505TIP3    H146930   5.375   4.688  13.861 -0.9926  0.7435 -0.4194
 8505TIP3    H246931   5.490   4.660  13.766 -1.0970 -1.4830  0.0716
 8506TIP3   OH246932   1.462   5.697  12.111 -0.4035 -0.2482 -0.2411
 8506TIP3    H146933   1.462   5.789  12.138 -1.6306 -0.0421 -0.8701
 8506TIP3    H246934   1.488   5.649  12.189 -3.0242  0.3944  1.1375
 8507TIP3   OH246935   2.129   6.431  15.811 -0.0136 -0.3527 -0.1586
 8507TIP3    H146936   2.222   6.419  15.791 -0.4471 -1.1845 -1.9189
 8507TIP3    H246937   2.115   6.526  15.804  1.0686  0.0375  2.1256
 8508TIP3   OH246938   3.670   3.036   4.830  0.4237 -0.0685 -0.0548
 8508TIP3    H146939   3.676   3.131   4.817 -2.7152  0.1485 -0.6219
 8508TIP3    H246940   3.641   3.026   4.920 -0.0864 -0.4395 -0.2573
 8509TIP3   OH246941   5.170   4.002  12.754  0.4480  0.0667  0.4522
 8509TIP3    H146942   5.125   4.080  12.721 -0.5233 -0.4843  0.4689
 8509TIP3    H246943   5.131   3.985  12.839  1.0394 -0.1352  0.6907
 8510TIP3   OH246944   5.085   3.136  15.611  0.6612  0.6563 -0.1620
 8510TIP3    H146945   5.135   3.205  15.567  2.1416  0.2865  0.8777
 8510TIP3    H246946   5.134   3.117  15.691 -0.6299 -0.4247  0.4246
 8511TIP3   OH246947   6.216   0.796   1.591 -0.2494 -0.4562  0.1062
 8511TIP3    H146948   6.136   0.844   1.614  0.4275  0.3431  0.8397
 8511TIP3    H246949   6.186   0.706   1.575 -1.5561  0.1851 -1.3818
 8512TIP3   OH246950   3.818   1.500   1.532  0.4742  0.5154  0.5037
 8512TIP3    H146951   3.911   1.498   1.554  0.4870  0.0228  0.4150
 8512TIP3    H246952   3.785   1.415   1.562  0.4025 -0.0192 -1.0083
 8513TIP3   OH246953   1.282   3.371  10.840 -0.6716  0.0757 -0.2028
 8513TIP3    H146954   1.331   3.420  10.906 -2.2428  0.1626  0.9531
 8513TIP3    H246955   1.192   3.371  10.872 -1.0827 -1.8266 -1.2222
 8514TIP3   OH246956   3.416   1.706  16.798 -0.1127 -0.1519  0.6771
 8514TIP3    H146957   3.407   1.667  16.711 -1.4460 -0.3934  0.9078
 8514TIP3    H246958   3.509   1.728  16.804  0.8723 -3.6450  0.6828
 8515TIP3   OH246959   6.485   3.213  14.101 -0.1378 -0.0710 -0.2122
 8515TIP3    H146960   6.480   3.276  14.029 -0.0310  0.5368  0.3008
 8515TIP3    H246961   6.564   3.238  14.148 -0.5103 -0.1144  0.4380
 8516TIP3   OH246962   1.492   2.613   4.921 -0.2520 -0.6214  0.1254
 8516TIP3    H146963   1.463   2.704   4.923 -1.8855 -1.1080 -0.0964
 8516TIP3    H246964   1.586   2.617   4.939 -0.3884  1.0589  0.5883
 8517TIP3   OH246965   5.570   1.603   2.011 -0.3358 -0.2810 -0.1450
 8517TIP3    H146966   5.650   1.584   1.962 -1.0294  0.7001 -1.7349
 8517TIP3    H246967   5.581   1.694   2.040 -0.9007 -0.0974 -0.4825
 8518TIP3   OH246968   3.646   5.952  11.285  0.1086  0.5149 -0.7938
 8518TIP3    H146969   3.682   5.935  11.372  1.5986  0.0270 -1.4751
 8518TIP3    H246970   3.673   5.877  11.233  0.3746  1.4119 -2.0032
 8519TIP3   OH246971   5.806   1.547   4.988  0.2720 -0.0315  0.5119
 8519TIP3    H146972   5.803   1.631   4.942  1.7596 -0.1232  0.2027
 8519TIP3    H246973   5.784   1.482   4.920  1.5016 -0.0805  0.1341
 8520TIP3   OH246974   4.352   6.613  14.510 -0.1116  0.5125 -0.9206
 8520TIP3    H146975   4.375   6.601  14.602  0.0555  0.2664 -0.9946
 8520TIP3    H246976   4.412   6.556  14.462 -1.1004 -0.4222 -1.0984
 8521TIP3   OH246977   2.551   6.512  14.255 -0.0298  0.7000  0.1069
 8521TIP3    H146978   2.598   6.563  14.190 -0.2040 -0.8993 -1.3632
 8521TIP3    H246979   2.615   6.449  14.287  0.0879  1.5465  1.6251
 8522TIP3   OH246980   0.689   6.210   6.492  0.2431  0.3386  0.2847
 8522TIP3    H146981   0.726   6.258   6.566  0.4642 -0.7068  0.8779
 8522TIP3    H246982   0.727   6.251   6.414  2.7976 -0.7340  0.8629
 8523TIP3   OH246983   5.700   2.086  13.935 -0.2773 -0.0026  0.2026
 8523TIP3    H146984   5.712   2.074  13.841  0.7912  0.5773  0.2534
 8523TIP3    H246985   5.626   2.029  13.957 -0.1188 -0.6449 -0.8640
 8524TIP3   OH246986   3.669   3.613   2.306  0.1694  0.1288 -0.0890
 8524TIP3    H146987   3.738   3.555   2.338  1.8282  1.3429 -1.3159
 8524TIP3    H246988   3.691   3.699   2.340 -0.9970  0.4708 -0.1491
 8525TIP3   OH246989   2.845   3.586   0.345  0.1987  0.3520 -0.1811
 8525TIP3    H146990   2.833   3.659   0.284 -0.3896 -1.6843 -2.6601
 8525TIP3    H246991   2.772   3.527   0.327  0.9414 -1.1420  1.3735
 8526TIP3   OH246992   2.217   0.398   0.043  0.2749 -0.5451  0.3518
 8526TIP3    H146993   2.270   0.325   0.011 -0.1637 -1.6198  1.9632
 8526TIP3    H246994   2.151   0.357   0.099 -1.8227  0.8282 -0.9992
 8527TIP3   OH246995   0.259   4.589   5.060  0.1472  0.2471 -0.0911
 8527TIP3    H146996   0.219   4.631   4.985  1.5029  1.8580  0.0424
 8527TIP3    H246997   0.189   4.535   5.097 -0.8387  0.2299 -1.8739
 8528TIP3   OH246998   6.370   1.038  13.122  0.4566 -0.1418 -0.0770
 8528TIP3    H146999   6.420   1.074  13.049  1.1086 -1.0369 -0.0861
 8528TIP3    H247000   6.391   1.095  13.196 -0.3882  0.9106 -0.6154
 8529TIP3   OH247001   3.389   2.478   5.798  0.2123 -0.0226 -0.2566
 8529TIP3    H147002   3.453   2.495   5.729 -0.6448  1.5097 -0.7416
 8529TIP3    H247003   3.315   2.535   5.776 -0.4800 -0.2197  1.4033
 8530TIP3   OH247004   5.708   4.613  16.168 -0.0544  0.1806  0.0164
 8530TIP3    H147005   5.702   4.535  16.113  0.2215  0.6450 -0.6913
 8530TIP3    H247006   5.680   4.684  16.111  0.0925  0.6549  0.5295
 8531TIP3   OH247007   1.843   6.196  16.041 -0.3084  0.2299 -0.1781
 8531TIP3    H147008   1.783   6.146  15.986 -1.4304  1.8170 -0.4400
 8531TIP3    H247009   1.929   6.180  16.003 -0.9177  0.3340 -1.6670
 8532TIP3   OH247010   4.051   2.959   2.374 -0.7206  0.2559 -0.4869
 8532TIP3    H147011   4.052   2.868   2.343  3.5916 -0.7682  1.8462
 8532TIP3    H247012   3.991   2.958   2.449 -1.0973 -0.5564 -0.7875
 8533TIP3   OH247013   6.225   5.317  16.810 -0.2459 -0.5092  0.5763
 8533TIP3    H147014   6.307   5.280  16.843 -0.1528 -0.6334  0.2152
 8533TIP3    H247015   6.228   5.409  16.835  0.8039 -0.1006 -0.9115
 8534TIP3   OH247016   6.546   6.209   0.363  0.7112  0.1850  0.1184
 8534TIP3    H147017   6.453   6.216   0.385  0.8266  1.4304  0.3048
 8534TIP3    H247018   6.591   6.204   0.447  0.8383  0.0172  0.0413
 8535TIP3   OH247019   2.155   6.390   2.918  0.6697 -0.1122 -0.2896
 8535TIP3    H147020   2.109   6.362   2.839 -1.1050 -1.2818  1.0763
 8535TIP3    H247021   2.132   6.325   2.984  1.2743  1.3554  1.4712
 8536TIP3   OH247022   6.130   4.195   3.652 -0.6801  0.2150  0.1290
 8536TIP3    H147023   6.036   4.201   3.670 -0.8143 -0.7480 -0.1656
 8536TIP3    H247024   6.164   4.140   3.722 -0.5720 -0.5277 -0.4985
 8537TIP3   OH247025   4.177   3.455  16.271 -0.6386 -0.3297 -0.4106
 8537TIP3    H147026   4.178   3.379  16.329  2.8467  1.4134  2.1668
 8537TIP3    H247027   4.207   3.421  16.187 -0.1550 -1.9986  0.4014
 8538TIP3   OH247028   2.002   0.518   5.039 -0.1757 -0.2387 -0.0217
 8538TIP3    H147029   2.005   0.515   4.943 -1.4414 -0.1408 -0.0803
 8538TIP3    H247030   2.036   0.433   5.067  1.2502  0.1443 -0.5098
 8539TIP3   OH247031   2.773   6.213   6.074  0.1727  0.1712 -0.0814
 8539TIP3    H147032   2.764   6.303   6.042  1.0788  0.9005  1.5803
 8539TIP3    H247033   2.819   6.222   6.158  0.9774 -1.9146 -0.2518
 8540TIP3   OH247034   6.488   6.106   1.759 -0.3875  0.1940  0.4579
 8540TIP3    H147035   6.410   6.104   1.704 -0.7036  0.3810  0.8979
 8540TIP3    H247036   6.509   6.014   1.773 -0.1588  0.1427 -0.1763
 8541TIP3   OH247037   5.968   1.659   0.232  0.3816 -0.1550  0.2915
 8541TIP3    H147038   5.938   1.570   0.254  1.2977 -0.8208 -1.0327
 8541TIP3    H247039   6.009   1.690   0.313 -1.6967 -0.1239  1.4036
 8542TIP3   OH247040   1.947   4.577   1.819  0.0745 -0.7192  0.5130
 8542TIP3    H147041   2.011   4.565   1.889  0.4730  1.1878  0.5343
 8542TIP3    H247042   1.999   4.576   1.739  0.2561  1.1524  0.5487
 8543TIP3   OH247043   1.956   2.441   3.011 -0.7147  0.0023  0.0244
 8543TIP3    H147044   1.986   2.500   2.943  1.6520 -1.0600  0.0308
 8543TIP3    H247045   1.909   2.497   3.073  1.2805  1.8769 -0.0377
 8544TIP3   OH247046   0.729   4.603  11.292 -0.1639 -0.7374  0.0216
 8544TIP3    H147047   0.819   4.602  11.323 -0.0074 -2.0469 -0.4332
 8544TIP3    H247048   0.736   4.587  11.198 -0.8088  0.2601 -0.2115
 8545TIP3   OH247049   3.922   0.169   0.769  0.0089  0.2900  0.5194
 8545TIP3    H147050   3.881   0.211   0.845 -0.0002  1.4543 -0.1074
 8545TIP3    H247051   3.868   0.197   0.694  0.4946 -0.1766 -0.0133
 8546TIP3   OH247052   6.745   1.613   5.132 -0.2747 -0.1633  0.1378
 8546TIP3    H147053   6.714   1.623   5.042  0.0903  0.8849  0.1194
 8546TIP3    H247054   6.666   1.626   5.185 -0.0997  1.5374  0.0482
 8547TIP3   OH247055   1.769   6.308  15.574 -0.2876 -0.0658  0.1933
 8547TIP3    H147056   1.809   6.225  15.598 -3.2239 -2.1747 -1.5045
 8547TIP3    H247057   1.810   6.332  15.491  0.4197  0.0986  0.5846
 8548TIP3   OH247058   4.614   1.841  15.845  0.2366  0.3710  0.2185
 8548TIP3    H147059   4.601   1.746  15.846  2.3690 -0.0204 -1.7138
 8548TIP3    H247060   4.528   1.877  15.822 -0.6772 -1.0258  1.2877
 8549TIP3   OH247061   1.793   1.301  14.039  0.4262  0.1525  0.1801
 8549TIP3    H147062   1.854   1.342  14.101  2.0847  0.2562 -1.4054
 8549TIP3    H247063   1.761   1.374  13.986  1.3452 -0.2443 -0.9639
 8550TIP3   OH247064   0.700   5.512  12.293 -0.0590 -0.5283 -0.2171
 8550TIP3    H147065   0.784   5.466  12.290  0.1190 -0.2269  0.0797
 8550TIP3    H247066   0.644   5.455  12.347 -0.1264 -0.8533 -0.6239
 8551TIP3   OH247067   4.612   1.925   0.955 -0.1760  0.0557  0.0760
 8551TIP3    H147068   4.653   1.882   0.879 -0.8881  0.1482 -0.3737
 8551TIP3    H247069   4.590   1.853   1.014 -1.1177 -0.2009 -0.5527
 8552TIP3   OH247070   0.865   1.942  11.975 -0.2511  0.1816 -0.1664
 8552TIP3    H147071   0.904   1.865  11.935 -0.2478  1.4535 -2.8268
 8552TIP3    H247072   0.775   1.916  11.995 -0.5405 -0.2968 -1.9103
 8553TIP3   OH247073   6.069   2.663   4.255  0.1003 -0.7118  0.5596
 8553TIP3    H147074   6.086   2.569   4.266 -0.4358 -0.9100 -0.2605
 8553TIP3    H247075   5.999   2.667   4.190 -0.4687  0.2276  1.2130
 8554TIP3   OH247076   2.319   2.907   1.201 -0.6582 -0.4241 -0.0457
 8554TIP3    H147077   2.252   2.905   1.132 -0.5465 -1.3547 -0.1276
 8554TIP3    H247078   2.402   2.894   1.155 -0.2795  1.7499 -0.0808
 8555TIP3   OH247079   4.127   4.064  17.071  0.2807 -0.3316 -0.1949
 8555TIP3    H147080   4.178   4.004  17.126  0.8390  1.2016  1.0245
 8555TIP3    H247081   4.188   4.093  17.004 -0.1144 -1.4170 -1.0567
 8556TIP3   OH247082   3.164   3.602   1.487 -0.4963  0.5398 -0.5962
 8556TIP3    H147083   3.192   3.653   1.563  0.2880 -0.6573 -0.0624
 8556TIP3    H247084   3.173   3.511   1.514 -0.4174  0.0902 -2.0462
 8557TIP3   OH247085   0.412   4.880  15.379 -0.2198  0.0306 -0.6821
 8557TIP3    H147086   0.495   4.840  15.355  0.4335  1.9925 -1.9107
 8557TIP3    H247087   0.433   4.973  15.392 -1.8731  0.2560  0.8856
 8558TIP3   OH247088   3.190   4.724   4.200  0.2350  0.0919 -0.4651
 8558TIP3    H147089   3.237   4.770   4.270 -1.0049 -0.6343  0.8956
 8558TIP3    H247090   3.145   4.794   4.153 -0.3194  0.4606  0.5675
 8559TIP3   OH247091   3.847   4.372  10.976 -0.1595  0.0706 -0.3698
 8559TIP3    H147092   3.806   4.406  11.055  1.3766  2.2867 -0.4550
 8559TIP3    H247093   3.827   4.436  10.908  1.9214  0.3541 -0.7984
 8560TIP3   OH247094   5.619   0.017  16.078 -0.2480  0.2804 -0.1399
 8560TIP3    H147095   5.555   0.014  16.007 -0.2236 -0.2740 -0.1389
 8560TIP3    H247096   5.654   0.106  16.075 -1.3186  0.7270  0.1200
 8561TIP3   OH247097   4.742   1.047  16.194 -0.1634 -0.5277  0.5166
 8561TIP3    H147098   4.806   0.978  16.179  0.2580  0.2541 -1.5140
 8561TIP3    H247099   4.749   1.066  16.288  0.6584 -2.2783  0.8552
 8562TIP3   OH247100   1.797   0.871   4.333 -0.2445 -0.9171  0.5018
 8562TIP3    H147101   1.884   0.836   4.314 -0.8551 -1.4683 -1.5019
 8562TIP3    H247102   1.763   0.901   4.249 -0.7721  2.2992  1.7136
 8563TIP3   OH247103   4.746   5.874   5.641 -0.2959 -0.7914  0.7973
 8563TIP3    H147104   4.738   5.803   5.577  0.5804 -0.5842  0.4275
 8563TIP3    H247105   4.667   5.869   5.694 -0.0434 -2.3335  1.0703
 8564TIP3   OH247106   5.207   0.962   1.466  0.4305  0.4279  0.2621
 8564TIP3    H147107   5.175   0.992   1.552 -1.5406 -0.9402  0.0639
 8564TIP3    H247108   5.200   0.867   1.470  2.8678  0.1593 -0.5075
 8565TIP3   OH247109   0.370   3.589  17.067  0.2015 -0.1700  0.6665
 8565TIP3    H147110   0.307   3.561  17.001 -0.9311  0.4715  1.4427
 8565TIP3    H247111   0.403   3.507  17.105 -1.2283 -0.5255  1.2068
 8566TIP3   OH247112   0.301   0.630  14.287 -0.8276 -0.1249  0.3724
 8566TIP3    H147113   0.378   0.662  14.334 -0.0812 -0.8915 -0.3266
 8566TIP3    H247114   0.258   0.572  14.349 -0.0453 -0.8418  0.2527
 8567TIP3   OH247115   0.428   2.905  16.852 -0.2463 -0.3413 -0.3689
 8567TIP3    H147116   0.505   2.863  16.889 -0.2291 -1.0498 -1.1762
 8567TIP3    H247117   0.443   2.999  16.864  0.2360 -0.5189  0.4402
 8568TIP3   OH247118   5.971   1.326  14.037  0.2839 -0.0085 -0.7208
 8568TIP3    H147119   6.003   1.258  14.097 -1.4622  0.6398  1.0757
 8568TIP3    H247120   6.048   1.378  14.017  1.0972 -0.7671  0.2946
 8569TIP3   OH247121   2.980   5.380  10.673 -0.0752  0.4630  0.3863
 8569TIP3    H147122   2.972   5.474  10.652 -1.7856  0.3261  0.2283
 8569TIP3    H247123   3.049   5.376  10.739  1.0257  1.6615 -0.6362
 8570TIP3   OH247124   0.061   6.309   0.810 -0.1307  0.0177 -0.2070
 8570TIP3    H147125   0.147   6.283   0.777 -0.4985  0.4014 -1.4825
 8570TIP3    H247126   0.009   6.229   0.807  0.1333 -0.1921  0.4762
 8571TIP3   OH247127   4.499   5.336  12.880  0.4475 -0.9820 -0.2669
 8571TIP3    H147128   4.562   5.405  12.900  1.1338 -1.3422 -1.1064
 8571TIP3    H247129   4.506   5.324  12.785 -0.0273 -1.8640 -0.2037
 8572TIP3   OH247130   1.961   2.996  17.134  0.6511  0.4357 -0.3617
 8572TIP3    H147131   2.005   3.075  17.166 -0.6283  0.2445  2.1130
 8572TIP3    H247132   2.022   2.925  17.153  1.2617  0.6407 -1.4291
 8573TIP3   OH247133   2.668   0.615  13.981  0.1854 -0.2083  0.0099
 8573TIP3    H147134   2.634   0.701  13.955 -0.9787 -0.4462  0.6972
 8573TIP3    H247135   2.731   0.594  13.912  0.4364  1.1517 -0.2194
 8574TIP3   OH247136   3.124   1.586   2.859  0.0849 -0.0659  0.4747
 8574TIP3    H147137   3.053   1.545   2.808  0.0613  0.8196 -0.2309
 8574TIP3    H247138   3.160   1.514   2.911 -1.4775 -0.4926  1.0294
 8575TIP3   OH247139   1.015   4.423  11.084 -0.4060  0.0964 -0.2545
 8575TIP3    H147140   0.937   4.408  11.031 -0.6978  0.2373  0.1308
 8575TIP3    H247141   1.078   4.357  11.054 -2.1850 -3.1944  2.4965
 8576TIP3   OH247142   0.507   0.654   5.478 -0.1963 -0.5159 -0.0557
 8576TIP3    H147143   0.592   0.693   5.495  0.9618 -2.9608  0.1801
 8576TIP3    H247144   0.444   0.724   5.495  1.8070  2.2138 -2.9393
 8577TIP3   OH247145   3.447   0.836  11.057  0.9528  0.6678  0.4969
 8577TIP3    H147146   3.356   0.829  11.086  0.7553  1.6118  0.1565
 8577TIP3    H247147   3.453   0.925  11.021  1.5976  0.0808 -0.9050
 8578TIP3   OH247148   1.784   4.149  12.539  0.0121  0.5103 -0.2983
 8578TIP3    H147149   1.834   4.188  12.467 -0.7750  0.5689 -0.8344
 8578TIP3    H247150   1.841   4.081  12.575  1.1557  1.7059  0.2354
 8579TIP3   OH247151   0.626   4.503  11.664 -0.4651  0.5460 -0.1087
 8579TIP3    H147152   0.622   4.595  11.638 -0.0847  0.8564  0.9035
 8579TIP3    H247153   0.633   4.505  11.760 -1.8407 -0.5575  0.0612
 8580TIP3   OH247154   1.309   4.324   1.553  0.0814 -0.2932  0.2929
 8580TIP3    H147155   1.216   4.350   1.554  0.5283  1.6134 -1.0005
 8580TIP3    H247156   1.342   4.347   1.639 -0.6812 -1.2617  0.8686
 8581TIP3   OH247157   1.153   1.307   3.940  0.6272 -0.1558  0.1946
 8581TIP3    H147158   1.216   1.240   3.914  0.5088 -1.3789  2.7216
 8581TIP3    H247159   1.182   1.334   4.028 -2.3598 -0.8287  1.4804
 8582TIP3   OH247160   6.247   3.987  14.102 -0.4912 -0.3288  0.4391
 8582TIP3    H147161   6.340   3.991  14.081 -0.6857 -0.5547 -0.5416
 8582TIP3    H247162   6.206   4.048  14.039 -1.2380 -1.9391 -0.7154
 8583TIP3   OH247163   4.962   6.151  12.107  0.4521 -0.0048 -0.8167
 8583TIP3    H147164   5.047   6.152  12.152  0.1221  0.2098 -0.1840
 8583TIP3    H247165   4.981   6.114  12.021  1.4807  1.5168 -1.2824
 8584TIP3   OH247166   4.610   0.655   4.050  0.5088  0.6292  0.1902
 8584TIP3    H147167   4.622   0.699   4.134 -2.3098  2.1896 -0.0991
 8584TIP3    H247168   4.591   0.564   4.073  1.5729  0.6222  1.1045
 8585TIP3   OH247169   0.103   4.760  17.036  0.5028  0.9535  0.2832
 8585TIP3    H147170   0.118   4.696  17.105 -0.9618  0.7254  0.4313
 8585TIP3    H247171   0.098   4.708  16.955  0.8080  1.0550  0.1977
 8586TIP3   OH247172   0.399   6.367   0.954  0.2190 -0.2168 -0.2343
 8586TIP3    H147173   0.372   6.446   1.002 -2.1627 -2.5496  2.7119
 8586TIP3    H247174   0.343   6.367   0.877 -1.2647  0.0089  0.7909
 8587TIP3   OH247175   3.808   5.607  16.691 -0.0268 -0.0195 -0.0917
 8587TIP3    H147176   3.834   5.522  16.726 -0.0254  0.4823  1.1625
 8587TIP3    H247177   3.712   5.608  16.700  0.0486  0.4581  0.7272
 8588TIP3   OH247178   5.918   3.233  11.956 -0.1006 -0.4316 -0.4426
 8588TIP3    H147179   5.900   3.274  12.041  1.0496 -0.7149 -0.0434
 8588TIP3    H247180   5.835   3.191  11.932 -0.0702 -1.5676  1.2336
 8589TIP3   OH247181   4.349   1.410   4.988 -0.3427 -0.4385  0.1781
 8589TIP3    H147182   4.420   1.345   4.983  1.4542  1.4326  0.0584
 8589TIP3    H247183   4.375   1.468   5.059 -0.9062  1.2595 -0.9541
 8590TIP3   OH247184   5.630   5.960  16.692  0.6192  0.1571 -0.1696
 8590TIP3    H147185   5.691   6.032  16.708  2.1376 -0.9273 -0.8473
 8590TIP3    H247186   5.668   5.885  16.738 -1.0102 -0.2174  0.6698
 8591TIP3   OH247187   5.198   4.437  14.201 -0.4368  0.4926  0.2921
 8591TIP3    H147188   5.264   4.368  14.206 -0.0086  0.9483  1.0856
 8591TIP3    H247189   5.152   4.433  14.285 -0.3711  1.2099  0.3680
 8592TIP3   OH247190   1.806   0.187   2.722  0.2985 -0.3565 -0.0463
 8592TIP3    H147191   1.799   0.266   2.669  1.4459  0.0381  0.3747
 8592TIP3    H247192   1.721   0.143   2.710 -0.1927  0.7113 -0.6149
 8593TIP3   OH247193   1.567   6.661   0.444 -0.3778  0.6527  0.3310
 8593TIP3    H147194   1.486   6.691   0.485 -0.6876  2.6091 -1.5270
 8593TIP3    H247195   1.631   6.729   0.467  0.4315 -0.2330  0.7467
 8594TIP3   OH247196   0.389   6.198   5.869  0.0524 -0.6087  0.1325
 8594TIP3    H147197   0.461   6.181   5.930 -0.0583  0.1930  0.5029
 8594TIP3    H247198   0.433   6.222   5.787  0.2195  0.1840  0.4446
 8595TIP3   OH247199   1.180   4.880   4.244 -0.3382 -0.0750 -0.3421
 8595TIP3    H147200   1.194   4.846   4.155  0.2571 -0.7813  0.0071
 8595TIP3    H247201   1.265   4.912   4.271 -0.1699 -1.1576  0.4888
 8596TIP3   OH247202   1.994   1.755   4.812 -0.0814  0.2820  0.1932
 8596TIP3    H147203   2.027   1.797   4.891  0.8261  3.4806 -1.7226
 8596TIP3    H247204   1.925   1.814   4.780  0.3141 -0.3077 -1.9551
 8597TIP3   OH247205   6.437   2.512  11.388 -0.0289 -0.4585  0.0555
 8597TIP3    H147206   6.431   2.597  11.430 -0.5195 -1.4295  2.0885
 8597TIP3    H247207   6.499   2.462  11.441 -2.6465 -2.6013  1.3912
 8598TIP3   OH247208   0.827   5.442   4.779 -0.0435 -0.0351  0.0017
 8598TIP3    H147209   0.764   5.381   4.742 -0.8976  1.1479 -0.5781
 8598TIP3    H247210   0.879   5.390   4.841 -0.3505 -1.4428 -0.8915
 8599TIP3   OH247211   5.886   4.433  15.301  0.6402  0.5799 -0.3764
 8599TIP3    H147212   5.913   4.418  15.210  0.0581  1.1511 -0.6497
 8599TIP3    H247213   5.804   4.383  15.310  0.3065  1.1109 -0.3940
 8600TIP3   OH247214   5.141   2.961   4.506  0.4609  0.1419 -0.2395
 8600TIP3    H147215   5.187   2.896   4.453  0.4217 -0.0853  0.0033
 8600TIP3    H247216   5.075   2.911   4.553  1.2032  0.1574  0.8606
 8601TIP3   OH247217   0.232   0.761   3.432  0.3450 -0.1521 -0.4234
 8601TIP3    H147218   0.224   0.789   3.523 -0.4203 -0.5722 -0.3564
 8601TIP3    H247219   0.250   0.667   3.438 -1.6677 -0.6049 -0.7171
 8602TIP3   OH247220   0.822   2.494  11.906 -0.3523 -0.4252  0.8295
 8602TIP3    H147221   0.745   2.463  11.859 -0.1853  0.2517  0.0909
 8602TIP3    H247222   0.864   2.555  11.845 -0.3365  0.7767  2.0063
 8603TIP3   OH247223   0.031   4.008   3.217  0.0960  0.0436  0.4833
 8603TIP3    H147224   0.040   3.968   3.130  0.2129 -0.8553  0.9013
 8603TIP3    H247225   0.112   3.983   3.263  0.3488  1.0877  0.6315
 8604TIP3   OH247226   2.871   2.725  16.495 -0.2869 -0.7530  0.0726
 8604TIP3    H147227   2.958   2.739  16.458  0.4178 -0.0798  1.8923
 8604TIP3    H247228   2.886   2.675  16.576 -1.2055  1.9369  2.0623
 8605TIP3   OH247229   2.885   0.238  10.799 -0.6555  0.4152  0.6125
 8605TIP3    H147230   2.921   0.149  10.791  0.4673  0.9618 -0.9853
 8605TIP3    H247231   2.791   0.225  10.808 -0.9498 -0.9561 -2.8929
 8606TIP3   OH247232   0.880   3.491  12.368  1.1806  0.3627  0.3283
 8606TIP3    H147233   0.933   3.411  12.362  1.0714  0.3757 -1.6012
 8606TIP3    H247234   0.940   3.561  12.344  0.7668  0.5935 -0.0507
 8607TIP3   OH247235   2.949   2.376  16.480 -0.0260 -0.0436  0.1444
 8607TIP3    H147236   2.857   2.397  16.462 -0.1398 -1.0656 -0.5088
 8607TIP3    H247237   2.994   2.393  16.397 -0.3168 -3.3959 -0.8534
 8608TIP3   OH247238   4.526   6.637  11.848  0.1171 -0.3158  0.1859
 8608TIP3    H147239   4.499   6.701  11.914 -1.0068 -0.0145 -0.5411
 8608TIP3    H247240   4.535   6.688  11.767  2.6095 -0.4548  0.2969
 8609TIP3   OH247241   0.099   5.345   4.450  0.6382 -0.2350  0.1733
 8609TIP3    H147242   0.168   5.401   4.414 -0.0894  0.4132 -0.2499
 8609TIP3    H247243   0.086   5.377   4.539  0.8599 -0.3383  0.2436
 8610TIP3   OH247244   6.167   1.012  16.101 -0.3516 -0.3898 -0.1440
 8610TIP3    H147245   6.219   1.089  16.078 -0.8377 -0.1953 -0.6263
 8610TIP3    H247246   6.222   0.938  16.076 -1.2877 -0.2196 -3.2130
 8611TIP3   OH247247   4.826   2.862  12.341 -0.0800  0.7547  0.2470
 8611TIP3    H147248   4.822   2.958  12.339 -2.0914  0.7374  1.0006
 8611TIP3    H247249   4.824   2.840  12.434  0.6588 -0.0355  0.0910
 8612TIP3   OH247250   4.322   3.452   0.298  0.3581 -0.2539  0.3506
 8612TIP3    H147251   4.408   3.411   0.309 -0.5644 -2.0931  1.2022
 8612TIP3    H247252   4.269   3.415   0.369 -1.4799 -0.1854 -0.9151
 8613TIP3   OH247253   4.202   1.521  16.990 -0.1837  0.0430 -0.6567
 8613TIP3    H147254   4.232   1.528  17.080  1.4729  0.4835 -1.1912
 8613TIP3    H247255   4.118   1.475  16.995 -0.1654  0.1550  1.0942
 8614TIP3   OH247256   4.067   1.084  15.593 -0.2491 -0.2982 -0.0932
 8614TIP3    H147257   4.001   1.142  15.555  0.2804  1.8516  2.0594
 8614TIP3    H247258   4.127   1.064  15.521  0.5843  3.3566 -0.5787
 8615TIP3   OH247259   1.800   3.476   4.732  0.2724 -0.0973 -0.2260
 8615TIP3    H147260   1.767   3.538   4.667 -1.2483 -1.9989 -1.3953
 8615TIP3    H247261   1.895   3.486   4.729  0.0850  2.6032  0.1433
 8616TIP3   OH247262   2.368   5.061  14.929  0.1502  0.4658  0.1778
 8616TIP3    H147263   2.289   5.007  14.922 -0.0527  0.7634  0.1126
 8616TIP3    H247264   2.430   5.008  14.979  0.3863 -0.3006 -0.9180
 8617TIP3   OH247265   2.686   2.511   5.231  0.8418  0.4382  0.1752
 8617TIP3    H147266   2.701   2.463   5.313  0.5753 -0.1532 -0.1124
 8617TIP3    H247267   2.674   2.442   5.166 -1.8592  0.8148  0.1511
 8618TIP3   OH247268   0.183   5.531   6.427 -0.4631  0.2174 -0.2710
 8618TIP3    H147269   0.206   5.618   6.460  0.1332  0.4068 -1.1376
 8618TIP3    H247270   0.172   5.544   6.333 -1.9170 -0.3422 -0.2033
 8619TIP3   OH247271   4.069   4.116   6.291 -0.1322  0.0342  0.4978
 8619TIP3    H147272   4.074   4.136   6.385  0.9582  0.1617  0.4252
 8619TIP3    H247273   4.091   4.023   6.285  0.7641  0.2515  0.2895
 8620TIP3   OH247274   1.629   5.720  13.508  0.4226 -0.1198  0.5018
 8620TIP3    H147275   1.589   5.775  13.576  0.0577 -1.3325  1.2927
 8620TIP3    H247276   1.619   5.771  13.427 -0.2458  0.8030  1.1482
 8621TIP3   OH247277   3.005   5.966   3.999  0.2085  0.5659  0.9429
 8621TIP3    H147278   3.049   6.049   3.980  0.3898  0.7691  2.1687
 8621TIP3    H247279   3.054   5.929   4.073 -1.4737  0.6408  2.1450
 8622TIP3   OH247280   3.518   1.927   3.571  0.3985 -0.1395  0.4707
 8622TIP3    H147281   3.424   1.911   3.562  0.3858  0.3026 -0.3149
 8622TIP3    H247282   3.523   1.994   3.639  0.0588  0.5987 -0.2117
 8623TIP3   OH247283   1.203   6.125  11.153  0.2018  0.1806  0.0139
 8623TIP3    H147284   1.247   6.190  11.098 -1.3056  1.1922 -0.0416
 8623TIP3    H247285   1.177   6.056  11.092 -2.3698  1.7693 -0.8451
 8624TIP3   OH247286   5.010   1.020  15.690 -0.3736  0.3361 -0.2311
 8624TIP3    H147287   4.950   1.095  15.699  0.7366  1.0851  1.3182
 8624TIP3    H247288   4.997   0.969  15.770 -0.2077 -0.4699 -0.7106
 8625TIP3   OH247289   4.291   3.451  16.001  0.4084  0.0185 -0.5603
 8625TIP3    H147290   4.235   3.507  15.947  0.1011  1.7684  1.4177
 8625TIP3    H247291   4.380   3.468  15.970  0.2162  0.7750 -0.7161
 8626TIP3   OH247292   6.672   4.029  15.181 -0.0599  0.1264 -0.0659
 8626TIP3    H147293   6.635   4.094  15.241  0.3093 -0.6761  1.0851
 8626TIP3    H247294   6.739   3.985  15.233  1.0411  0.1249 -1.4284
 8627TIP3   OH247295   3.228   5.984  14.006 -0.2820  0.3444  0.8559
 8627TIP3    H147296   3.304   5.978  14.063 -0.5135 -2.6357  1.0132
 8627TIP3    H247297   3.264   5.993  13.917  0.1704  0.8349  1.0831
 8628TIP3   OH247298   6.052   0.278   1.390  0.3399 -0.0908  0.4445
 8628TIP3    H147299   6.082   0.309   1.304  0.1644 -0.0118  0.4113
 8628TIP3    H247300   6.132   0.258   1.438  0.4234 -1.3162 -0.1719
 8629TIP3   OH247301   5.776   3.297   5.851 -0.0436 -0.7095 -0.1384
 8629TIP3    H147302   5.721   3.233   5.897  0.7916 -0.5734  1.1091
 8629TIP3    H247303   5.778   3.373   5.910  2.0994 -1.0099  0.2503
 8630TIP3   OH247304   1.352   6.541   2.240  0.4644 -0.1076 -0.2876
 8630TIP3    H147305   1.390   6.453   2.241 -1.0682 -0.8342 -1.8460
 8630TIP3    H247306   1.419   6.596   2.200  0.8356 -0.8726 -0.7299
 8631TIP3   OH247307   6.462   2.198  13.368 -0.0502  0.2486 -0.2763
 8631TIP3    H147308   6.499   2.271  13.418 -0.2541  0.0429  0.1790
 8631TIP3    H247309   6.375   2.228  13.342 -0.4490 -0.1274  0.5908
 8632TIP3   OH247310   5.402   0.834  15.678 -0.2845 -0.2630  0.6014
 8632TIP3    H147311   5.390   0.928  15.693  2.1394  0.2858 -0.4119
 8632TIP3    H247312   5.381   0.823  15.585 -2.8742 -1.2400  1.2239
 8633TIP3   OH247313   0.718   1.043   6.446 -0.2011 -0.4951 -0.1799
 8633TIP3    H147314   0.642   1.043   6.389  1.0750 -1.4557 -1.9624
 8633TIP3    H247315   0.792   1.027   6.388  1.3801  0.3397  1.5006
 8634TIP3   OH247316   2.487   0.688   5.505 -0.4932  0.3388  0.4733
 8634TIP3    H147317   2.433   0.663   5.429  0.2662 -1.0274  0.3466
 8634TIP3    H247318   2.482   0.783   5.508  0.0584  0.4764 -1.7478
 8635TIP3   OH247319   3.029   5.576   1.566  0.5098  0.5296 -0.3992
 8635TIP3    H147320   3.077   5.656   1.545 -2.5856  2.3145 -1.2725
 8635TIP3    H247321   2.977   5.558   1.488  0.5412 -1.9274  0.0796
 8636TIP3   OH247322   6.457   4.424   1.271 -0.0965 -0.2043  0.6005
 8636TIP3    H147323   6.533   4.368   1.252 -1.1710 -1.7133  0.5792
 8636TIP3    H247324   6.426   4.393   1.356 -0.6618  0.4416  0.6310
 8637TIP3   OH247325   0.134   2.362  14.630  0.4972 -0.1574  0.1530
 8637TIP3    H147326   0.059   2.414  14.660 -0.0371 -0.1739 -1.1002
 8637TIP3    H247327   0.154   2.396  14.543  1.4002 -0.7406  0.1133
 8638TIP3   OH247328   1.388   0.563  16.098  0.1802  0.5296  0.2640
 8638TIP3    H147329   1.381   0.471  16.072  0.0070  0.4920  0.4434
 8638TIP3    H247330   1.335   0.611  16.035  1.4931  0.6824 -0.7680
 8639TIP3   OH247331   6.494   2.644  12.933  0.5301  1.0704 -0.2595
 8639TIP3    H147332   6.419   2.607  12.888  0.9053  0.0817 -0.0872
 8639TIP3    H247333   6.531   2.571  12.983  0.8588  1.8416  0.6637
 8640TIP3   OH247334   1.953   0.342   1.299 -0.0554  0.5147 -0.0894
 8640TIP3    H147335   1.914   0.342   1.212 -0.0319  1.5404 -0.1174
 8640TIP3    H247336   1.920   0.422   1.340 -1.2383 -0.6889  1.3898
 8641TIP3   OH247337   3.458   2.521  10.418 -0.0485 -0.2074 -0.2995
 8641TIP3    H147338   3.392   2.585  10.392  0.1368  0.7218  1.3501
 8641TIP3    H247339   3.409   2.439  10.428 -0.3825 -0.2389 -1.9453
 8642TIP3   OH247340   2.425   6.401  15.295  0.3305  0.3789  1.1789
 8642TIP3    H147341   2.481   6.361  15.362  2.2063  0.0046 -0.5084
 8642TIP3    H247342   2.486   6.432  15.228 -1.2711  3.1998  0.8601
 8643TIP3   OH247343   0.332   2.607  13.709 -0.1081 -0.2221  0.6224
 8643TIP3    H147344   0.301   2.650  13.630  1.2229 -1.1468 -0.4403
 8643TIP3    H247345   0.282   2.649  13.780 -1.5447  0.4093 -0.7035
 8644TIP3   OH247346   3.951   5.520   1.448 -0.4927  0.1560  0.2498
 8644TIP3    H147347   4.000   5.440   1.432 -0.8429  0.0511 -0.3544
 8644TIP3    H247348   3.925   5.515   1.540  1.2304  0.5608  0.7903
 8645TIP3   OH247349   0.606   2.754   2.253  0.2619 -0.5360 -0.5106
 8645TIP3    H147350   0.645   2.818   2.312  1.7793 -1.4925 -0.4228
 8645TIP3    H247351   0.627   2.786   2.165  0.0289 -0.3207 -0.4872
 8646TIP3   OH247352   3.460   1.718  10.874 -0.2715  0.5870 -0.0155
 8646TIP3    H147353   3.548   1.683  10.856 -0.7745 -0.4580 -0.6052
 8646TIP3    H247354   3.404   1.640  10.875 -1.2136  1.2543  0.1883
 8647TIP3   OH247355   5.650   3.455   6.151 -0.1880  0.0086  0.0602
 8647TIP3    H147356   5.663   3.441   6.245  0.8356 -1.3790 -0.2608
 8647TIP3    H247357   5.555   3.450   6.139 -0.5727  2.6436  1.3459
 8648TIP3   OH247358   2.074   3.734  16.924 -0.7057  0.0617  0.1019
 8648TIP3    H147359   2.152   3.758  16.874 -0.8561 -1.5345 -0.9946
 8648TIP3    H247360   2.108   3.709  17.010 -0.1173  0.2821 -0.0579
 8649TIP3   OH247361   4.923   2.992   3.232  0.0923 -0.8341  0.3929
 8649TIP3    H147362   4.914   2.974   3.139 -0.3387 -0.9930  0.4626
 8649TIP3    H247363   5.016   2.981   3.250  0.3201  0.0592 -0.1905
 8650TIP3   OH247364   4.894   5.191   5.083  0.0715  0.3397 -0.0417
 8650TIP3    H147365   4.820   5.169   5.025 -1.2459  0.6624  1.4595
 8650TIP3    H247366   4.876   5.281   5.111  1.0003  0.3851  0.4186
 8651TIP3   OH247367   5.334   1.439   4.220  0.1425  0.3817 -0.1691
 8651TIP3    H147368   5.416   1.399   4.249 -0.1479 -0.8778 -0.9814
 8651TIP3    H247369   5.340   1.440   4.124 -0.3941  1.1622 -0.2059
 8652TIP3   OH247370   2.060   4.127   0.080 -0.1077  0.1125  0.4865
 8652TIP3    H147371   2.152   4.125   0.105  0.7731  0.6096 -2.3923
 8652TIP3    H247372   2.025   4.204   0.126  1.0434  0.2919  1.1114
 8653TIP3   OH247373   5.207   4.377   2.930 -0.0817  0.1673  0.6670
 8653TIP3    H147374   5.146   4.435   2.885 -0.6691  0.2086  1.4968
 8653TIP3    H247375   5.152   4.322   2.986  0.5363 -0.6342  0.5167
 8654TIP3   OH247376   3.944   3.216  15.057  0.8292  0.4102 -0.1376
 8654TIP3    H147377   3.954   3.306  15.088  0.6384 -0.2418  1.9907
 8654TIP3    H247378   3.856   3.191  15.085  0.7135 -0.3137 -1.0942
 8655TIP3   OH247379   2.001   4.326   2.520  0.2163 -0.2056  0.0513
 8655TIP3    H147380   1.956   4.256   2.568  0.7464 -0.2554  0.4897
 8655TIP3    H247381   2.064   4.280   2.464  1.5421 -0.0460  1.3547
 8656TIP3   OH247382   4.379   0.179  16.796  0.2852  0.1738  0.5148
 8656TIP3    H147383   4.291   0.166  16.760  0.4424  1.0729 -0.2287
 8656TIP3    H247384   4.377   0.267  16.834  1.0099  0.4316 -0.0035
 8657TIP3   OH247385   4.239   2.803   0.929 -0.1961  0.0738 -0.5711
 8657TIP3    H147386   4.159   2.849   0.904  0.0557  0.5639 -0.5049
 8657TIP3    H247387   4.223   2.775   1.019 -0.6884 -0.7433 -0.9057
 8658TIP3   OH247388   5.112   4.429  14.461  0.1414  0.0202  0.0418
 8658TIP3    H147389   5.034   4.401  14.508  0.1559 -2.1119 -1.0984
 8658TIP3    H247390   5.181   4.368  14.489  0.7977  0.3609 -0.7676
 8659TIP3   OH247391   1.927   0.486   4.760  0.6344 -0.0491 -0.3842
 8659TIP3    H147392   1.854   0.545   4.740 -0.2788 -1.5495 -1.7014
 8659TIP3    H247393   1.982   0.488   4.682  0.6737 -0.8268 -0.3793
 8660TIP3   OH247394   5.672   4.394   2.004  0.1474 -0.3267  0.1391
 8660TIP3    H147395   5.588   4.388   1.959 -0.1690 -0.2609  0.7119
 8660TIP3    H247396   5.693   4.487   2.003 -1.3485  0.1160  2.7710
 8661TIP3   OH247397   4.337   0.870   4.485 -0.0890  0.0915 -0.1634
 8661TIP3    H147398   4.267   0.866   4.419  0.1382  1.6220 -0.5303
 8661TIP3    H247399   4.310   0.940   4.544  1.5335  1.3227 -0.8101
 8662TIP3   OH247400   6.769   6.320   0.039 -0.0894  0.1776  0.1325
 8662TIP3    H147401   6.721   6.394   0.077 -2.2032 -1.2361  0.4174
 8662TIP3    H247402   6.770   6.337  -0.055  0.7146  1.2516  0.3266
 8663TIP3   OH247403   3.626   0.362  12.694 -0.4315  0.1076 -0.0846
 8663TIP3    H147404   3.536   0.336  12.679 -0.9511  2.2316 -1.0335
 8663TIP3    H247405   3.672   0.336  12.614 -0.4955  0.2464 -0.1662
 8664TIP3   OH247406   2.209   5.933  14.792 -0.5718 -0.1243  0.0099
 8664TIP3    H147407   2.233   5.846  14.762 -0.3441  0.3129 -1.1220
 8664TIP3    H247408   2.287   5.986  14.777 -0.4718  0.1322  1.3386
 8665TIP3   OH247409   0.703   0.497   5.215 -0.5452 -0.4570 -0.5711
 8665TIP3    H147410   0.613   0.521   5.194 -0.3415 -1.2400 -2.5257
 8665TIP3    H247411   0.711   0.516   5.308 -2.6262 -0.0709 -0.4121
 8666TIP3   OH247412   2.799   3.971   5.995 -0.2582 -0.3387 -0.3928
 8666TIP3    H147413   2.798   3.956   5.901  0.7385  0.8292 -0.6158
 8666TIP3    H247414   2.831   4.061   6.005  0.9704 -0.9011  1.1018
 8667TIP3   OH247415   3.045   4.997  16.375 -0.1924  0.2344  0.3141
 8667TIP3    H147416   3.120   5.017  16.319  0.8840 -0.5095  1.4398
 8667TIP3    H247417   2.983   4.953  16.316  1.3895 -1.5781 -0.0997
 8668TIP3   OH247418   2.100   6.503  13.143 -0.1360  0.0551 -0.9203
 8668TIP3    H147419   2.085   6.441  13.072 -0.2197 -1.0128 -0.0002
 8668TIP3    H247420   2.156   6.571  13.104 -0.0921 -0.5596 -1.9640
 8669TIP3   OH247421   2.643   5.022  16.514  0.1514  0.4802  0.1916
 8669TIP3    H147422   2.663   5.101  16.564  1.3713  0.4781 -0.2491
 8669TIP3    H247423   2.620   4.957  16.580  1.9323  0.4200  0.8094
 8670TIP3   OH247424   6.682   4.136   6.325 -0.4518  0.3923  0.2780
 8670TIP3    H147425   6.683   4.226   6.357  1.9092  0.7983 -0.7441
 8670TIP3    H247426   6.774   4.108   6.327 -1.0745 -1.8658  0.1956
 8671TIP3   OH247427   5.041   0.296   0.913 -0.2272 -0.5773 -0.0861
 8671TIP3    H147428   5.082   0.383   0.909  0.6685 -0.9314  0.8614
 8671TIP3    H247429   4.947   0.315   0.913 -0.0644  0.3213 -1.0921
 8672TIP3   OH247430   6.273   6.448   5.545  0.0249  0.7084 -0.2449
 8672TIP3    H147431   6.183   6.456   5.513 -0.3398  0.4656  0.6852
 8672TIP3    H247432   6.320   6.405   5.473 -1.0060 -0.7962 -0.0742
 8673TIP3   OH247433   2.696   3.959   5.208 -0.3081 -0.7951 -0.7623
 8673TIP3    H147434   2.673   3.868   5.226  0.3256 -0.9923 -0.9287
 8673TIP3    H247435   2.785   3.968   5.239 -0.0300 -0.4951 -1.6134
 8674TIP3   OH247436   6.755   4.413   4.721  0.1663 -0.2956 -0.4830
 8674TIP3    H147437   6.752   4.329   4.676 -0.3114  0.1699 -1.3347
 8674TIP3    H247438   6.826   4.461   4.680  0.6119 -0.3709  0.1790
 8675TIP3   OH247439   1.034   4.835  17.182  0.1495 -0.1544 -0.2206
 8675TIP3    H147440   1.127   4.828  17.164  0.3566  0.6804  0.4415
 8675TIP3    H247441   0.991   4.793  17.107  1.0743 -2.4333  0.4486
 8676TIP3   OH247442   2.117   6.529   4.470  0.0805 -0.2462 -0.0756
 8676TIP3    H147443   2.029   6.565   4.467  0.6272  1.1245 -1.4600
 8676TIP3    H247444   2.146   6.528   4.378  1.5452 -0.5246  0.3524
 8677TIP3   OH247445   0.265   4.789   0.526 -0.0698  0.6001  0.2512
 8677TIP3    H147446   0.173   4.816   0.516  0.0643  0.9540 -0.0340
 8677TIP3    H247447   0.303   4.854   0.585 -0.4155 -0.4907  1.7387
 8678TIP3   OH247448   2.498   1.633   1.164  0.3477 -0.8114 -0.1658
 8678TIP3    H147449   2.472   1.613   1.074  0.1819 -1.2044 -0.0295
 8678TIP3    H247450   2.420   1.614   1.217  0.5273 -0.8343  0.0948
 8679TIP3   OH247451   6.659   0.698  12.316  0.3994  0.1677  0.6536
 8679TIP3    H147452   6.601   0.772  12.298  1.3374  0.6769 -0.3795
 8679TIP3    H247453   6.747   0.733  12.301  0.8849 -1.0078  0.7088
 8680TIP3   OH247454   0.609   1.570  14.423  0.2879 -0.0488 -0.4061
 8680TIP3    H147455   0.516   1.588  14.413  0.2140 -1.2156 -2.4852
 8680TIP3    H247456   0.651   1.656  14.423 -0.7445  0.4714  0.2235
 8681TIP3   OH247457   0.340   0.194  15.371  0.5210  0.1947 -0.3811
 8681TIP3    H147458   0.257   0.150  15.358 -0.3506  1.0123  1.9234
 8681TIP3    H247459   0.326   0.282  15.337  0.9494 -0.0797 -1.3048
 8682TIP3   OH247460   4.617   3.749  17.134  0.3129  0.3804 -0.0545
 8682TIP3    H147461   4.574   3.666  17.113  0.6307 -0.0890  1.0561
 8682TIP3    H247462   4.658   3.733  17.219  0.9822  1.4563 -0.1661
 8683TIP3   OH247463   0.621   0.184  15.333  0.0472 -1.0021  0.1624
 8683TIP3    H147464   0.532   0.206  15.361 -0.4310 -0.6036 -1.5323
 8683TIP3    H247465   0.644   0.253  15.271  1.9370 -0.5682  1.2907
 8684TIP3   OH247466   0.439   1.019  12.343  0.8526  0.5017 -0.2962
 8684TIP3    H147467   0.495   0.942  12.356 -2.2538 -1.5458  2.3756
 8684TIP3    H247468   0.466   1.080  12.412  1.2581  0.5247 -0.4691
 8685TIP3   OH247469   5.569   5.226   3.929 -0.2480  0.1818 -0.3925
 8685TIP3    H147470   5.583   5.284   3.854 -0.3967  2.4911  1.2327
 8685TIP3    H247471   5.656   5.195   3.953  0.2318  1.8567  0.2193
 8686TIP3   OH247472   6.274   5.518  11.853  0.0090  0.1087  0.1222
 8686TIP3    H147473   6.280   5.510  11.948  1.1474  0.5008  0.1010
 8686TIP3    H247474   6.294   5.610  11.836  2.2518 -0.4676 -0.6514
 8687TIP3   OH247475   6.672   0.593  15.930 -0.2018  0.0330  0.1773
 8687TIP3    H147476   6.638   0.672  15.888 -0.9157 -0.4092 -0.1121
 8687TIP3    H247477   6.596   0.535  15.936 -0.3904  0.4537  3.0923
 8688TIP3   OH247478   6.275   5.767   1.164  0.8512 -0.4416  0.2621
 8688TIP3    H147479   6.214   5.693   1.157  1.6363 -0.9443 -2.5072
 8688TIP3    H247480   6.338   5.753   1.094  2.5121  1.5899  1.2221
 8689TIP3   OH247481   0.814   1.976   4.535  0.1319 -0.4640 -0.4496
 8689TIP3    H147482   0.738   1.918   4.536 -1.0003  0.9225  1.6820
 8689TIP3    H247483   0.794   2.040   4.466 -1.1105  0.3826  0.6366
 8690TIP3   OH247484   4.985   6.515  14.137  0.6764  0.1756 -0.0888
 8690TIP3    H147485   4.931   6.591  14.115  0.8166  0.9461  1.9918
 8690TIP3    H247486   4.931   6.463  14.196  0.8960 -0.9460 -0.8378
 8691TIP3   OH247487   0.947   1.404   4.195 -0.3141 -0.1671  0.1086
 8691TIP3    H147488   0.902   1.436   4.273  0.5107 -1.6821  1.2522
 8691TIP3    H247489   1.039   1.422   4.211  0.2475 -3.2369  0.9727
 8692TIP3   OH247490   1.190   0.739   4.827 -0.1277  0.0178  0.0242
 8692TIP3    H147491   1.281   0.763   4.843 -0.6467  0.6958  2.2755
 8692TIP3    H247492   1.170   0.673   4.892 -1.3342  0.0649 -0.2670
 8693TIP3   OH247493   1.373   0.593  14.826  0.1186  0.3208  0.3619
 8693TIP3    H147494   1.389   0.634  14.911  2.9295  0.9871 -0.4114
 8693TIP3    H247495   1.278   0.602  14.813 -0.6349 -0.9028  3.9006
 8694TIP3   OH247496   3.088   3.361  11.248 -0.1720  0.1799 -0.3037
 8694TIP3    H147497   3.147   3.373  11.322  1.2206 -1.0843 -1.1682
 8694TIP3    H247498   3.072   3.267  11.243 -0.8342  0.3144 -1.1769
 8695TIP3   OH247499   5.092   6.616  15.732 -0.2010  0.1099 -0.5380
 8695TIP3    H147500   5.172   6.668  15.741 -1.5419  2.0464  0.9773
 8695TIP3    H247501   5.106   6.539  15.787  1.5278 -0.8718 -2.2301
 8696TIP3   OH247502   5.789   1.146  13.617 -0.0712 -0.0697 -0.2820
 8696TIP3    H147503   5.843   1.124  13.693  1.0233 -0.6131 -1.1899
 8696TIP3    H247504   5.727   1.073  13.610 -0.0431 -0.1188 -0.0420
 8697TIP3   OH247505   2.951   4.398   2.759  0.2889  0.2831  0.4935
 8697TIP3    H147506   2.957   4.303   2.752 -0.7603  0.3048 -1.4958
 8697TIP3    H247507   3.018   4.431   2.700 -0.8362  0.7216 -0.5889
 8698TIP3   OH247508   1.299   2.727   4.425  0.5198 -1.1656 -0.3636
 8698TIP3    H147509   1.376   2.722   4.482 -0.8606 -2.3515  1.5133
 8698TIP3    H247510   1.308   2.652   4.366  0.4465 -1.7626  0.3673
 8699TIP3   OH247511   6.185   6.748  13.820  0.5017 -0.5285 -0.1065
 8699TIP3    H147512   6.207   6.762  13.912  0.8452 -1.8981  0.0355
 8699TIP3    H247513   6.254   6.794  13.772  1.1537 -1.0157  0.3366
 8700TIP3   OH247514   3.553   2.224   4.729 -0.3720 -0.4754 -0.2157
 8700TIP3    H147515   3.575   2.187   4.814 -0.4146  0.2577  0.1226
 8700TIP3    H247516   3.458   2.236   4.732 -0.1572  1.5426  0.4911
 8701TIP3   OH247517   2.107   1.111   5.004 -0.4140  0.0259 -0.4153
 8701TIP3    H147518   2.021   1.072   5.020 -0.6007  0.3960 -0.5045
 8701TIP3    H247519   2.158   1.042   4.962 -0.6161 -0.2471 -0.2126
 8702TIP3   OH247520   5.581   5.043   5.454 -0.1662  0.1543 -0.4772
 8702TIP3    H147521   5.664   4.996   5.455  0.4967  1.2216 -1.8181
 8702TIP3    H247522   5.539   5.015   5.373 -0.4268  0.7674 -0.5560
 8703TIP3   OH247523   3.651   6.001  12.692 -0.5122 -0.0547 -0.4182
 8703TIP3    H147524   3.602   5.984  12.773 -0.8784 -2.3337 -1.0642
 8703TIP3    H247525   3.696   6.084  12.709  0.2115 -0.9275  2.5142
 8704TIP3   OH247526   0.020   4.317  16.563  0.1914  0.4240 -0.1765
 8704TIP3    H147527   0.101   4.337  16.611 -0.2861  0.2509  0.7195
 8704TIP3    H247528  -0.041   4.385  16.589 -0.2861 -0.0624 -0.0083
 8705TIP3   OH247529   6.276   0.643  15.755 -0.1097 -0.1066 -0.5544
 8705TIP3    H147530   6.268   0.665  15.662 -1.0866  0.7507 -0.2844
 8705TIP3    H247531   6.186   0.640  15.786  0.1659 -1.4074  0.1483
 8706TIP3   OH247532   4.207   2.172  12.591  0.8443 -0.1252  0.2194
 8706TIP3    H147533   4.263   2.193  12.665 -0.0144 -1.3759  1.2890
 8706TIP3    H247534   4.265   2.172  12.515  1.7978  0.9184  0.9301
 8707TIP3   OH247535   0.059   2.280   2.137  0.0854  0.0056 -0.7891
 8707TIP3    H147536  -0.010   2.288   2.071 -0.9764 -1.1442  0.1511
 8707TIP3    H247537   0.043   2.353   2.197  0.9226  0.9228 -1.6252
 8708TIP3   OH247538   2.007   6.542   3.718  0.2661  0.4262 -0.5263
 8708TIP3    H147539   2.041   6.631   3.712  3.0592 -0.4920  0.2072
 8708TIP3    H247540   2.040   6.498   3.639  0.5097 -0.4218  0.0294
 8709TIP3   OH247541   2.515   4.452   0.712 -0.3806 -0.4898  0.4439
 8709TIP3    H147542   2.458   4.513   0.664 -0.9745  0.0612  1.7892
 8709TIP3    H247543   2.486   4.365   0.685 -0.5102 -0.1876 -0.4066
 8710TIP3   OH247544   1.117   4.687  14.475  0.4776 -0.2030 -0.0716
 8710TIP3    H147545   1.022   4.691  14.467  0.4341  1.2605  0.8119
 8710TIP3    H247546   1.131   4.627  14.548  0.3534 -2.1366 -1.5653
 8711TIP3   OH247547   4.119   2.061   0.811 -0.2729 -0.0483  0.1161
 8711TIP3    H147548   4.142   2.117   0.886  0.2597 -0.0231 -0.0685
 8711TIP3    H247549   4.046   2.008   0.844 -0.9076  0.8668  0.2397
 8712TIP3   OH247550   3.334   0.211  12.626 -0.2953 -0.1551  0.2234
 8712TIP3    H147551   3.240   0.199  12.638 -0.3030  1.6066  2.4937
 8712TIP3    H247552   3.374   0.142  12.680 -0.2992 -0.0528  0.3584
 8713TIP3   OH247553   3.390   0.723   4.784  0.7258 -0.2866 -0.3410
 8713TIP3    H147554   3.305   0.711   4.741 -0.2205 -0.1906  1.4156
 8713TIP3    H247555   3.437   0.785   4.727 -1.7056  2.3955  0.3155
 8714TIP3   OH247556   0.341   6.219   0.432 -0.1488 -0.5504  0.2865
 8714TIP3    H147557   0.310   6.171   0.355 -0.7878 -0.2930  0.3737
 8714TIP3    H247558   0.280   6.293   0.439  1.1922  0.6618 -0.2470
 8715TIP3   OH247559   1.569   1.226   3.772  0.2334 -0.5537 -0.0875
 8715TIP3    H147560   1.549   1.238   3.679  0.9834 -0.9978 -0.3169
 8715TIP3    H247561   1.554   1.133   3.788  0.6404 -0.5902  0.0967
 8716TIP3   OH247562   3.580   5.297   3.554  1.0306  0.5759 -0.4630
 8716TIP3    H147563   3.585   5.311   3.460  1.8392  0.8100 -0.3876
 8716TIP3    H247564   3.613   5.378   3.593  2.3277 -0.1485  0.0041
 8717TIP3   OH247565   3.805   5.457   5.182 -0.2706 -0.4860  0.3802
 8717TIP3    H147566   3.750   5.421   5.252 -1.2880  2.6157  1.3129
 8717TIP3    H247567   3.752   5.525   5.142  1.0303 -0.8753 -2.2149
 8718TIP3   OH247568   5.321   6.654  15.020  0.1076 -0.2220  0.0206
 8718TIP3    H147569   5.261   6.646  14.946 -0.1677 -0.7305  0.2957
 8718TIP3    H247570   5.266   6.689  15.091  0.2791 -0.1151  0.1012
 8719TIP3   OH247571   5.013   6.658   2.665 -0.0980 -0.1494  0.3336
 8719TIP3    H147572   5.100   6.650   2.704  1.1303 -0.1280 -2.1534
 8719TIP3    H247573   5.013   6.594   2.594 -2.9483 -1.6386  1.5191
 8720TIP3   OH247574   1.388   3.554   5.337  0.2548 -0.1720  0.1492
 8720TIP3    H147575   1.341   3.630   5.370  1.7167  0.7321  0.2154
 8720TIP3    H247576   1.454   3.590   5.278  0.7461 -1.4195 -0.0931
 8721TIP3   OH247577   1.282   4.243  12.420 -0.0426 -0.3831  1.0039
 8721TIP3    H147578   1.188   4.256  12.427  0.0785  0.7994  0.7341
 8721TIP3    H247579   1.304   4.181  12.490 -1.2225 -1.8593  0.0931
 8722TIP3   OH247580   6.086   4.426   4.411  0.3720  0.3358  0.0931
 8722TIP3    H147581   6.036   4.349   4.438  0.3614 -0.1961 -1.3767
 8722TIP3    H247582   6.050   4.450   4.326  1.7364  0.7310 -0.4002
 8723TIP3   OH247583   3.502   0.665   0.798  0.1536 -0.4214  0.5018
 8723TIP3    H147584   3.549   0.745   0.822  0.4271 -0.4482  0.0783
 8723TIP3    H247585   3.533   0.600   0.861  0.3827 -0.3364  0.4808
 8724TIP3   OH247586   4.771   3.737  15.033  0.4682 -0.6718  0.2812
 8724TIP3    H147587   4.814   3.687  15.102  0.3884 -0.0422  0.7943
 8724TIP3    H247588   4.836   3.744  14.963  0.8438 -0.5916  0.6376
 8725TIP3   OH247589   1.914   0.308  14.576 -0.2285 -0.0821 -0.0241
 8725TIP3    H147590   1.988   0.251  14.556 -0.8753 -1.6171  1.6352
 8725TIP3    H247591   1.948   0.373  14.636  0.6885  1.8552 -2.4791
 8726TIP3   OH247592   0.906   2.045  12.527 -0.2128 -0.2814  0.0345
 8726TIP3    H147593   0.832   2.004  12.571  0.4738 -1.6636 -0.0557
 8726TIP3    H247594   0.979   2.037  12.589  0.5120 -1.3461 -0.9085
 8727TIP3   OH247595   4.185   4.409   0.869  0.6391 -0.1270 -0.4753
 8727TIP3    H147596   4.111   4.439   0.817  0.7404  1.0700  0.0449
 8727TIP3    H247597   4.155   4.415   0.960  0.3661 -2.4520 -0.3466
 8728TIP3   OH247598   3.181   3.841   0.331 -0.2759 -0.4763 -0.1247
 8728TIP3    H147599   3.270   3.848   0.364 -0.7604 -1.7625  1.5667
 8728TIP3    H247600   3.177   3.905   0.259  1.3820  1.0913  1.0924
 8729TIP3   OH247601   2.388   2.328  15.413  0.1650 -0.2694 -0.2117
 8729TIP3    H147602   2.431   2.413  15.409 -0.5036  0.0888 -0.0211
 8729TIP3    H247603   2.434   2.274  15.349  0.2532  0.3976 -0.7197
 8730TIP3   OH247604   4.733   0.671   5.219  0.9673  0.6181 -0.6660
 8730TIP3    H147605   4.715   0.635   5.133 -2.0803 -1.8280  0.8109
 8730TIP3    H247606   4.826   0.654   5.233  0.9109 -1.5189 -2.3887
 8731TIP3   OH247607   3.031   4.877  12.124 -0.0390  0.9965  0.0415
 8731TIP3    H147608   3.026   4.837  12.211 -0.2191 -0.8817 -0.7894
 8731TIP3    H247609   3.125   4.885  12.106  0.0136  2.2986  0.7731
 8732TIP3   OH247610   5.890   5.106   5.923  0.0227 -0.7480 -0.4624
 8732TIP3    H147611   5.906   5.198   5.945 -0.7980 -0.8103  0.4950
 8732TIP3    H247612   5.950   5.057   5.979  1.2452 -0.7824 -1.7617
 8733TIP3   OH247613   0.970   6.137   2.117  0.1142 -0.0129 -0.0224
 8733TIP3    H147614   0.901   6.071   2.108 -0.0532  0.2310 -0.5680
 8733TIP3    H247615   0.952   6.200   2.046  0.8744  0.0648 -0.1496
 8734TIP3   OH247616   5.603   3.258  10.479 -0.1932  0.3665 -0.4410
 8734TIP3    H147617   5.572   3.318  10.411 -1.5756  0.2552  0.0504
 8734TIP3    H247618   5.625   3.315  10.553 -2.3483  0.2727  0.3417
 8735TIP3   OH247619   1.005   0.449   5.169  0.4942  0.3421  0.3047
 8735TIP3    H147620   0.995   0.509   5.243  2.2915  0.3554  0.5989
 8735TIP3    H247621   0.933   0.387   5.177 -0.4071  1.4364  0.9868
 8736TIP3   OH247622   3.408   3.991  15.601 -0.0285  0.4905  0.2383
 8736TIP3    H147623   3.374   3.968  15.514  0.4812  0.0817  0.1334
 8736TIP3    H247624   3.352   4.062  15.632 -0.8564 -0.0482  0.0062
 8737TIP3   OH247625   1.527   0.034   6.149  0.1344 -0.2957 -0.0253
 8737TIP3    H147626   1.576   0.029   6.231  1.0519 -1.8040 -0.6212
 8737TIP3    H247627   1.444  -0.011   6.167  1.1356 -2.4205 -0.4135
 8738TIP3   OH247628   1.691   5.373   0.966 -0.2936  0.4132 -0.3175
 8738TIP3    H147629   1.601   5.405   0.961 -0.8863 -0.8536  1.3393
 8738TIP3    H247630   1.699   5.312   0.892 -0.8848  0.3530 -0.3346
 8739TIP3   OH247631   5.761   4.667  13.179 -0.0252 -0.1675 -0.3170
 8739TIP3    H147632   5.794   4.717  13.253 -0.5738 -1.0573  0.5430
 8739TIP3    H247633   5.672   4.700  13.165 -0.2054 -0.5535 -0.0757
 8740TIP3   OH247634   4.308   1.586   2.949 -0.0746 -0.3640  0.4389
 8740TIP3    H147635   4.373   1.534   2.901  0.7454 -0.2428  1.3865
 8740TIP3    H247636   4.291   1.535   3.028 -0.1956  0.2145  0.7885
 8741TIP3   OH247637   1.965   5.648  15.271 -0.2081  0.2923  0.2043
 8741TIP3    H147638   2.008   5.573  15.231  2.4870  1.5020  0.6162
 8741TIP3    H247639   1.947   5.708  15.198 -2.8286 -0.8350 -0.2020
 8742TIP3   OH247640   1.216   5.344  12.079 -0.8664 -0.2518 -0.3186
 8742TIP3    H147641   1.268   5.293  12.140 -3.2223 -0.3588  1.7307
 8742TIP3    H247642   1.266   5.342  11.997  0.5291 -3.3806  0.4859
 8743TIP3   OH247643   2.276   2.748   1.880 -0.2247 -0.2128  0.0667
 8743TIP3    H147644   2.197   2.752   1.934 -0.4221  2.0647 -0.3259
 8743TIP3    H247645   2.243   2.731   1.791 -0.0379 -1.8996  0.2822
 8744TIP3   OH247646   0.814   0.492  14.997 -0.4464  0.6086  0.2641
 8744TIP3    H147647   0.796   0.581  14.966 -2.5999  0.4121  0.7784
 8744TIP3    H247648   0.830   0.501  15.091  0.1048  0.5268  0.1827
 8745TIP3   OH247649   0.733   1.373   3.302 -0.5760  0.0592 -0.1560
 8745TIP3    H147650   0.747   1.429   3.378  0.1361 -0.8270  0.3771
 8745TIP3    H247651   0.642   1.390   3.277 -0.8961  0.2010  1.0342
 8746TIP3   OH247652   4.570   1.956   3.772  0.3544 -0.2369  0.5352
 8746TIP3    H147653   4.489   1.906   3.776  1.5126 -2.2016  1.0331
 8746TIP3    H247654   4.636   1.893   3.743  1.9705  0.8979  1.5119
 8747TIP3   OH247655   0.928   4.727  15.501 -0.1560 -0.2043  0.2684
 8747TIP3    H147656   0.848   4.712  15.552 -1.8446  0.7504 -1.9615
 8747TIP3    H247657   0.912   4.809  15.455  1.9432 -0.2367 -0.6146
 8748TIP3   OH247658   3.309   3.619  16.493 -0.6683  0.6810 -0.0990
 8748TIP3    H147659   3.395   3.636  16.531 -0.9678  0.7516  0.5625
 8748TIP3    H247660   3.328   3.574  16.410 -0.0025  0.6555  0.0596
 8749TIP3   OH247661   4.183   0.336  16.359  0.0225  0.8810  0.0281
 8749TIP3    H147662   4.181   0.431  16.373 -1.1333  0.6912  1.3647
 8749TIP3    H247663   4.152   0.324  16.269 -1.8521  1.6843  0.5337
 8750TIP3   OH247664   2.430   5.679   4.262  0.0541  0.0749  0.3503
 8750TIP3    H147665   2.406   5.706   4.350  0.8094 -1.6327  1.1324
 8750TIP3    H247666   2.367   5.611   4.239 -0.5974  1.0222 -0.7508
 8751TIP3   OH247667   3.720   4.183   6.232 -0.4500  0.7767 -0.1861
 8751TIP3    H147668   3.781   4.145   6.295 -0.1508  0.5080 -0.6367
 8751TIP3    H247669   3.655   4.114   6.218 -2.0607  1.7586  1.8454
 8752TIP3   OH247670   2.739   4.701  16.452  0.2040  0.3243  0.1987
 8752TIP3    H147671   2.805   4.654  16.503 -0.7302 -2.2633 -0.8212
 8752TIP3    H247672   2.666   4.714  16.512  0.0071 -0.6207  0.1676
 8753TIP3   OH247673   1.384   4.410  15.697  0.3818  0.2390 -0.0818
 8753TIP3    H147674   1.317   4.434  15.762 -1.2668 -0.2514 -1.5261
 8753TIP3    H247675   1.338   4.357  15.633  2.6908 -2.0941  0.0188
 8754TIP3   OH247676   5.045   0.778   3.689  0.1412  0.5857 -0.1091
 8754TIP3    H147677   5.139   0.759   3.686  0.0487  0.2282 -1.8715
 8754TIP3    H247678   5.003   0.696   3.662 -0.5391  1.3919 -1.6561
 8755TIP3   OH247679   1.827   5.725   1.855 -0.2571  0.3339  0.3304
 8755TIP3    H147680   1.743   5.745   1.813 -0.1395  2.5905  1.0084
 8755TIP3    H247681   1.812   5.642   1.901 -1.8793  0.3149 -0.1668
 8756TIP3   OH247682   5.870   1.620  11.137 -0.2535  0.3854  0.5591
 8756TIP3    H147683   5.928   1.544  11.145  0.1683  0.7278  0.8263
 8756TIP3    H247684   5.879   1.647  11.045  0.9188  1.1310  0.8683
 8757TIP3   OH247685   3.391   1.844  11.843 -0.1627  0.1236 -0.3406
 8757TIP3    H147686   3.343   1.777  11.794  0.4734  0.2480 -1.1602
 8757TIP3    H247687   3.466   1.797  11.880  1.1682  0.6270 -2.2158
 8758TIP3   OH247688   6.541   0.775  15.798 -0.8476 -0.3611 -0.0741
 8758TIP3    H147689   6.579   0.775  15.710 -0.4047 -0.1697  0.1175
 8758TIP3    H247690   6.451   0.745  15.785 -0.9642  0.2248 -0.6702
 8759TIP3   OH247691   5.873   6.450   5.365  0.4055 -0.1215  0.3735
 8759TIP3    H147692   5.853   6.537   5.400 -0.2520  0.4369 -1.3082
 8759TIP3    H247693   5.788   6.416   5.337  0.6245 -1.4256  1.2269
 8760TIP3   OH247694   1.936   5.954  13.874 -0.4102 -0.7592  0.2772
 8760TIP3    H147695   1.977   5.867  13.875 -2.1638 -1.6411  1.7374
 8760TIP3    H247696   1.999   6.011  13.918  1.3408 -0.9405 -1.8228
 8761TIP3   OH247697   5.681   6.738   4.959  0.2925 -0.5576  0.0299
 8761TIP3    H147698   5.605   6.718   5.014  0.0277 -0.5292 -0.3241
 8761TIP3    H247699   5.754   6.697   5.004  0.1631 -0.0961  0.6833
 8762TIP3   OH247700   2.866   6.725   6.136 -0.0282 -0.2545  0.8983
 8762TIP3    H147701   2.891   6.817   6.141 -1.6433  0.2206  0.9406
 8762TIP3    H247702   2.930   6.685   6.078 -0.2354  1.2513 -0.4301
 8763TIP3   OH247703   3.778   2.735   4.790 -0.1102 -0.0413 -0.4516
 8763TIP3    H147704   3.784   2.753   4.696 -0.5149  1.6711 -0.1911
 8763TIP3    H247705   3.746   2.817   4.827 -0.2390 -0.7926  1.1535
 8764TIP3   OH247706   6.662   1.046   0.749  0.4381 -0.3794  0.4074
 8764TIP3    H147707   6.578   1.004   0.730  0.5522 -1.0902  1.4072
 8764TIP3    H247708   6.718   1.022   0.675  0.0509 -0.7096  0.2177
 8765TIP3   OH247709   4.993   4.481   4.817  0.3929  0.1312 -0.2004
 8765TIP3    H147710   5.031   4.534   4.887  1.1820  2.2513 -2.1093
 8765TIP3    H247711   5.050   4.495   4.742 -1.5960 -0.3260 -1.8960
 8766TIP3   OH247712   5.492   5.144   4.187 -0.5665  0.1901 -0.1653
 8766TIP3    H147713   5.540   5.174   4.110  0.9591 -2.5310 -0.4102
 8766TIP3    H247714   5.445   5.066   4.157 -0.3418 -0.6419  1.5089
 8767TIP3   OH247715   1.978   5.012   4.011  0.4672  0.9315 -0.6392
 8767TIP3    H147716   2.071   4.995   4.027  0.5765  1.6634 -0.4738
 8767TIP3    H247717   1.964   5.100   4.044 -0.6013  0.3420  0.5850
 8768TIP3   OH247718   1.120   4.610   3.737 -0.4328 -0.3244 -0.0662
 8768TIP3    H147719   1.203   4.562   3.744  0.0130  0.6618  1.9578
 8768TIP3    H247720   1.092   4.596   3.646  1.2871 -1.7399 -0.4264
 8769TIP3   OH247721   0.836   5.720  16.889 -0.6155 -0.0815  0.3728
 8769TIP3    H147722   0.804   5.661  16.820 -1.0524  0.1203  0.4043
 8769TIP3    H247723   0.835   5.807  16.849 -0.4740 -0.0215  0.4975
 8770TIP3   OH247724   3.703   0.159  15.313 -0.1064 -0.0292 -0.3747
 8770TIP3    H147725   3.747   0.237  15.282  0.1927 -0.1639 -0.2883
 8770TIP3    H247726   3.737   0.144  15.401  1.6384 -1.6039 -1.2528
 8771TIP3   OH247727   1.562   3.316  11.228  0.0206 -0.1973 -0.2939
 8771TIP3    H147728   1.650   3.353  11.226 -0.2084  0.3918 -2.5517
 8771TIP3    H247729   1.522   3.354  11.307  1.6540 -0.2053  0.5692
 8772TIP3   OH247730   0.193   4.951   2.224  0.7391 -0.0062  0.3528
 8772TIP3    H147731   0.098   4.949   2.213  0.4621  1.6898  1.9635
 8772TIP3    H247732   0.226   4.989   2.143 -0.0721  0.5840  0.2952
 8773TIP3   OH247733   2.368   0.392  10.627 -0.0123  0.4110 -0.6317
 8773TIP3    H147734   2.438   0.437  10.674 -0.8340 -0.5495  1.6763
 8773TIP3    H247735   2.410   0.315  10.589  0.3444  0.1913  0.1829
 8774TIP3   OH247736   1.699   4.063   4.904  0.0334 -0.0960 -0.2657
 8774TIP3    H147737   1.639   4.123   4.948  0.4344 -0.4511  0.7886
 8774TIP3    H247738   1.778   4.116   4.889  0.8195 -0.6327  1.6997
 8775TIP3   OH247739   4.711   1.613  12.951  0.1948 -0.3293  0.9516
 8775TIP3    H147740   4.784   1.569  12.908  2.2955  0.2971  3.5959
 8775TIP3    H247741   4.751   1.687  12.996 -2.6116  2.0060 -0.0612
 8776TIP3   OH247742   5.321   3.641   3.655 -0.2452 -0.1876 -0.3676
 8776TIP3    H147743   5.273   3.650   3.738  1.7298  0.4003  0.7897
 8776TIP3    H247744   5.253   3.630   3.589 -1.9946  1.0561  1.1034
 8777TIP3   OH247745   3.984   0.409  13.030 -0.3910 -0.0683  0.2590
 8777TIP3    H147746   3.985   0.322  13.072  0.2349 -1.0357 -1.6527
 8777TIP3    H247747   3.899   0.445  13.053 -0.4475 -0.9431  1.5583
 8778TIP3   OH247748   4.566   4.257   2.576  0.1220  0.6426 -0.0631
 8778TIP3    H147749   4.548   4.253   2.670  1.2952 -0.9612  0.1358
 8778TIP3    H247750   4.516   4.184   2.539  1.4751 -0.1689 -0.3329
 8779TIP3   OH247751   6.237   2.663   3.532 -0.5059  0.4279  0.3170
 8779TIP3    H147752   6.241   2.695   3.441 -1.2511 -0.7649 -0.1621
 8779TIP3    H247753   6.173   2.720   3.575  0.4833  1.5475  0.3422
 8780TIP3   OH247754   0.583   1.707  15.631  0.0561  0.2251  0.2252
 8780TIP3    H147755   0.511   1.763  15.601  0.0040  0.6312  1.0755
 8780TIP3    H247756   0.604   1.739  15.719  3.4038  2.2309 -1.1150
 8781TIP3   OH247757   6.284   2.828   5.630  0.0001  0.0398 -0.1241
 8781TIP3    H147758   6.304   2.738   5.606  1.4525 -0.0524  1.2441
 8781TIP3    H247759   6.243   2.820   5.717  1.7344  0.7439  0.8150
 8782TIP3   OH247760   4.473   0.359   4.627 -0.1084 -0.2369  0.1519
 8782TIP3    H147761   4.400   0.412   4.658  0.4566  0.5184  0.2316
 8782TIP3    H247762   4.443   0.269   4.634 -0.2665 -0.0699  2.2390
 8783TIP3   OH247763   0.630   0.575   1.600 -0.6054  0.5406  0.6742
 8783TIP3    H147764   0.680   0.649   1.634  0.3428  0.3006 -0.1547
 8783TIP3    H247765   0.539   0.599   1.617 -0.2271  0.7603  2.6683
 8784TIP3   OH247766   3.329   3.549  11.511  0.3038  0.5204  0.0979
 8784TIP3    H147767   3.373   3.593  11.584  1.7315  1.6921 -1.3619
 8784TIP3    H247768   3.399   3.536  11.446 -0.8641 -0.6456 -0.9868
 8785TIP3   OH247769   3.320   0.467  15.209  0.5863 -0.1504 -0.0588
 8785TIP3    H147770   3.382   0.409  15.253  0.1333 -0.8497 -0.3431
 8785TIP3    H247771   3.372   0.510  15.140  0.7777 -0.6482 -0.2249
 8786TIP3   OH247772   2.881   2.821   4.722 -0.2735  0.1850  0.2446
 8786TIP3    H147773   2.798   2.777   4.738 -0.1774 -0.1523 -0.1763
 8786TIP3    H247774   2.899   2.806   4.629 -0.7654  1.9852 -0.1998
 8787TIP3   OH247775   5.072   2.217   3.426 -0.0411  0.0327  0.0218
 8787TIP3    H147776   5.165   2.199   3.437  0.2322  0.2096 -1.6625
 8787TIP3    H247777   5.069   2.287   3.361 -1.3496  0.1582  0.1866
 8788TIP3   OH247778   5.410   1.283   0.795 -0.2137  0.0000 -0.2933
 8788TIP3    H147779   5.503   1.280   0.775  0.0188 -0.9113  0.7524
 8788TIP3    H247780   5.401   1.353   0.859 -0.1529 -0.2211 -0.0375
 8789TIP3   OH247781   0.634   0.508   3.333 -0.5333  0.3722 -0.3061
 8789TIP3    H147782   0.635   0.511   3.237  1.5243  0.5010 -0.3359
 8789TIP3    H247783   0.650   0.599   3.360  1.1993 -0.0001  0.0660
 8790TIP3   OH247784   3.999   4.269   3.008 -0.0203  0.1173  0.1890
 8790TIP3    H147785   4.039   4.308   3.085 -0.4612  0.3251  0.3157
 8790TIP3    H247786   4.041   4.183   3.000  1.3652  0.8185 -0.4176
 8791TIP3   OH247787   1.949   5.873  10.702 -0.4251 -0.1493  0.3022
 8791TIP3    H147788   2.009   5.867  10.776  0.5923 -0.6459 -0.5423
 8791TIP3    H247789   2.002   5.906  10.630 -1.2628 -0.2171 -0.3641
 8792TIP3   OH247790   1.496   5.613   2.097  0.1390 -0.0423 -0.3887
 8792TIP3    H147791   1.442   5.687   2.125 -1.2453 -0.9848 -0.4588
 8792TIP3    H247792   1.560   5.602   2.167  0.1962  1.0317 -0.2484
 8793TIP3   OH247793   4.133   1.452   1.437  0.2414 -0.6532 -1.1479
 8793TIP3    H147794   4.135   1.488   1.348  1.0026 -1.0744 -1.3063
 8793TIP3    H247795   4.078   1.513   1.486  2.2132  1.2662 -1.1628
 8794TIP3   OH247796   1.329   0.039   1.466 -0.5224 -0.0263  0.1302
 8794TIP3    H147797   1.397   0.021   1.532 -2.0061 -1.1036  1.4304
 8794TIP3    H247798   1.349  -0.020   1.394 -1.8219 -2.6954  1.8250
 8795TIP3   OH247799   4.930   2.019  16.958 -0.2224  0.3353  0.4783
 8795TIP3    H147800   4.994   2.077  16.999 -0.1881 -0.6168  1.8386
 8795TIP3    H247801   4.845   2.054  16.984 -0.2255  0.5120  0.2329
 8796TIP3   OH247802   5.714   2.541  11.818 -0.1243  0.5200 -1.5722
 8796TIP3    H147803   5.746   2.529  11.908 -1.0854 -0.5596 -1.3528
 8796TIP3    H247804   5.645   2.607  11.826  0.5508  1.2719 -1.7209
 8797TIP3   OH247805   2.382   0.831   5.181 -0.5899  0.0069 -0.3377
 8797TIP3    H147806   2.404   0.746   5.144 -1.7400 -0.6290  0.3840
 8797TIP3    H247807   2.341   0.879   5.109 -0.0755 -0.0997 -0.7046
 8798TIP3   OH247808   5.714   4.513   3.369  0.4602  0.4109  0.2731
 8798TIP3    H147809   5.734   4.421   3.350 -0.1595  0.9552 -3.8918
 8798TIP3    H247810   5.625   4.511   3.404  0.2313 -0.5698 -0.3053
 8799TIP3   OH247811   2.683   6.266   4.165 -0.5028 -0.5794 -0.1652
 8799TIP3    H147812   2.718   6.332   4.105 -1.2935 -1.1484 -1.2869
 8799TIP3    H247813   2.594   6.295   4.183 -0.5765 -0.8988 -0.0138
 8800TIP3   OH247814   4.923   6.565  12.853  0.4226  0.1795  0.4722
 8800TIP3    H147815   4.908   6.642  12.799  0.6720 -0.1761 -0.1113
 8800TIP3    H247816   4.977   6.507  12.799  2.1489  0.5457  1.7323
 8801TIP3   OH247817   3.163   0.355   0.193 -0.0272 -0.8533 -0.1094
 8801TIP3    H147818   3.125   0.283   0.142 -0.2012 -1.8225  1.3307
 8801TIP3    H247819   3.254   0.360   0.163 -0.3396 -0.8254 -1.1061
 8802TIP3   OH247820   1.306   5.040  11.387  0.8197  0.3892  0.2393
 8802TIP3    H147821   1.263   5.004  11.464  2.1616  0.6439  1.1487
 8802TIP3    H247822   1.375   4.978  11.366  0.9392  0.6968 -0.3103
 8803TIP3   OH247823   4.959   6.239   5.058  0.0681 -0.3933  0.1576
 8803TIP3    H147824   5.043   6.215   5.099  1.1108  1.6014 -0.6948
 8803TIP3    H247825   4.964   6.202   4.970  0.1089 -0.1380  0.0540
 8804TIP3   OH247826   6.486   1.402   4.319 -0.1316  0.1121 -0.2588
 8804TIP3    H147827   6.471   1.344   4.395  0.1432 -0.0318 -0.3135
 8804TIP3    H247828   6.434   1.363   4.249 -1.0611  0.7126  0.0712
 8805TIP3   OH247829   5.743   3.667  15.579 -0.5494  0.4793 -0.1480
 8805TIP3    H147830   5.824   3.641  15.624 -0.1283  0.6527 -0.7928
 8805TIP3    H247831   5.675   3.660  15.646  0.1549  1.2881  0.6746
 8806TIP3   OH247832   5.197   4.443  11.581  0.0946  0.6187 -0.2341
 8806TIP3    H147833   5.146   4.403  11.652 -0.4102 -1.7568 -1.8407
 8806TIP3    H247834   5.148   4.523  11.560 -1.7581 -0.4494 -0.2375
 8807TIP3   OH247835   6.392   5.985   5.886 -0.0655 -0.3885 -0.2373
 8807TIP3    H147836   6.389   6.047   5.959  0.0662  0.3348 -0.8234
 8807TIP3    H247837   6.450   5.915   5.916 -0.7666 -0.5755  0.7004
 8808TIP3   OH247838   4.300   0.574   5.031 -0.0897  0.1268 -0.1803
 8808TIP3    H147839   4.343   0.488   5.038  0.0568  0.2908  1.3653
 8808TIP3    H247840   4.216   0.555   4.989  0.3884 -0.5923 -0.8628
 8809TIP3   OH247841   3.170   6.749  17.008 -0.1066 -0.7969  0.0276
 8809TIP3    H147842   3.229   6.674  16.992 -1.1315 -1.2182 -2.0951
 8809TIP3    H247843   3.168   6.796  16.925 -1.2024  0.3526  0.6762
 8810TIP3   OH247844   4.056   0.936  13.294  0.0673 -0.0174 -0.5362
 8810TIP3    H147845   4.067   0.899  13.206 -1.2782 -0.4511 -0.5485
 8810TIP3    H247846   4.106   0.877  13.351  2.0301  1.0068 -1.1388
 8811TIP3   OH247847   5.841   3.174   4.006 -0.1624  0.6622 -0.2619
 8811TIP3    H147848   5.897   3.233   4.057 -1.2067  2.6240 -1.2911
 8811TIP3    H247849   5.901   3.133   3.944  0.4283  1.3855 -0.1814
 8812TIP3   OH247850   6.533   3.786   0.466  0.1671 -0.4924 -0.3953
 8812TIP3    H147851   6.590   3.861   0.447  2.6511 -2.2662 -0.4469
 8812TIP3    H247852   6.530   3.782   0.561  0.4775 -0.6393 -0.3911
 8813TIP3   OH247853   0.089   5.089  11.825  0.0387 -0.0263  0.2028
 8813TIP3    H147854   0.176   5.048  11.833  0.8147  0.8411 -2.6806
 8813TIP3    H247855   0.092   5.162  11.887  0.8705 -0.7695  1.0818
 8814TIP3   OH247856   6.650   4.392  16.261  0.4384  0.1629 -0.1241
 8814TIP3    H147857   6.636   4.413  16.353 -1.7130  1.8454 -0.7622
 8814TIP3    H247858   6.674   4.476  16.220  2.1946 -0.7038 -1.0021
 8815TIP3   OH247859   4.515   5.193  16.408 -0.7217 -0.3407  0.2685
 8815TIP3    H147860   4.442   5.166  16.352 -0.7043  1.2106 -0.5606
 8815TIP3    H247861   4.473   5.217  16.491 -0.8000 -2.1627  0.8079
 8816TIP3   OH247862   6.369   6.026   4.145 -0.0296  0.3463  0.1861
 8816TIP3    H147863   6.399   6.034   4.236  0.9582 -1.8776  0.1152
 8816TIP3    H247864   6.287   5.977   4.151 -0.3951  0.9199 -0.0711
 8817TIP3   OH247865   3.092   0.868  14.838  0.0988 -0.5840 -0.4950
 8817TIP3    H147866   3.103   0.774  14.854 -0.3680 -1.3325 -3.8725
 8817TIP3    H247867   3.179   0.899  14.814  0.4461  0.1287  1.5057
 8818TIP3   OH247868   3.706   6.779   4.293  0.0981  0.1444 -0.1460
 8818TIP3    H147869   3.665   6.778   4.379 -0.6683 -1.3461 -0.4887
 8818TIP3    H247870   3.761   6.857   4.293 -0.3896  0.5193  1.4485
 8819TIP3   OH247871   5.046   2.649  11.430  0.0745  0.3036  0.0085
 8819TIP3    H147872   5.073   2.735  11.397  0.4825  1.0826  2.1807
 8819TIP3    H247873   5.000   2.668  11.511  0.6342 -1.5518  0.8314
 8820TIP3   OH247874   2.578   2.691  16.630  0.3543  0.1618  0.4809
 8820TIP3    H147875   2.556   2.665  16.541  1.5503  3.8491 -1.0381
 8820TIP3    H247876   2.670   2.666  16.640  0.2786 -0.0646  0.6179
 8821TIP3   OH247877   4.732   5.538  12.185 -0.5110 -0.1302  0.3531
 8821TIP3    H147878   4.726   5.568  12.094 -0.7401  2.5022  1.1636
 8821TIP3    H247879   4.808   5.480  12.186 -0.3109  0.0272 -1.4365
 8822TIP3   OH247880   6.162   5.990  11.661  0.6132  0.0605 -0.3617
 8822TIP3    H147881   6.213   6.069  11.677  1.2544 -0.6119  1.1783
 8822TIP3    H247882   6.209   5.945  11.591 -0.0856  1.2798 -1.6719
 8823TIP3   OH247883   5.558   6.318  12.445 -0.6262  0.2914 -0.5221
 8823TIP3    H147884   5.653   6.317  12.454 -0.7012 -0.7197  0.3140
 8823TIP3    H247885   5.543   6.302  12.351  0.0247 -0.6627 -0.4850
 8824TIP3   OH247886   5.760   3.997   1.819  0.0451  0.5018 -0.3827
 8824TIP3    H147887   5.824   4.059   1.853 -0.8823  1.0927  0.3193
 8824TIP3    H247888   5.678   4.019   1.863 -0.7066 -0.0974 -1.4123
 8825TIP3   OH247889   3.988   2.855  14.892 -0.1044  0.2737  0.4642
 8825TIP3    H147890   4.001   2.948  14.871  1.2804 -0.1091 -0.5784
 8825TIP3    H247891   4.030   2.809  14.819 -1.5176 -1.1781  0.5300
 8826TIP3   OH247892   2.899   6.613   0.777 -0.4062 -0.1375  0.7120
 8826TIP3    H147893   2.991   6.637   0.780 -0.5301  0.5932 -0.5878
 8826TIP3    H247894   2.899   6.518   0.786  0.6008 -0.3058 -0.7065
 8827TIP3   OH247895   5.805   0.336  12.612  0.7573  0.1430  0.1305
 8827TIP3    H147896   5.868   0.374  12.673 -0.6561  0.3513  1.5279
 8827TIP3    H247897   5.747   0.408  12.589 -0.7010 -0.6555  1.1678
 8828TIP3   OH247898   5.601   2.792   5.722 -0.1149 -0.0659  0.1667
 8828TIP3    H147899   5.685   2.834   5.702 -0.5094 -0.4679 -2.7168
 8828TIP3    H247900   5.559   2.851   5.786  0.6750  2.2850 -1.3706
 8829TIP3   OH247901   5.994   0.687  12.640  0.0780  0.0172  0.1376
 8829TIP3    H147902   6.059   0.671  12.708  0.0174 -0.9367 -0.0149
 8829TIP3    H247903   6.036   0.749  12.580  0.6037 -0.1027  0.3822
 8830TIP3   OH247904   5.026   3.057   0.848 -0.0166 -0.1971  0.4299
 8830TIP3    H147905   5.010   3.148   0.822 -1.4151 -0.2551  0.9746
 8830TIP3    H247906   5.001   3.005   0.771 -0.5961 -0.1885  0.6111
 8831TIP3   OH247907   0.908   1.519  14.925 -0.0738  0.0704  0.3460
 8831TIP3    H147908   0.870   1.440  14.885  1.2001 -0.2422 -0.2809
 8831TIP3    H247909   0.835   1.558  14.973 -1.1816 -0.5454 -0.7654
 8832TIP3   OH247910   4.419   2.075  12.795 -0.2168 -0.5087  0.5038
 8832TIP3    H147911   4.437   2.062  12.702 -1.3441 -2.9018  0.5619
 8832TIP3    H247912   4.437   2.168  12.809  0.5904 -0.2084 -1.9428
 8833TIP3   OH247913   1.402   3.335   3.194 -0.1693 -0.0377 -0.4800
 8833TIP3    H147914   1.446   3.274   3.253  0.7150  0.1751 -0.8985
 8833TIP3    H247915   1.432   3.421   3.221 -1.7029  0.2647  0.3466
 8834TIP3   OH247916   6.713   6.277  11.270 -0.2501 -0.6903 -0.1943
 8834TIP3    H147917   6.657   6.244  11.340  0.2850 -0.5219  0.3163
 8834TIP3    H247918   6.721   6.204  11.209 -0.9140 -0.7612 -0.2065
 8835TIP3   OH247919   1.543   1.782  14.150 -0.2755  0.2014  0.2269
 8835TIP3    H147920   1.522   1.768  14.057 -1.1809 -1.4180  0.6282
 8835TIP3    H247921   1.585   1.868  14.153 -0.2924  0.3172 -1.6692
 8836TIP3   OH247922   1.484   5.972   2.701 -0.2425  0.0391 -0.3900
 8836TIP3    H147923   1.556   6.029   2.731 -0.6716  0.6122 -0.4336
 8836TIP3    H247924   1.524   5.914   2.637  0.4333 -0.4022  0.4100
 8837TIP3   OH247925   0.967   2.432   1.317 -0.1981 -0.3747 -0.0636
 8837TIP3    H147926   1.052   2.469   1.292  0.6576 -1.6624  0.7999
 8837TIP3    H247927   0.903   2.489   1.276  1.0922 -0.2089 -1.9886
 8838TIP3   OH247928   4.992   4.884   5.430  0.3744  0.7872 -0.2941
 8838TIP3    H147929   4.930   4.819   5.465 -1.6061  1.4232 -2.3634
 8838TIP3    H247930   4.951   4.968   5.448  2.0368  1.4391  0.7113
 8839TIP3   OH247931   5.332   5.863  16.080  0.2287  0.2051 -0.4176
 8839TIP3    H147932   5.266   5.803  16.115  0.6248  0.7380  1.3769
 8839TIP3    H247933   5.374   5.814  16.010 -1.5160 -0.4349 -1.0569
 8840TIP3   OH247934   5.151   3.423   3.041  0.0826 -0.1915  0.1869
 8840TIP3    H147935   5.152   3.424   2.946 -1.8243  0.6405  0.1315
 8840TIP3    H247936   5.186   3.337   3.065  1.7321  0.0488 -1.1971
 8841TIP3   OH247937   4.184   6.270   1.025  0.1744  0.2987 -0.0199
 8841TIP3    H147938   4.230   6.273   0.940  1.0978 -1.1504  0.3800
 8841TIP3    H247939   4.147   6.182   1.028 -1.9677  1.1583  0.0584
 8842TIP3   OH247940   0.518   0.760  14.416 -0.1483  0.5717 -0.5814
 8842TIP3    H147941   0.588   0.733  14.475 -1.1261  0.2208  0.4702
 8842TIP3    H247942   0.553   0.835  14.369  0.2380  1.7439  1.4344
 8843TIP3   OH247943   4.430   3.037  13.489 -0.4070  0.4266  0.0452
 8843TIP3    H147944   4.458   3.076  13.572  1.9721  3.4486 -1.9460
 8843TIP3    H247945   4.512   3.016  13.444 -1.2459  3.5012 -3.4317
 8844TIP3   OH247946   0.361   6.496   4.668  0.3925 -0.3761  0.7174
 8844TIP3    H147947   0.275   6.533   4.688  0.6951  0.6027  0.2821
 8844TIP3    H247948   0.423   6.564   4.696  1.0849 -1.4559  1.9079
 8845TIP3   OH247949   4.967   5.366   3.061  0.0746 -0.5238 -0.1992
 8845TIP3    H147950   5.031   5.392   2.994  0.7064 -0.8213  0.2865
 8845TIP3    H247951   4.887   5.411   3.035  0.5723  0.1417 -0.6186
 8846TIP3   OH247952   5.999   3.701  16.839  0.0277 -0.0499  0.3742
 8846TIP3    H147953   5.984   3.704  16.933  0.2819  1.1898  0.3843
 8846TIP3    H247954   5.920   3.738  16.800 -0.0450 -0.4859  0.0989
 8847TIP3   OH247955   1.972   1.238   4.376  0.0697  0.1852  0.0584
 8847TIP3    H147956   1.938   1.285   4.300 -0.6234  0.8722  0.7790
 8847TIP3    H247957   2.026   1.169   4.338  0.7069  1.2351 -1.0463
 8848TIP3   OH247958   3.295   1.753  16.402  0.1977  0.0422 -0.1552
 8848TIP3    H147959   3.377   1.717  16.437  1.1425  1.1624 -1.1348
 8848TIP3    H247960   3.314   1.846  16.387 -1.4540  0.4592  0.1585
 8849TIP3   OH247961   5.081   3.770  12.439  0.2582  0.0551  0.4476
 8849TIP3    H147962   5.065   3.848  12.491 -0.2484  1.4525 -1.6928
 8849TIP3    H247963   5.138   3.800  12.368  0.5497 -1.6579 -0.0906
 8850TIP3   OH247964   1.475   2.872   5.872  0.0630  0.0656  0.2208
 8850TIP3    H147965   1.555   2.849   5.825  0.1968 -0.9261  0.9136
 8850TIP3    H247966   1.499   2.951   5.921 -0.1123  1.1783 -1.4090
 8851TIP3   OH247967   2.533   2.045  13.376 -0.1290  0.4224 -0.0966
 8851TIP3    H147968   2.545   2.135  13.345 -0.6839  0.9445  1.1169
 8851TIP3    H247969   2.458   2.051  13.436  0.2290 -0.7299  0.4795
 8852TIP3   OH247970   4.588   2.431  13.645 -0.5641  0.1693 -0.1412
 8852TIP3    H147971   4.578   2.338  13.663 -1.5000  0.3537  0.3670
 8852TIP3    H247972   4.501   2.468  13.659 -0.8557  0.7230 -2.8807
 8853TIP3   OH247973   2.471   0.427  14.791 -0.4030  0.5098 -0.6178
 8853TIP3    H147974   2.392   0.447  14.741 -0.5774 -1.0548 -1.0188
 8853TIP3    H247975   2.445   0.436  14.882 -0.5639  1.6837 -0.7690
 8854TIP3   OH247976   6.250   0.408   0.203 -0.3770  0.5145 -0.6110
 8854TIP3    H147977   6.292   0.384   0.286 -1.1269 -0.6337 -0.5413
 8854TIP3    H247978   6.168   0.450   0.229 -1.5158 -1.5297 -0.7429
 8855TIP3   OH247979   1.772   3.845  14.359 -0.5645 -0.4201 -0.8333
 8855TIP3    H147980   1.749   3.875  14.271 -1.4377 -0.0249 -0.4833
 8855TIP3    H247981   1.775   3.925  14.412 -2.1895 -0.8553 -0.0449
 8856TIP3   OH247982   4.015   2.955   5.967 -0.2014  0.4882  0.2819
 8856TIP3    H147983   4.084   2.980   5.907  0.2635 -1.0622  0.1348
 8856TIP3    H247984   3.934   2.985   5.925 -0.0177 -1.5751 -1.7635
 8857TIP3   OH247985   3.362   5.470  11.899 -0.5721  0.1438  0.0510
 8857TIP3    H147986   3.380   5.415  11.975 -1.2353  1.3684  1.1237
 8857TIP3    H247987   3.428   5.443  11.835  1.4213  0.5711  1.8134
 8858TIP3   OH247988   2.014   1.285  13.826  0.5732  0.1455 -1.1822
 8858TIP3    H147989   2.047   1.304  13.738 -1.4614  1.7117 -1.6879
 8858TIP3    H247990   1.994   1.371  13.863 -0.5642 -0.6048  0.0297
 8859TIP3   OH247991   6.523   5.561   5.505 -0.1905  0.3837 -0.0561
 8859TIP3    H147992   6.498   5.630   5.567  0.9243  0.2504  0.5746
 8859TIP3    H247993   6.575   5.500   5.557  0.3277 -0.0094 -1.0094
 8860TIP3   OH247994   2.021   5.753   4.543  0.1287 -0.1164 -0.2963
 8860TIP3    H147995   1.939   5.719   4.507  0.5445 -0.3252 -1.0672
 8860TIP3    H247996   2.087   5.689   4.517  0.6596  0.4352 -0.3445
 8861TIP3   OH247997   5.790   0.795  12.460  0.2303  0.1998  0.4517
 8861TIP3    H147998   5.832   0.865  12.510  0.4055 -0.7824  1.7182
 8861TIP3    H247999   5.727   0.840  12.404  0.1832  1.3495  1.3933
 8862TIP3   OH248000   0.428   3.109  16.207  0.4755  0.3385  0.8400
 8862TIP3    H148001   0.391   3.064  16.283 -2.3425  0.2617 -0.4443
 8862TIP3    H248002   0.476   3.183  16.243 -2.0451  1.1977  2.6952
 8863TIP3   OH248003   0.646   1.217  12.875  0.0578  0.7373  0.4038
 8863TIP3    H148004   0.592   1.295  12.887  1.5937  1.5265  2.9323
 8863TIP3    H248005   0.668   1.189  12.963  1.6798 -1.0657 -0.4946
 8864TIP3   OH248006   0.153   1.427  10.586  0.0825 -0.3004 -0.0880
 8864TIP3    H148007   0.196   1.505  10.550 -0.0592  0.2532  0.9104
 8864TIP3    H248008   0.059   1.447  10.581  0.0142 -0.6798 -0.4122
 8865TIP3   OH248009   2.690   0.142  12.956 -0.2449  0.6661  0.4277
 8865TIP3    H148010   2.723   0.059  12.919  3.2276  2.2618 -0.5332
 8865TIP3    H248011   2.601   0.149  12.921 -0.6918 -2.5826  0.5231
 8866TIP3   OH248012   4.479   6.282  12.058  0.6887 -0.0977 -0.0611
 8866TIP3    H148013   4.561   6.281  12.008 -0.3138 -1.9193 -1.8089
 8866TIP3    H248014   4.421   6.339  12.008  0.4172 -0.0118  0.3450
 8867TIP3   OH248015   4.626   1.772   1.660 -0.4648 -0.4875 -0.1156
 8867TIP3    H148016   4.533   1.794   1.657 -0.2568  0.4669 -0.0052
 8867TIP3    H248017   4.629   1.677   1.651 -1.4925 -0.6104  0.6728
 8868TIP3   OH248018   3.800   1.183  12.552  0.6609  0.8496 -0.0635
 8868TIP3    H148019   3.778   1.276  12.551 -0.1657  0.6586 -0.1777
 8868TIP3    H248020   3.843   1.169  12.636  2.3456  1.6773 -0.7429
 8869TIP3   OH248021   2.951   6.673  15.923  0.3296  0.1169 -0.2542
 8869TIP3    H148022   3.032   6.722  15.912 -0.1081  0.8723 -0.1932
 8869TIP3    H248023   2.885   6.740  15.943 -0.0279 -0.6174  1.1762
 8870TIP3   OH248024   5.642   5.165  16.245 -0.3880 -0.8576  0.0841
 8870TIP3    H148025   5.684   5.146  16.161 -0.6803 -0.8624 -0.0621
 8870TIP3    H248026   5.574   5.229  16.224  1.4389  1.4617  0.7394
 8871TIP3   OH248027   0.234   6.118   1.914 -0.3211 -0.2151 -0.2221
 8871TIP3    H148028   0.178   6.180   1.961  0.0692  0.8828 -1.1641
 8871TIP3    H248029   0.320   6.128   1.955 -0.2259 -0.0217 -0.4656
 8872TIP3   OH248030   4.931   2.454   3.330  1.1915 -0.3809 -0.1134
 8872TIP3    H148031   4.963   2.471   3.242  1.4249  0.5751  0.1480
 8872TIP3    H248032   4.977   2.517   3.386 -1.0623  1.0112  0.2889
 8873TIP3   OH248033   2.018   4.544  13.930 -0.4000 -0.2187 -0.3908
 8873TIP3    H148034   1.929   4.509  13.927 -1.3815  2.0665  0.0375
 8873TIP3    H248035   2.015   4.612  13.997  1.7348 -0.2160 -0.2292
 8874TIP3   OH248036   5.660   5.528   3.043  0.0307 -0.0607 -0.3400
 8874TIP3    H148037   5.590   5.481   3.088  0.9429 -0.8610  0.2767
 8874TIP3    H248038   5.660   5.492   2.955  0.4822 -0.9688  0.0208
 8875TIP3   OH248039   1.109   4.545  14.709 -0.6077 -0.3524 -0.0066
 8875TIP3    H148040   1.072   4.628  14.740  1.5864  0.2837  1.0822
 8875TIP3    H248041   1.082   4.481  14.774 -1.2578 -0.2672 -0.1818
 8876TIP3   OH248042   0.535   3.529  16.438  0.6323 -0.4569  0.5274
 8876TIP3    H148043   0.550   3.599  16.501  1.9953 -0.2171 -0.0323
 8876TIP3    H248044   0.515   3.575  16.356  2.2809 -0.6828 -0.0271
 8877TIP3   OH248045   0.829   6.599  14.299  0.2889  0.1690 -0.5561
 8877TIP3    H148046   0.794   6.510  14.290 -0.9125  0.3840  1.3111
 8877TIP3    H248047   0.912   6.587  14.345  0.2831 -0.0143 -0.5935
 8878TIP3   OH248048   3.149   3.133  10.978 -0.2767 -0.0055  0.0972
 8878TIP3    H148049   3.241   3.125  10.953 -0.9348 -3.2264 -1.7507
 8878TIP3    H248050   3.125   3.223  10.954  1.6493 -0.0173 -2.1888
 8879TIP3   OH248051   3.115   6.048   0.820  0.1130 -0.8414  0.2953
 8879TIP3    H148052   3.138   5.993   0.744  2.0952 -0.0691  0.2927
 8879TIP3    H248053   3.024   6.025   0.838 -0.1349 -1.7314 -1.7403
 8880TIP3   OH248054   4.664   2.804  16.353  0.3784 -0.0540  0.2562
 8880TIP3    H148055   4.716   2.784  16.430  0.2000 -0.3853  0.2900
 8880TIP3    H248056   4.725   2.794  16.279 -0.1065 -2.3742  0.1138
 8881TIP3   OH248057   4.961   5.257  12.859 -0.4675 -0.0441 -0.1887
 8881TIP3    H148058   4.986   5.330  12.802 -1.8516  0.6760  0.0814
 8881TIP3    H248059   5.040   5.239  12.911 -0.7874  3.0770  1.6769
 8882TIP3   OH248060   1.419   0.372  14.539 -0.8513  0.2851 -0.4144
 8882TIP3    H148061   1.342   0.398  14.487 -0.7961  0.0767 -0.6041
 8882TIP3    H248062   1.385   0.359  14.627 -0.5558  2.8530  0.1576
 8883TIP3   OH248063   5.730   2.869   3.429  0.3461  1.1898  0.3551
 8883TIP3    H148064   5.668   2.942   3.442  0.8174  1.5996  0.3193
 8883TIP3    H248065   5.791   2.877   3.503 -0.8457 -0.4638  1.5970
 8884TIP3   OH248066   0.094   0.784   5.513 -0.3155 -0.3048  0.3709
 8884TIP3    H148067   0.099   0.717   5.445  1.5688  1.4592 -1.3718
 8884TIP3    H248068   0.032   0.848   5.478  0.8790  0.7518  0.1240
 8885TIP3   OH248069   1.847   2.128  16.918 -0.1411  0.1444  0.1366
 8885TIP3    H148070   1.882   2.069  16.984  0.3625  2.0795  1.7131
 8885TIP3    H248071   1.778   2.078  16.875  1.3044 -2.0815  0.2979
 8886TIP3   OH248072   1.718   1.983   0.856  0.2918  0.1560  0.2129
 8886TIP3    H148073   1.718   1.906   0.914 -0.5306 -0.8235 -1.0395
 8886TIP3    H248074   1.746   2.055   0.913 -0.6110 -0.7325  1.8825
 8887TIP3   OH248075   5.943   4.171   2.386 -0.2937  0.3985  0.6462
 8887TIP3    H148076   5.921   4.259   2.355  0.6861  0.6714  0.6738
 8887TIP3    H248077   6.034   4.159   2.360 -0.7318 -1.0494 -0.3122
 8888TIP3   OH248078   4.911   2.931  13.669  0.2916 -0.0816  0.3417
 8888TIP3    H148079   4.841   2.868  13.688  0.0427 -0.1188 -0.6161
 8888TIP3    H248080   4.864   3.012  13.646  0.5779  0.0732  0.3018
 8889TIP3   OH248081   1.463   0.107  14.096 -0.0324 -0.0811  0.1866
 8889TIP3    H148082   1.406   0.047  14.143 -1.5776 -0.7848 -2.4016
 8889TIP3    H248083   1.460   0.078  14.005 -0.7887  3.7722 -1.2370
 8890TIP3   OH248084   0.169   5.936  16.303 -0.8971  0.0937 -0.0565
 8890TIP3    H148085   0.158   5.986  16.222 -2.7654 -0.6309 -0.2960
 8890TIP3    H248086   0.158   5.845  16.276  1.6770 -0.4593  0.5029
 8891TIP3   OH248087   2.270   4.550  13.040 -0.7498 -0.6823 -0.0911
 8891TIP3    H148088   2.291   4.520  13.128  0.4854  0.7227  0.1324
 8891TIP3    H248089   2.331   4.502  12.983 -0.2592 -0.1976  0.0257
 8892TIP3   OH248090   2.889   2.570  11.630  0.1954 -0.7896  0.2474
 8892TIP3    H148091   2.852   2.553  11.544  0.0475 -2.0845  0.5348
 8892TIP3    H248092   2.886   2.665  11.640 -3.6353 -0.8125  0.5178
 8893TIP3   OH248093   0.754   2.715   2.832 -0.4181  0.0322 -0.0649
 8893TIP3    H148094   0.698   2.787   2.804 -0.6218 -0.3563 -0.6605
 8893TIP3    H248095   0.740   2.709   2.926 -1.4293 -0.1017 -0.2137
 8894TIP3   OH248096   1.469   1.391   2.255 -0.1540  0.1343 -0.1060
 8894TIP3    H148097   1.494   1.299   2.244  1.6506  0.4474  1.0459
 8894TIP3    H248098   1.552   1.439   2.254 -1.0173  1.6949 -0.0355
 8895TIP3   OH248099   0.815   3.005  16.806 -0.5364 -0.8060  0.2093
 8895TIP3    H148100   0.723   3.023  16.822 -0.3704 -0.6036  1.0119
 8895TIP3    H248101   0.855   3.008  16.893  0.5883  1.0924 -0.3304
 8896TIP3   OH248102   0.513   2.646  15.725  0.2075 -0.4126 -0.0675
 8896TIP3    H148103   0.557   2.724  15.693  1.7102 -1.3594 -0.4019
 8896TIP3    H248104   0.420   2.661  15.707  0.7286  0.0853 -2.7734
 8897TIP3   OH248105   3.919   1.880   2.716 -0.2269 -0.2069  0.2634
 8897TIP3    H148106   3.980   1.823   2.762  1.4158  0.0794 -1.4302
 8897TIP3    H248107   3.908   1.955   2.773  1.3773 -0.0725  0.4379
 8898TIP3   OH248108   2.804   0.868  13.917 -0.8155 -0.0940 -0.4664
 8898TIP3    H148109   2.715   0.901  13.903 -0.7380  0.0510 -0.6190
 8898TIP3    H248110   2.860   0.943  13.897 -0.7067  0.2084  0.8590
 8899TIP3   OH248111   3.079   2.899  16.633 -0.1165  0.3080 -0.3427
 8899TIP3    H148112   3.167   2.867  16.610 -0.9026 -2.4524  0.1757
 8899TIP3    H248113   3.069   2.978  16.580  2.0606 -0.1792 -1.6515
 8900TIP3   OH248114   2.737   4.436   2.563 -0.0188 -0.0513  0.7656
 8900TIP3    H148115   2.815   4.440   2.507 -0.3018 -1.0221  0.2806
 8900TIP3    H248116   2.758   4.493   2.637  0.4960  0.9895 -0.1555
 8901TIP3   OH248117   4.557   3.089  10.882  0.7400  0.3174  0.5554
 8901TIP3    H148118   4.598   3.168  10.918  1.7683  0.5195 -0.9819
 8901TIP3    H248119   4.622   3.052  10.823  0.0606 -1.4048  0.8265
 8902TIP3   OH248120   3.844   2.281   3.321 -0.6196  0.2748 -0.2622
 8902TIP3    H148121   3.845   2.236   3.405  1.6936  0.6516 -0.0432
 8902TIP3    H248122   3.825   2.372   3.343  2.7067  0.9543  0.2698
 8903TIP3   OH248123   6.769   4.111   4.969  0.2966 -0.1819  0.0952
 8903TIP3    H148124   6.682   4.072   4.966  0.2279 -0.0015 -0.4091
 8903TIP3    H248125   6.753   4.205   4.967  0.5294 -0.1556 -1.2065
 8904TIP3   OH248126   6.345   2.838   0.493  0.1129  0.9779  0.1948
 8904TIP3    H148127   6.286   2.850   0.568  1.6347 -2.9505  2.3382
 8904TIP3    H248128   6.287   2.820   0.419 -1.4373  0.8443  1.3960
 8905TIP3   OH248129   0.722   6.283  15.372 -0.5942 -0.5482  0.4711
 8905TIP3    H148130   0.719   6.210  15.434 -1.0847 -1.3648 -0.4902
 8905TIP3    H248131   0.798   6.264  15.316 -0.6169 -0.2195  0.3250
 8906TIP3   OH248132   4.329   0.182   1.988  0.4863 -0.4646 -0.2568
 8906TIP3    H148133   4.294   0.267   1.963  0.1740 -0.4723  0.1371
 8906TIP3    H248134   4.419   0.181   1.954  0.0425 -0.5321 -1.4554
 8907TIP3   OH248135   4.052   5.622   5.090 -0.4524  0.7366 -0.3945
 8907TIP3    H148136   4.118   5.556   5.067 -0.6874  0.0671  0.7614
 8907TIP3    H248137   3.980   5.572   5.129 -1.1293  1.5714 -0.5387
 8908TIP3   OH248138   6.082   2.184  16.315 -0.4251  0.3441 -0.3266
 8908TIP3    H148139   5.992   2.193  16.344 -0.1303  1.7183  0.2255
 8908TIP3    H248140   6.082   2.217  16.225 -0.7501 -1.1350 -0.9092
 8909TIP3   OH248141   1.470   1.700   5.816  0.1545 -0.3887 -0.4793
 8909TIP3    H148142   1.431   1.724   5.732  0.3976 -1.6342 -0.9722
 8909TIP3    H248143   1.417   1.746   5.881  0.5246  1.3439 -1.3216
 8910TIP3   OH248144   0.261   2.736  15.644 -0.4522  0.0076  0.3239
 8910TIP3    H148145   0.267   2.736  15.548 -1.0914  1.1127  0.2676
 8910TIP3    H248146   0.184   2.683  15.663 -0.9234  0.6209  0.1638
 8911TIP3   OH248147   4.410   1.193   0.501 -0.6442  0.0184  0.3871
 8911TIP3    H148148   4.435   1.237   0.419 -2.0299  0.5910  0.2532
 8911TIP3    H248149   4.319   1.216   0.514 -2.3281 -4.6430 -0.9448
 8912TIP3   OH248150   5.430   5.232  15.324  0.0932 -0.0275 -0.5373
 8912TIP3    H148151   5.431   5.188  15.239 -2.2356 -1.8711  0.2975
 8912TIP3    H248152   5.518   5.219  15.359  1.0941  0.7596 -2.5876
 8913TIP3   OH248153   4.115   5.560  16.319  0.3428  0.0510 -0.4538
 8913TIP3    H148154   4.077   5.614  16.388 -0.5912 -0.0606 -0.8592
 8913TIP3    H248155   4.115   5.616  16.242 -0.9785 -0.6041 -0.9707
 8914TIP3   OH248156   4.496   3.238   2.778 -0.2752  0.5460  0.5400
 8914TIP3    H148157   4.427   3.289   2.735 -0.7637 -1.9308 -1.9886
 8914TIP3    H248158   4.471   3.147   2.762  3.7721 -0.5244 -1.0400
 8915TIP3   OH248159   5.774   5.269  13.958  0.1000  0.1543  0.1805
 8915TIP3    H148160   5.712   5.240  14.025 -0.0593  0.3835  0.1323
 8915TIP3    H248161   5.850   5.212  13.970 -0.7020 -1.1524 -0.7415
 8916TIP3   OH248162   4.853   4.083  12.120  0.6009 -0.1023 -0.2024
 8916TIP3    H148163   4.941   4.055  12.093  0.7094  1.2545 -1.3954
 8916TIP3    H248164   4.795   4.045  12.054  0.2951 -0.8219  0.4667
 8917TIP3   OH248165   5.580   4.392   2.958 -0.3182  0.2162 -0.1050
 8917TIP3    H148166   5.605   4.304   2.987 -1.0055 -1.2212 -3.4231
 8917TIP3    H248167   5.663   4.436   2.940  0.0083 -0.1252  0.5258
 8918TIP3   OH248168   4.320   2.561  12.147 -0.2267  0.2759 -0.5740
 8918TIP3    H148169   4.249   2.505  12.177  0.7751 -0.5532  0.3158
 8918TIP3    H248170   4.331   2.626  12.217  1.4116 -1.0206  0.4430
 8919TIP3   OH248171   1.013   3.472  15.825 -0.4283  0.1811 -0.3312
 8919TIP3    H148172   1.055   3.392  15.856  0.6263  0.3617 -1.1881
 8919TIP3    H248173   0.982   3.450  15.737 -2.7672 -0.1326  0.5232
 8920TIP3   OH248174   5.000   4.032   1.596  0.0929  0.1400  0.0359
 8920TIP3    H148175   5.078   3.979   1.611  0.9910  1.3869 -0.1237
 8920TIP3    H248176   5.023   4.087   1.521 -1.4262 -0.3969 -0.8677
 8921TIP3   OH248177   6.747   6.185   0.548  0.2526 -0.4847 -0.0967
 8921TIP3    H148178   6.755   6.143   0.634  1.6275 -0.8698 -0.3899
 8921TIP3    H248179   6.793   6.127   0.488  1.5240  1.0207 -0.6585
 8922TIP3   OH248180   5.353   3.358   6.349 -0.1074 -0.4185 -0.1189
 8922TIP3    H148181   5.440   3.368   6.388 -1.2239 -0.2538  2.5666
 8922TIP3    H248182   5.365   3.380   6.257  2.6233 -0.1295  0.2288
 8923TIP3   OH248183   0.223   0.026  10.950  0.0667  0.4191 -0.2095
 8923TIP3    H148184   0.179  -0.059  10.950  0.8495 -0.0322  1.6700
 8923TIP3    H248185   0.315   0.005  10.935  0.0705  1.0986 -1.2361
 8924TIP3   OH248186   6.526   3.467   3.189 -0.0255 -0.4710 -0.3621
 8924TIP3    H148187   6.467   3.532   3.228  1.2560  0.9644 -0.6886
 8924TIP3    H248188   6.486   3.444   3.105 -1.0046 -0.8821  0.2087
 8925TIP3   OH248189   6.610   3.118   2.020 -0.2180 -0.3473 -0.3492
 8925TIP3    H148190   6.602   3.025   2.041 -0.0119 -0.2880  0.0172
 8925TIP3    H248191   6.658   3.154   2.095 -1.4528  0.2955  0.1582
 8926TIP3   OH248192   5.242   4.631   4.802  0.2504 -0.2795 -0.2800
 8926TIP3    H148193   5.194   4.685   4.864 -0.9119 -1.4754 -0.0882
 8926TIP3    H248194   5.313   4.687   4.771 -0.0145  0.8234  1.0221
 8927TIP3   OH248195   4.918   2.237  13.284 -0.0763  0.4406 -0.0382
 8927TIP3    H148196   4.839   2.208  13.329 -0.6839  1.1358 -0.6309
 8927TIP3    H248197   4.887   2.277  13.203  1.0185 -1.5545 -1.5476
 8928TIP3   OH248198   1.936   0.305  11.075  0.1000 -0.2405  0.1880
 8928TIP3    H148199   1.859   0.356  11.098 -0.8371 -1.4728 -0.1427
 8928TIP3    H248200   1.947   0.319  10.981  0.4716  0.1672  0.2868
 8929TIP3   OH248201   0.482   2.033   2.567  0.0784 -0.7548  0.2824
 8929TIP3    H148202   0.558   1.984   2.600  0.4874 -0.2946  0.0298
 8929TIP3    H248203   0.519   2.098   2.508 -0.6904 -2.0043 -1.6753
 8930TIP3   OH248204   2.535   5.031  15.802 -0.1358 -0.0660  0.3499
 8930TIP3    H148205   2.612   5.034  15.858 -1.8332 -0.5166  2.9034
 8930TIP3    H248206   2.536   5.114  15.754  0.8539  0.8269  1.8477
 8931TIP3   OH248207   0.106   5.132  12.482 -0.2030 -0.8834  0.5990
 8931TIP3    H148208   0.023   5.086  12.485 -0.1631 -0.9006  1.5788
 8931TIP3    H248209   0.117   5.169  12.569 -1.4829  3.1877 -0.7042
 8932TIP3   OH248210   1.946   3.368   4.420 -0.6229 -0.4428  0.2968
 8932TIP3    H148211   1.931   3.404   4.507  0.4939 -0.5505  0.5482
 8932TIP3    H248212   2.000   3.434   4.376 -0.0443 -1.0079  0.1521
 8933TIP3   OH248213   5.882   2.395   0.641 -0.3313 -0.1524  0.5028
 8933TIP3    H148214   5.812   2.408   0.705 -0.0236 -0.8934  1.0150
 8933TIP3    H248215   5.929   2.478   0.640 -0.7203  0.0792  0.7688
 8934TIP3   OH248216   2.295   0.202  13.438 -0.0705  0.2450 -0.1571
 8934TIP3    H148217   2.325   0.116  13.408  0.6356  0.4990 -0.1989
 8934TIP3    H248218   2.223   0.183  13.498  1.9364 -0.5714  2.1551
 8935TIP3   OH248219   0.054   2.389  13.405 -0.1746  0.3595 -0.3550
 8935TIP3    H148220   0.092   2.437  13.479 -1.3599  1.4300 -0.3945
 8935TIP3    H248221  -0.040   2.392  13.421 -0.3822 -0.2734 -1.3903
 8936TIP3   OH248222   3.169   2.694   5.767 -0.2390 -0.6948 -0.1800
 8936TIP3    H148223   3.252   2.742   5.765  0.1467 -1.3604 -1.3983
 8936TIP3    H248224   3.137   2.705   5.856  1.0997 -0.3092  0.2792
 8937TIP3   OH248225   1.177   0.136   0.613  0.3746 -0.2473 -0.0653
 8937TIP3    H148226   1.091   0.103   0.639  0.2820 -0.3294 -0.4580
 8937TIP3    H248227   1.191   0.213   0.667 -0.8274  0.9315 -1.3569
 8938TIP3   OH248228   2.792   2.936  16.681  0.0373 -0.5408  0.3784
 8938TIP3    H148229   2.871   2.890  16.653 -1.2975 -2.5499 -0.3214
 8938TIP3    H248230   2.751   2.965  16.600  0.8038  2.0056  0.7907
 8939TIP3   OH248231   3.278   5.405  13.395  0.3803  0.0280  0.3818
 8939TIP3    H148232   3.279   5.423  13.301  0.6065 -0.5450  0.2702
 8939TIP3    H248233   3.345   5.462  13.432 -0.0313  0.6004  0.2685
 8940TIP3   OH248234   4.345   5.357  15.641 -0.2884 -0.0867 -0.1607
 8940TIP3    H148235   4.371   5.265  15.648  0.4910  0.1059 -0.4296
 8940TIP3    H248236   4.402   5.392  15.572 -0.6394  0.5793 -0.1147
 8941TIP3   OH248237   2.041   0.351  10.795  0.2701  0.2909  0.1728
 8941TIP3    H148238   2.075   0.386  10.713  0.9392 -1.0327 -0.1409
 8941TIP3    H248239   1.946   0.352  10.784  0.3553  0.1140 -0.6231
 8942TIP3   OH248240   0.193   0.445   1.225  0.1759  0.5505 -0.8242
 8942TIP3    H148241   0.173   0.367   1.277  1.6901 -0.0318 -1.0734
 8942TIP3    H248242   0.260   0.491   1.275 -1.4313  2.3054 -0.1479
 8943TIP3   OH248243   0.428   2.522   1.653  0.1748  0.2549  0.1053
 8943TIP3    H148244   0.352   2.578   1.638 -0.4825 -0.8246 -0.7507
 8943TIP3    H248245   0.399   2.457   1.716  1.2720  1.4640  1.9728
 8944TIP3   OH248246   1.716   4.892  15.292 -0.0281 -0.2496 -0.2959
 8944TIP3    H148247   1.685   4.960  15.353  0.5678 -0.0009 -0.2696
 8944TIP3    H248248   1.647   4.886  15.226 -1.3557 -1.4738  1.1209
 8945TIP3   OH248249   5.326   6.296   4.221 -0.0764 -0.1095 -0.3926
 8945TIP3    H148250   5.254   6.254   4.268  0.5602 -1.5985 -0.6671
 8945TIP3    H248251   5.374   6.346   4.287  0.0166 -1.0641  0.2798
 8946TIP3   OH248252   2.737   5.937  10.968 -0.1068  0.5216  0.1025
 8946TIP3    H148253   2.725   5.977  11.054  3.4497  1.4232  0.3177
 8946TIP3    H248254   2.778   6.006  10.916  3.9240 -1.8601 -0.2686
 8947TIP3   OH248255   3.367   0.557  11.966 -0.2870  0.2404 -0.5211
 8947TIP3    H148256   3.279   0.559  11.928 -0.9090  0.3978  0.8865
 8947TIP3    H248257   3.376   0.469  12.002  0.9978 -0.5273 -2.5329
 8948TIP3   OH248258   4.102   0.274  10.810 -0.3125 -0.2525  0.5492
 8948TIP3    H148259   4.059   0.188  10.814 -0.8027  0.0351  1.9181
 8948TIP3    H248260   4.195   0.254  10.806 -0.4738 -0.8837 -2.1387
 8949TIP3   OH248261   0.779   0.468   3.967 -0.2869  0.0398 -0.7894
 8949TIP3    H148262   0.727   0.540   4.002  0.8371  0.5799 -0.1470
 8949TIP3    H248263   0.853   0.461   4.028  1.4586  0.6124 -2.7068
 8950TIP3   OH248264   2.465   5.499  16.838  0.1843 -0.1800  0.5263
 8950TIP3    H148265   2.550   5.517  16.878  0.2902  1.7757 -0.4175
 8950TIP3    H248266   2.410   5.470  16.910  1.2331  0.0653  1.4573
 8951TIP3   OH248267   0.315   6.403   2.689  0.0633 -0.2266 -0.1376
 8951TIP3    H148268   0.275   6.361   2.765 -0.4481 -1.8684 -1.2597
 8951TIP3    H248269   0.391   6.449   2.725 -0.1961 -0.8909  1.3754
 8952TIP3   OH248270   4.387   1.544   1.394 -0.2244  0.4170 -0.4025
 8952TIP3    H148271   4.407   1.633   1.367  0.2607 -0.0612 -1.7219
 8952TIP3    H248272   4.342   1.553   1.478  1.7841  1.7620  0.5949
 8953TIP3   OH248273   3.121   1.909   0.319 -0.1946 -0.4053 -0.5516
 8953TIP3    H148274   3.186   1.856   0.273 -0.1421 -0.9654  0.1557
 8953TIP3    H248275   3.053   1.926   0.253  1.2977  1.3915 -1.7247
 8954TIP3   OH248276   6.392   3.658  16.728 -0.2776  0.1135 -0.1617
 8954TIP3    H148277   6.324   3.725  16.725  0.2932  0.7442  0.7123
 8954TIP3    H248278   6.370   3.598  16.656 -2.2681 -0.2076  0.6779
 8955TIP3   OH248279   2.324   3.045   2.748 -0.4026 -0.1723  0.4278
 8955TIP3    H148280   2.371   2.962   2.738 -1.3075 -0.5869 -0.6330
 8955TIP3    H248281   2.393   3.111   2.755  0.3524 -0.8305 -0.5246
 8956TIP3   OH248282   0.040   5.804  12.104 -0.0963 -0.2908 -0.4073
 8956TIP3    H148283  -0.016   5.860  12.051 -0.4316 -0.9674 -0.7810
 8956TIP3    H248284   0.006   5.813  12.193 -0.7910 -0.6661 -0.6237
 8957TIP3   OH248285   1.740   4.409  12.388 -0.8162  0.4833  0.2025
 8957TIP3    H148286   1.719   4.412  12.481 -1.7800  0.7675 -0.0125
 8957TIP3    H248287   1.655   4.407  12.344 -0.4338  2.7093 -0.7532
 8958TIP3   OH248288   2.560   6.155   3.029 -0.1115 -0.0650  0.2370
 8958TIP3    H148289   2.474   6.113   3.020  0.0207 -0.5380  1.1099
 8958TIP3    H248290   2.582   6.181   2.940 -1.1966  0.1356  0.0023
 8959TIP3   OH248291   6.056   5.253   4.646 -0.0363 -0.2777  0.3722
 8959TIP3    H148292   6.098   5.329   4.687 -1.0204  0.0278  0.8249
 8959TIP3    H248293   6.106   5.239   4.565  0.4885  0.5142  0.5509
 8960TIP3   OH248294   3.501   3.632   5.577 -0.2621 -0.9087 -0.2156
 8960TIP3    H148295   3.557   3.570   5.531  0.1522 -0.5313 -0.2275
 8960TIP3    H248296   3.560   3.678   5.637  0.1832  1.8532 -2.5506
 8961TIP3   OH248297   4.043   3.160  12.569  0.0285  0.1839  0.0520
 8961TIP3    H148298   4.118   3.196  12.615 -1.6900  2.8471  1.0157
 8961TIP3    H248299   4.030   3.073  12.608  2.2093 -0.1267  0.2164
 8962TIP3   OH248300   4.012   3.856  16.760  0.0656  0.1749 -0.1679
 8962TIP3    H148301   4.053   3.812  16.834  0.9676  1.7339  0.3219
 8962TIP3    H248302   4.080   3.857  16.692  0.5452  1.8574  0.2794
 8963TIP3   OH248303   5.336   6.068   1.215  0.0594  0.1418  0.1577
 8963TIP3    H148304   5.370   6.038   1.131 -2.8287 -0.1562 -1.0338
 8963TIP3    H248305   5.283   5.996   1.247  0.3415  0.6231  1.7766
 8964TIP3   OH248306   1.977   2.037   5.952  0.0930 -0.1246  0.4600
 8964TIP3    H148307   1.997   1.943   5.951 -0.4985 -0.2605  1.4322
 8964TIP3    H248308   2.060   2.078   5.928  0.7736 -0.8304  1.5201
 8965TIP3   OH248309   1.328   3.598  14.179 -0.5045 -0.0311 -0.4308
 8965TIP3    H148310   1.256   3.537  14.162  0.3157 -0.9582 -0.6023
 8965TIP3    H248311   1.382   3.595  14.101  1.2336 -1.4715  0.7633
 8966TIP3   OH248312   4.723   6.452  11.845  0.6653 -0.2925 -0.2771
 8966TIP3    H148313   4.670   6.531  11.853  0.5770 -0.2933 -0.8162
 8966TIP3    H248314   4.787   6.459  11.916  0.7452  0.3335 -0.4020
 8967TIP3   OH248315   5.421   0.530  14.863 -0.0066  0.3368  0.5518
 8967TIP3    H148316   5.353   0.466  14.843 -0.8389  1.0822  0.9066
 8967TIP3    H248317   5.498   0.500  14.815 -0.7405 -0.2342 -0.2930
 8968TIP3   OH248318   0.921   2.465   4.594  0.3534  0.1663 -0.6127
 8968TIP3    H148319   0.930   2.554   4.559 -0.9293 -0.2189 -2.0000
 8968TIP3    H248320   0.827   2.453   4.606  0.5260 -0.9430 -0.2623
 8969TIP3   OH248321   3.691   1.964  13.255 -0.3214  0.3685  0.2858
 8969TIP3    H148322   3.781   1.936  13.239 -0.2431  0.0936  1.1584
 8969TIP3    H248323   3.662   1.912  13.330 -1.7262 -0.6286 -0.9027
 8970TIP3   OH248324   1.285   3.938   5.154  0.5297  0.4360 -0.2228
 8970TIP3    H148325   1.293   3.909   5.063  2.3946  0.4965 -0.1250
 8970TIP3    H248326   1.346   4.011   5.161  0.0557  0.7295  0.9649
 8971TIP3   OH248327   0.166   2.378   2.756 -0.2332  0.1723 -0.8254
 8971TIP3    H148328   0.115   2.332   2.688  1.9259 -0.7677 -1.8909
 8971TIP3    H248329   0.177   2.466   2.722 -0.3319  0.1085 -1.0283
 8972TIP3   OH248330   0.919   2.857   2.577 -0.1129 -0.1237  0.9025
 8972TIP3    H148331   0.970   2.912   2.637 -0.2490  1.7349 -0.5760
 8972TIP3    H248332   0.964   2.867   2.493 -1.5330 -0.3736  0.0903
 8973TIP3   OH248333   4.924   3.287  16.181 -0.4095  0.3578 -0.3211
 8973TIP3    H148334   4.855   3.233  16.219  0.3581  0.2006  0.8947
 8973TIP3    H248335   4.887   3.319  16.099 -2.0416  0.5057  0.4331
 8974TIP3   OH248336   0.215   2.417   3.287  0.4149  0.3389 -0.2495
 8974TIP3    H148337   0.299   2.436   3.329 -0.0496  1.1383  0.3660
 8974TIP3    H248338   0.230   2.338   3.237  1.3265  0.0276  0.4865
 8975TIP3   OH248339   4.759   1.291  14.055  0.1358 -0.4066 -0.1562
 8975TIP3    H148340   4.795   1.304  13.968  2.6646 -1.7665  0.5920
 8975TIP3    H248341   4.826   1.324  14.115 -0.6374 -1.3499  1.2932
 8976TIP3   OH248342   0.998   3.831   1.831  0.0101 -0.0621 -0.1161
 8976TIP3    H148343   0.963   3.845   1.919 -1.9932  0.4762 -0.9524
 8976TIP3    H248344   1.071   3.893   1.825  1.0412 -1.0351  1.5847
 8977TIP3   OH248345   5.226   2.657  14.307 -0.0745 -0.4649  0.7712
 8977TIP3    H148346   5.218   2.721  14.237  0.4464 -1.5571 -0.3439
 8977TIP3    H248347   5.298   2.600  14.278 -0.6785 -1.6833  1.5858
 8978TIP3   OH248348   1.420   5.298  14.771 -0.1501  0.1538 -0.5741
 8978TIP3    H148349   1.450   5.378  14.728 -2.1118  1.5583  0.5252
 8978TIP3    H248350   1.326   5.310  14.782 -0.1836 -1.4139  1.4326
 8979TIP3   OH248351   1.328   6.320  12.853  0.1133  0.4391 -0.7279
 8979TIP3    H148352   1.246   6.281  12.824  0.8938 -0.2684 -2.1106
 8979TIP3    H248353   1.375   6.248  12.896 -0.9605  1.4385  2.3289
 8980TIP3   OH248354   5.676   2.217   1.833  0.5554  0.8494  0.3653
 8980TIP3    H148355   5.692   2.246   1.744 -1.2778  0.6178 -0.0765
 8980TIP3    H248356   5.715   2.129   1.836 -0.2417  0.4473 -0.5312
 8981TIP3   OH248357   6.087   3.401  16.939  0.1925 -0.0334 -0.1409
 8981TIP3    H148358   6.062   3.418  17.029  2.1408 -1.4219  0.7397
 8981TIP3    H248359   6.033   3.327  16.912  0.9299 -0.8313  0.5541
 8982TIP3   OH248360   1.444   2.562  12.378  0.4740 -0.0575  0.2962
 8982TIP3    H148361   1.431   2.506  12.302  0.1225  0.2175  0.1519
 8982TIP3    H248362   1.494   2.508  12.439  1.9623  0.1764 -0.6693
 8983TIP3   OH248363   2.363   4.758   2.386  0.4032  0.4608 -0.3248
 8983TIP3    H148364   2.324   4.747   2.473 -1.7779 -1.5567 -1.4570
 8983TIP3    H248365   2.300   4.813   2.338  1.5771  1.5441 -0.6844
 8984TIP3   OH248366   0.884   1.465  12.930  0.6378 -0.0404 -0.6852
 8984TIP3    H148367   0.968   1.449  12.887  0.0986 -1.8222 -1.1658
 8984TIP3    H248368   0.853   1.378  12.955 -1.8692  0.3564 -2.1029
 8985TIP3   OH248369   0.486   2.603   6.150 -0.1533 -0.4903 -0.1314
 8985TIP3    H148370   0.575   2.571   6.166 -0.6094 -1.9218 -0.4011
 8985TIP3    H248371   0.432   2.525   6.143 -1.6117  0.3792  0.8724
 8986TIP3   OH248372   2.121   2.218  13.947  0.5899 -0.1447 -0.4036
 8986TIP3    H148373   2.092   2.309  13.942  0.6324 -0.0519  0.7386
 8986TIP3    H248374   2.199   2.221  14.003  0.2066 -0.9669  0.1897
 8987TIP3   OH248375   6.180   5.632   5.641 -0.1738  0.0531 -0.6395
 8987TIP3    H148376   6.231   5.598   5.715 -1.5860  2.0013  1.3628
 8987TIP3    H248377   6.219   5.718   5.624 -1.1615  0.4851 -0.7753
 8988TIP3   OH248378   5.770   1.163   0.200 -0.2566 -0.6944 -0.1310
 8988TIP3    H148379   5.718   1.162   0.119 -1.0689  1.2217  0.3175
 8988TIP3    H248380   5.777   1.255   0.223  1.2137 -1.1012  1.2242
 8989TIP3   OH248381   6.672   5.755   2.417 -0.2351  0.4379  0.0115
 8989TIP3    H148382   6.629   5.684   2.369  2.7320 -1.1868 -0.4864
 8989TIP3    H248383   6.744   5.782   2.360  0.7426  1.5278  1.6770
 8990TIP3   OH248384   6.226   5.735  13.256 -0.1569 -0.4244 -0.1848
 8990TIP3    H148385   6.314   5.715  13.225  0.2949  1.0898  0.0156
 8990TIP3    H248386   6.226   5.710  13.349  0.3307  0.2655  0.0121
 8991TIP3   OH248387   4.443   1.270  13.949  0.4150  0.4490 -0.2104
 8991TIP3    H148388   4.508   1.222  13.897  0.4257 -0.7714  0.8872
 8991TIP3    H248389   4.489   1.292  14.030 -0.5718 -0.6079  0.6630
 8992TIP3   OH248390   2.690   6.491  16.724 -0.4103  0.0369  0.2662
 8992TIP3    H148391   2.700   6.585  16.736 -0.5320  0.1982 -0.7656
 8992TIP3    H248392   2.725   6.452  16.804 -0.5938  0.9627  0.8063
 8993TIP3   OH248393   5.244   1.570   4.444 -0.2363 -0.2108 -0.1981
 8993TIP3    H148394   5.271   1.534   4.359  1.6180  2.7243 -0.9801
 8993TIP3    H248395   5.150   1.555   4.448 -0.1629 -1.5324 -2.1885
 8994TIP3   OH248396   3.922   5.539   0.162  0.2079 -0.0692 -0.0990
 8994TIP3    H148397   3.896   5.632   0.157  0.4287  0.0846  1.1800
 8994TIP3    H248398   4.013   5.538   0.134  0.8809  0.4647  1.9045
 8995TIP3   OH248399   6.189   1.549  16.619  0.6851 -0.1399  0.6165
 8995TIP3    H148400   6.258   1.579  16.560  2.1623 -1.6269  1.4923
 8995TIP3    H248401   6.190   1.612  16.691  1.3925 -0.3417  0.7930
 8996TIP3   OH248402   4.506   1.590   6.939 -0.2129 -0.3073  0.4034
 8996TIP3    H148403   4.573   1.527   6.963  0.3128 -0.0026 -0.2380
 8996TIP3    H248404   4.520   1.606   6.845  1.4879  2.8544  1.0449
 8997TIP3   OH248405   6.326   0.984  10.880 -0.5601  0.0927 -0.0433
 8997TIP3    H148406   6.418   0.987  10.906 -0.1173  2.5404 -1.4707
 8997TIP3    H248407   6.328   0.952  10.790 -0.9086  1.3129 -0.5149
 8998TIP3   OH248408   6.206   1.258   1.605 -0.1474 -0.4493 -0.1474
 8998TIP3    H148409   6.246   1.178   1.640  0.8324  0.6151  1.2647
 8998TIP3    H248410   6.273   1.296   1.548  0.2025  0.4081  0.8083
 8999TIP3   OH248411   4.044   2.881   1.210  0.2335  0.6383  0.2018
 8999TIP3    H148412   3.980   2.878   1.282  0.0950  0.1769  0.0643
 8999TIP3    H248413   4.109   2.946   1.238  0.8593 -0.4329  1.3027
 9000TIP3   OH248414   0.215   4.336  15.637  0.4241 -0.2135  0.7442
 9000TIP3    H148415   0.299   4.361  15.601  0.2593 -0.3995  0.2209
 9000TIP3    H248416   0.189   4.259  15.586 -1.5087  1.6362 -1.2566
 9001TIP3   OH248417   4.651   4.270   4.207  0.1970  0.0026 -0.6269
 9001TIP3    H148418   4.669   4.333   4.278  1.0564  0.9545 -1.6501
 9001TIP3    H248419   4.587   4.210   4.244 -0.6458  1.4732  0.4099
 9002TIP3   OH248420   0.778   4.336   1.830 -0.1728 -0.1047 -0.1596
 9002TIP3    H148421   0.867   4.335   1.865 -0.4929  1.1616  0.7652
 9002TIP3    H248422   0.779   4.406   1.764 -0.6649  0.4307  0.3942
 9003TIP3   OH248423   5.196   0.262  13.247  0.1972 -0.0856 -0.5571
 9003TIP3    H148424   5.224   0.250  13.338 -0.3741  1.1046 -0.2051
 9003TIP3    H248425   5.134   0.190  13.232 -2.5837  1.7347  1.2367
 9004TIP3   OH248426   6.639   3.769   5.018  0.3620 -0.1931  0.3235
 9004TIP3    H148427   6.728   3.795   5.043  0.5481  1.9074 -2.0977
 9004TIP3    H248428   6.644   3.756   4.923 -1.5249 -1.9950  0.3978
 9005TIP3   OH248429   4.473   2.939   1.064 -0.3267 -0.1479  0.3639
 9005TIP3    H148430   4.424   2.897   0.994 -0.5926  1.5442 -0.5293
 9005TIP3    H248431   4.564   2.932   1.037 -0.4710  1.0436 -0.5082
 9006TIP3   OH248432   2.841   2.655  12.210  0.1081  0.3647  0.0146
 9006TIP3    H148433   2.812   2.578  12.162  2.0774 -0.1277 -0.4883
 9006TIP3    H248434   2.818   2.729  12.153 -2.5494  0.2923  0.8732
 9007TIP3   OH248435   0.367   4.037   1.580  0.0678 -0.2293 -0.1332
 9007TIP3    H148436   0.426   3.996   1.643 -1.9837  1.0573  2.8731
 9007TIP3    H248437   0.399   4.127   1.572 -0.3926 -0.0398  0.1028
 9008TIP3   OH248438   2.605   6.689  12.568  0.1390 -0.2435  0.0852
 9008TIP3    H148439   2.548   6.720  12.640  0.1116 -1.1198  0.4510
 9008TIP3    H248440   2.546   6.640  12.511  0.3378 -0.3270 -0.0471
 9009TIP3   OH248441   0.870   0.127  15.420 -0.0535  0.2318 -0.0508
 9009TIP3    H148442   0.917   0.173  15.351  0.7232  0.3198  0.5233
 9009TIP3    H248443   0.778   0.148  15.404 -0.1135 -1.3729 -2.2447
 9010TIP3   OH248444   6.739   5.777   5.655  0.7371 -0.0274  0.8354
 9010TIP3    H148445   6.832   5.784   5.677  1.0165  0.6371 -0.4339
 9010TIP3    H248446   6.701   5.859   5.686  1.2819  1.2739 -1.6060
 9011TIP3   OH248447   2.912   6.686   6.422  0.3163  0.3438  0.0839
 9011TIP3    H148448   2.825   6.672   6.459  0.6088  0.5091  0.8590
 9011TIP3    H248449   2.918   6.625   6.349 -0.7270  0.8569 -0.4439
 9012TIP3   OH248450   4.609   5.605   0.540 -0.2807  0.1515 -0.0329
 9012TIP3    H148451   4.625   5.689   0.584  0.5628 -0.1437  0.2469
 9012TIP3    H248452   4.694   5.582   0.501 -0.1975 -1.1196  0.8529
 9013TIP3   OH248453   5.165   1.265   3.661  0.2869 -0.5860 -0.0816
 9013TIP3    H148454   5.081   1.294   3.697  0.3383 -0.3420 -0.1523
 9013TIP3    H248455   5.155   1.170   3.650  0.9607 -0.9914  2.3860
 9014TIP3   OH248456   2.857   2.905   3.047  0.1322 -0.3995 -0.9342
 9014TIP3    H148457   2.822   2.994   3.044 -1.6493 -0.8125  2.4483
 9014TIP3    H248458   2.783   2.849   3.025  0.2189 -1.1072  0.4740
 9015TIP3   OH248459   4.937   4.758   0.108  0.4431  0.2043 -0.7101
 9015TIP3    H148460   5.016   4.728   0.064  0.9182  1.1830 -0.5684
 9015TIP3    H248461   4.880   4.787   0.038 -0.3340 -1.6777 -0.8999
 9016TIP3   OH248462   0.194   0.059   6.475  0.5803 -0.3207 -0.2892
 9016TIP3    H148463   0.215  -0.034   6.489 -2.0420 -0.8753  0.5339
 9016TIP3    H248464   0.244   0.105   6.542  3.7527 -0.7413 -2.1043
 9017TIP3   OH248465   0.099   5.055   4.413  0.3519 -0.0889  0.0531
 9017TIP3    H148466   0.036   5.089   4.476  0.4515  1.3794 -0.6034
 9017TIP3    H248467   0.140   5.133   4.375  1.5576 -0.9781 -0.5475
 9018TIP3   OH248468   3.497   4.490  11.271  0.3524  0.0302 -0.1711
 9018TIP3    H148469   3.539   4.576  11.274  0.2382  0.0729  0.2256
 9018TIP3    H248470   3.523   4.448  11.353 -1.0348  0.3660  0.4762
 9019TIP3   OH248471   0.083   3.921   0.225  0.0114  0.2035  0.8168
 9019TIP3    H148472   0.019   3.866   0.181  0.6150 -0.7048  1.0454
 9019TIP3    H248473   0.142   3.950   0.155  0.9668 -1.2339  0.9992
 9020TIP3   OH248474   1.814   5.713   3.048  0.1224 -0.5503  0.2797
 9020TIP3    H148475   1.756   5.736   3.120  1.0780 -1.2019  1.2900
 9020TIP3    H248476   1.817   5.791   2.992 -0.9506 -0.1870  0.7223
 9021TIP3   OH248477   2.437   4.718   4.330 -0.1982  0.4013  0.4868
 9021TIP3    H148478   2.533   4.721   4.339 -0.2132 -0.5369  1.1790
 9021TIP3    H248479   2.405   4.742   4.417 -0.6145  1.4288  0.0541
 9022TIP3   OH248480   4.599   5.992  16.978  0.6541  0.0529  0.6674
 9022TIP3    H148481   4.563   6.019  16.894 -0.8569  0.7051  1.4818
 9022TIP3    H248482   4.643   6.071  17.012  0.3599  0.1013  0.9422
 9023TIP3   OH248483   2.960   4.395  12.056  0.2012 -0.1442  0.5039
 9023TIP3    H148484   3.050   4.400  12.025 -0.1151  0.0720 -0.4063
 9023TIP3    H248485   2.909   4.442  11.990 -0.7293 -1.3193  0.3548
 9024TIP3   OH248486   4.725   1.676   5.282 -0.3348 -0.1838 -0.2019
 9024TIP3    H148487   4.638   1.714   5.290 -1.1161 -1.8921 -0.1844
 9024TIP3    H248488   4.733   1.655   5.189  0.2236  0.3157 -0.2712
 9025TIP3   OH248489   4.990   4.064  12.469  0.2712  0.0265  0.0546
 9025TIP3    H148490   5.046   4.116  12.413  0.2600  0.9187  0.8508
 9025TIP3    H248491   4.996   4.106  12.555  0.8355 -1.7118  0.9072
 9026TIP3   OH248492   1.153   1.659  14.134  0.3621 -0.2802 -0.2582
 9026TIP3    H148493   1.234   1.653  14.082  0.0404 -1.1478 -0.6773
 9026TIP3    H248494   1.097   1.590  14.099 -1.7592  2.1618 -2.0342
 9027TIP3   OH248495   2.190   0.495  13.693 -0.1187  0.2713  0.3038
 9027TIP3    H148496   2.267   0.530  13.649  0.6267 -1.8707 -0.1916
 9027TIP3    H248497   2.117   0.543  13.653  0.7620  0.4996 -1.1191
 9028TIP3   OH248498   0.163   0.029   3.904 -0.3216  0.6055  0.2385
 9028TIP3    H148499   0.189   0.101   3.962  0.7401 -0.0587  0.6020
 9028TIP3    H248500   0.170   0.066   3.815  0.1281  0.9763  0.4261
 9029TIP3   OH248501   6.014   0.481  14.145 -0.4835  0.0979  0.3666
 9029TIP3    H148502   6.060   0.399  14.164  1.7517  0.9749 -0.8653
 9029TIP3    H248503   5.926   0.454  14.121  0.6734 -2.1516 -1.7752
 9030TIP3   OH248504   1.630   4.558   5.506  0.2880  0.1690 -0.5031
 9030TIP3    H148505   1.668   4.476   5.536 -0.0543  0.0077 -0.5074
 9030TIP3    H248506   1.571   4.533   5.435  1.5270  0.5990 -1.7348
 9031TIP3   OH248507   3.723   6.628   1.508  0.3370  0.1390  0.2401
 9031TIP3    H148508   3.778   6.578   1.448 -0.0774  0.0518 -0.0694
 9031TIP3    H248509   3.745   6.719   1.490  0.8197  0.0863  0.5427
 9032TIP3   OH248510   6.705   5.956  11.882  0.0323 -0.0569 -0.6384
 9032TIP3    H148511   6.747   6.027  11.931  0.7870 -0.3636 -0.8342
 9032TIP3    H248512   6.744   5.960  11.795 -1.1054  0.3055 -1.1511
 9033TIP3   OH248513   1.404   5.411   3.079  0.0218 -0.2450  0.1977
 9033TIP3    H148514   1.357   5.327   3.085  0.9331 -0.7312  0.8098
 9033TIP3    H248515   1.494   5.386   3.061  0.5880  0.5209  1.8075
 9034TIP3   OH248516   6.570   2.949  11.896 -0.0527  0.6271  0.2815
 9034TIP3    H148517   6.546   3.042  11.899 -0.8317  0.4401  0.1244
 9034TIP3    H248518   6.600   2.930  11.984  2.6964  1.6648 -0.3192
 9035TIP3   OH248519   5.453   1.570  13.735  0.6581 -0.4548  0.0228
 9035TIP3    H148520   5.525   1.507  13.727  0.9435 -0.5128  2.2736
 9035TIP3    H248521   5.495   1.656  13.735  0.6739 -0.4586  0.7081
 9036TIP3   OH248522   0.003   6.208   4.453 -0.3163 -0.8047  0.0808
 9036TIP3    H148523  -0.032   6.258   4.380 -1.2702 -0.5666  0.6808
 9036TIP3    H248524   0.092   6.242   4.466 -0.3003 -0.5543 -0.6856
 9037TIP3   OH248525   4.294   3.429  12.296  0.2202  0.3862 -0.0841
 9037TIP3    H148526   4.350   3.395  12.366 -0.6614 -0.9047  0.0508
 9037TIP3    H248527   4.321   3.380  12.218 -1.0492 -0.7010  0.1055
 9038TIP3   OH248528   4.282   3.591  14.465 -0.0726 -0.4861 -0.4397
 9038TIP3    H148529   4.226   3.518  14.439 -0.3171  0.1000 -1.6120
 9038TIP3    H248530   4.223   3.665  14.474  0.3973 -0.0198 -1.0396
 9039TIP3   OH248531   1.779   3.098  13.962  0.0447 -0.0943 -0.3354
 9039TIP3    H148532   1.744   3.185  13.942  1.2953  0.2043 -1.3927
 9039TIP3    H248533   1.773   3.091  14.057 -0.4725  0.9718 -0.2661
 9040TIP3   OH248534   6.358   1.214  13.344  0.0018 -0.2360  0.1976
 9040TIP3    H148535   6.336   1.304  13.319  2.9763  0.5066 -0.1039
 9040TIP3    H248536   6.397   1.221  13.430 -2.6227 -1.7697  1.6714
 9041TIP3   OH248537   6.732   1.554   6.581  0.3010 -0.2491 -0.1523
 9041TIP3    H148538   6.731   1.578   6.674  0.7505  0.1053 -0.2369
 9041TIP3    H248539   6.766   1.464   6.580  0.8411 -0.0512 -0.0136
 9042TIP3   OH248540   4.491   6.777  13.631  0.3696 -0.6704  0.0509
 9042TIP3    H148541   4.507   6.871  13.622 -1.8050 -0.3493 -1.1172
 9042TIP3    H248542   4.509   6.758  13.723  1.9486  0.6299  0.0412
 9043TIP3   OH248543   4.203   6.590  14.995 -0.0324 -0.5997  0.2450
 9043TIP3    H148544   4.124   6.643  14.990 -0.4009 -1.2205 -0.9175
 9043TIP3    H248545   4.271   6.650  15.025 -1.2114 -0.3874  2.7589
 9044TIP3   OH248546   2.094   4.364  10.822  0.1383  0.2602  0.7861
 9044TIP3    H148547   2.135   4.329  10.901  1.0362 -0.8636 -0.1321
 9044TIP3    H248548   2.055   4.288  10.779 -0.4348  0.8682  0.2064
 9045TIP3   OH248549   0.761   3.803  13.650 -0.1525 -0.6791 -0.0043
 9045TIP3    H148550   0.768   3.751  13.730 -2.2639  0.1418  0.7861
 9045TIP3    H248551   0.812   3.882  13.668  0.0682 -0.8683  0.2054
 9046TIP3   OH248552   5.198   4.486  13.423  0.4131  0.7312 -0.2434
 9046TIP3    H148553   5.236   4.459  13.339 -0.3191 -0.1967 -0.2867
 9046TIP3    H248554   5.120   4.432  13.433  0.2406  1.1520  0.8303
 9047TIP3   OH248555   3.026   1.839  12.488 -0.5337 -0.2593 -0.2565
 9047TIP3    H148556   3.071   1.857  12.406  0.1754  2.5658  0.6444
 9047TIP3    H248557   2.971   1.763  12.469  0.7815 -0.6623 -2.8514
 9048TIP3   OH248558   6.621   5.736   4.030 -0.4797  0.6964 -0.1052
 9048TIP3    H148559   6.616   5.830   4.014  1.7367  0.4091 -3.6097
 9048TIP3    H248560   6.587   5.695   3.951 -1.3959 -1.5514  1.3162
 9049TIP3   OH248561   0.095   3.168   3.369 -0.1048 -0.0511  0.2399
 9049TIP3    H148562   0.025   3.117   3.409  1.1026 -0.5192  1.8921
 9049TIP3    H248563   0.082   3.159   3.275 -0.7506 -2.2429  0.4966
 9050TIP3   OH248564   3.592   3.029  16.088  0.5501 -0.2345 -0.2344
 9050TIP3    H148565   3.556   3.014  16.176 -0.7540 -0.5509 -0.8084
 9050TIP3    H248566   3.681   3.061  16.104 -0.0782  0.8725  1.2322
 9051TIP3   OH248567   4.897   0.806  15.299 -0.0052  0.1398 -0.0087
 9051TIP3    H148568   4.932   0.788  15.386  0.2431  1.2198  0.1348
 9051TIP3    H248569   4.964   0.776  15.239 -0.6639 -1.6893  0.1012
 9052TIP3   OH248570   6.672   0.899   3.754 -0.3893  0.3976  0.5601
 9052TIP3    H148571   6.718   0.983   3.747 -0.2918  0.2921 -0.0915
 9052TIP3    H248572   6.665   0.884   3.849 -0.2998  1.0781  0.6841
 9053TIP3   OH248573   0.605   3.740  16.608 -0.1480  0.3050  0.4142
 9053TIP3    H148574   0.570   3.828  16.598 -0.1185  0.2483 -0.2207
 9053TIP3    H248575   0.699   3.753  16.625 -0.2228  0.4101  0.7416
 9054TIP3   OH248576   4.462   0.338   2.315  0.8643  0.4348 -0.6105
 9054TIP3    H148577   4.542   0.387   2.332  0.4595  0.0953  3.2531
 9054TIP3    H248578   4.393   0.404   2.314  1.0206  0.6512 -3.2626
 9055TIP3   OH248579   6.389   3.772  15.531 -0.2092 -0.5154 -0.1576
 9055TIP3    H148580   6.357   3.682  15.539  0.6933 -0.8377 -0.0437
 9055TIP3    H248581   6.407   3.782  15.437  0.3001 -0.6829 -0.0849
 9056TIP3   OH248582   4.150   5.945   0.637 -0.5520  0.0814 -0.5273
 9056TIP3    H148583   4.235   5.955   0.594  0.5943 -0.3985  1.4950
 9056TIP3    H248584   4.125   6.034   0.660  0.7293  0.0444  1.1933
 9057TIP3   OH248585   2.669   6.408   1.948 -0.2562 -0.0057  0.1398
 9057TIP3    H148586   2.728   6.387   1.875 -1.4583 -0.8982 -0.6092
 9057TIP3    H248587   2.588   6.363   1.927 -0.7987  0.1244  1.8068
 9058TIP3   OH248588   5.013   2.194  12.530 -0.4090  0.3617 -0.0945
 9058TIP3    H148589   4.958   2.231  12.460 -0.3816 -0.1543 -0.3991
 9058TIP3    H248590   5.059   2.269  12.567  1.1107  0.4165 -1.9735
 9059TIP3   OH248591   1.744   4.051   5.829 -0.4368 -1.0217  0.6417
 9059TIP3    H148592   1.686   4.080   5.758  0.5444 -0.1277  0.1676
 9059TIP3    H248593   1.695   4.072   5.909 -0.6848 -0.0453  0.2587
 9060TIP3   OH248594   5.341   4.906  16.670 -0.1442 -0.4848  0.3583
 9060TIP3    H148595   5.394   4.932  16.746 -0.6198  0.7191  0.3035
 9060TIP3    H248596   5.380   4.824  16.641  1.9577  0.5289  0.0939
 9061TIP3   OH248597   1.761   6.770  10.651 -0.4340  0.0369 -0.4334
 9061TIP3    H148598   1.765   6.784  10.556 -1.6829 -1.5183 -0.7658
 9061TIP3    H248599   1.679   6.723  10.664  0.3793 -0.9970  1.2683
 9062TIP3   OH248600   1.519   4.506  13.278  0.0962 -0.0270  0.5489
 9062TIP3    H148601   1.606   4.525  13.313 -0.2364 -1.9885  2.7068
 9062TIP3    H248602   1.535   4.452  13.201  0.7961  0.0264  0.6539
 9063TIP3   OH248603   5.754   4.364  16.019 -0.5523  0.5890 -0.3867
 9063TIP3    H148604   5.743   4.305  16.093 -0.4387 -0.5301 -1.2284
 9063TIP3    H248605   5.729   4.311  15.943  1.0314  1.1193 -1.3255
 9064TIP3   OH248606   6.267   2.526  16.319 -0.0770  0.0044 -0.1561
 9064TIP3    H148607   6.285   2.620  16.329  0.4285 -0.2738  1.8548
 9064TIP3    H248608   6.188   2.523  16.265  0.5393  1.5414 -1.2187
 9065TIP3   OH248609   5.934   4.865  11.399  0.8773 -0.0270  1.2012
 9065TIP3    H148610   5.995   4.792  11.404  0.1627 -0.6138  1.4452
 9065TIP3    H248611   5.984   4.935  11.357  2.2836  0.0764  2.9209
 9066TIP3   OH248612   0.931   4.664  11.731  0.4976  0.5164 -0.1939
 9066TIP3    H148613   1.022   4.683  11.707  0.8758 -0.6636  0.2183
 9066TIP3    H248614   0.911   4.582  11.686 -0.2476  0.5883 -0.0048
 9067TIP3   OH248615   2.506   6.465   3.591 -0.0501 -0.4692  0.4674
 9067TIP3    H148616   2.563   6.535   3.561 -2.7215  1.6460 -0.1131
 9067TIP3    H248617   2.523   6.458   3.685  1.0528  0.1382  0.3301
 9068TIP3   OH248618   0.954   4.848   0.345 -0.2880  0.2559 -0.0723
 9068TIP3    H148619   0.973   4.814   0.433  1.5761 -0.9406 -0.8738
 9068TIP3    H248620   0.965   4.942   0.352  1.4024  0.0376  0.6646
 9069TIP3   OH248621   2.910   6.279  12.435  0.1116  0.0518 -0.0878
 9069TIP3    H148622   2.841   6.312  12.492 -0.2775 -1.7801  0.5966
 9069TIP3    H248623   2.879   6.297  12.346 -0.4128  0.7955  0.2333
 9070TIP3   OH248624   2.955   3.136   2.348  0.5105  0.1693  0.6040
 9070TIP3    H148625   2.932   3.044   2.364  1.8120 -0.4580 -0.8832
 9070TIP3    H248626   3.049   3.140   2.366  0.4191  1.2847  0.8852
 9071TIP3   OH248627   2.920   6.409   6.298 -0.0375 -0.1932  0.0807
 9071TIP3    H148628   2.989   6.357   6.339 -1.1035 -2.1942 -0.5383
 9071TIP3    H248629   2.838   6.368   6.327 -0.9863  1.7119  0.2698
 9072TIP3   OH248630   6.401   5.583   3.120  0.8442  0.2618 -0.0623
 9072TIP3    H148631   6.395   5.492   3.150 -0.0363  0.7977  1.4861
 9072TIP3    H248632   6.318   5.622   3.146  0.8709  1.3133 -1.4621
 9073TIP3   OH248633   1.644   3.646   3.030  0.2660 -0.0129  0.2376
 9073TIP3    H148634   1.669   3.733   2.997 -0.7955  0.0564 -0.4342
 9073TIP3    H248635   1.707   3.628   3.100  0.0490  1.6432  0.9180
 9074TIP3   OH248636   1.831   3.407   2.018  0.0878 -0.0377 -0.1153
 9074TIP3    H148637   1.842   3.498   1.993 -0.5650  0.5694  1.6268
 9074TIP3    H248638   1.885   3.397   2.096  0.6381 -1.3318 -0.6386
 9075TIP3   OH248639   0.870   2.097  15.491  0.5015  0.1383  0.7573
 9075TIP3    H148640   0.842   2.006  15.499 -0.3318  0.3240  0.1056
 9075TIP3    H248641   0.909   2.103  15.403  1.7841  0.1077  1.3007
 9076TIP3   OH248642   0.633   6.786  12.244  0.6266  0.0874  0.1306
 9076TIP3    H148643   0.727   6.770  12.244  0.7598  0.8041 -0.1270
 9076TIP3    H248644   0.625   6.879  12.222 -0.2200 -0.4764 -2.1769
 9077TIP3   OH248645   4.609   1.892   2.570 -0.3677 -0.3658  0.3508
 9077TIP3    H148646   4.566   1.974   2.593  2.4001  1.1214  0.5970
 9077TIP3    H248647   4.543   1.843   2.521 -2.0029  2.1322 -0.0900
 9078TIP3   OH248648   6.591   3.725  16.913  0.0913  0.0685  0.8130
 9078TIP3    H148649   6.578   3.816  16.938  0.2075  0.2079  0.3651
 9078TIP3    H248650   6.525   3.709  16.845  0.1995 -0.1266  0.7520
 9079TIP3   OH248651   4.763   6.363  16.243  0.0270  0.2128 -0.1796
 9079TIP3    H148652   4.841   6.411  16.214  1.5438 -0.2845  2.7254
 9079TIP3    H248653   4.690   6.423  16.227  1.4635  2.2008  0.3570
 9080TIP3   OH248654   5.857   6.068   2.036  0.1309  0.0089  0.5669
 9080TIP3    H148655   5.903   6.113   1.966  0.1406  0.1132  0.6399
 9080TIP3    H248656   5.920   6.004   2.069 -0.8545 -2.1604 -1.5064
 9081TIP3   OH248657   1.628   0.543   2.072 -0.0629 -0.5930  0.0957
 9081TIP3    H148658   1.533   0.542   2.061 -0.0634  0.0069  0.0470
 9081TIP3    H248659   1.651   0.451   2.084 -0.3534 -1.0466 -2.3841
 9082TIP3   OH248660   3.653   5.635   6.558 -0.2787 -0.1507 -0.2860
 9082TIP3    H148661   3.656   5.566   6.624 -2.2123 -0.2423 -0.2517
 9082TIP3    H248662   3.593   5.700   6.594  0.3200  0.8313 -1.0093
 9083TIP3   OH248663   0.790   0.401  12.315 -0.0414  0.5657  0.2582
 9083TIP3    H148664   0.821   0.394  12.405  0.8292  1.7282  0.0814
 9083TIP3    H248665   0.799   0.494  12.294 -0.0375  0.2853 -1.0935
 9084TIP3   OH248666   6.205   2.397  14.422 -0.7181 -0.7257 -0.3571
 9084TIP3    H148667   6.289   2.354  14.440 -0.6921 -0.2086  0.8779
 9084TIP3    H248668   6.169   2.349  14.348  0.5925 -1.0608 -0.8004
 9085TIP3   OH248669   4.621   4.042   1.547  0.4127  0.1268  0.6911
 9085TIP3    H148670   4.686   4.104   1.581 -0.7194  1.3987  0.6158
 9085TIP3    H248671   4.670   3.986   1.487  1.6383  0.3931  1.4127
 9086TIP3   OH248672   6.487   6.294   4.339  0.0626 -0.2068  0.2086
 9086TIP3    H148673   6.432   6.223   4.372 -0.6938  1.0409  1.7872
 9086TIP3    H248674   6.452   6.373   4.382  2.7107  0.7268  0.8313
 9087TIP3   OH248675   4.334   2.498  16.498 -0.7118  0.3577 -0.3322
 9087TIP3    H148676   4.421   2.519  16.533 -0.3599 -1.0549 -0.2964
 9087TIP3    H248677   4.345   2.412  16.458 -2.2216 -0.0771  0.1426
 9088TIP3   OH248678   2.621   0.543  12.870  0.5937 -0.4081  0.1335
 9088TIP3    H148679   2.614   0.497  12.786 -0.1938  0.4409 -0.2861
 9088TIP3    H248680   2.532   0.543  12.904  0.9906 -1.1550  1.2109
 9089TIP3   OH248681   4.163   1.663   5.274  0.0782 -0.4792 -0.7750
 9089TIP3    H148682   4.212   1.674   5.356 -0.7505  1.6486 -0.4999
 9089TIP3    H248683   4.101   1.592   5.293 -2.1605  1.9036  1.5858
 9090TIP3   OH248684   6.375   4.070   2.235 -0.1767 -0.1977  0.2401
 9090TIP3    H148685   6.469   4.063   2.253 -0.2507 -0.9459  0.3761
 9090TIP3    H248686   6.353   3.987   2.191 -0.7426  0.0269  0.0894
 9091TIP3   OH248687   4.535   5.338   2.088 -0.5550  0.4326 -0.0428
 9091TIP3    H148688   4.626   5.362   2.106 -0.4872  0.8248 -0.8293
 9091TIP3    H248689   4.538   5.245   2.067 -0.3200  0.4621 -0.1432
 9092TIP3   OH248690   1.289   1.428   2.537  0.0175  0.2855  0.0141
 9092TIP3    H148691   1.292   1.344   2.490 -2.4637 -0.8726  1.7285
 9092TIP3    H248692   1.223   1.479   2.490 -0.3590  0.2540  0.5031
 9093TIP3   OH248693   4.331   5.811  14.866  0.3427  0.1698 -0.2676
 9093TIP3    H148694   4.396   5.860  14.916  0.1688  0.7301 -0.5824
 9093TIP3    H248695   4.374   5.727  14.848  0.5663  0.1215  0.4448
 9094TIP3   OH248696   4.180   3.098  15.063 -0.4979 -0.3677 -0.2269
 9094TIP3    H148697   4.135   3.033  15.118  1.5033 -2.8689 -1.3588
 9094TIP3    H248698   4.109   3.154  15.031 -2.0165 -0.2517  2.9191
 9095TIP3   OH248699   0.508   1.137   1.747  0.1712  0.6562  1.5026
 9095TIP3    H148700   0.456   1.202   1.794 -1.1404 -0.5817  1.8230
 9095TIP3    H248701   0.457   1.056   1.753 -0.5825  0.5736 -2.8156
 9096TIP3   OH248702   1.935   4.280   0.971 -0.7743  0.3739  0.3871
 9096TIP3    H148703   1.890   4.197   0.986 -0.9314  0.6427  1.4996
 9096TIP3    H248704   2.024   4.255   0.948 -0.4622 -0.0975  1.9945
 9097TIP3   OH248705   0.063   5.444   0.162 -0.1462  0.1431  0.3467
 9097TIP3    H148706   0.080   5.391   0.085 -1.4440  0.1024  0.0823
 9097TIP3    H248707  -0.017   5.493   0.142  0.5090  1.5318  0.9365
 9098TIP3   OH248708   4.998   2.973   2.923  0.6597 -0.5027 -0.3535
 9098TIP3    H148709   4.987   2.917   2.847  0.9144 -0.2764 -0.5578
 9098TIP3    H248710   5.083   3.014   2.911  0.7784 -0.5913  0.1368
 9099TIP3   OH248711   2.463   3.264   3.621 -0.3208 -0.5175 -0.2697
 9099TIP3    H148712   2.517   3.186   3.603  0.7692 -0.4088  2.1998
 9099TIP3    H248713   2.503   3.332   3.567  2.5374 -0.3044  1.8395
 9100TIP3   OH248714   4.698   6.561  13.503  0.4847  0.5986  0.3898
 9100TIP3    H148715   4.741   6.496  13.447 -1.3088 -1.7772  1.5909
 9100TIP3    H248716   4.653   6.619  13.443 -0.7387 -1.3988 -0.7337
 9101TIP3   OH248717   1.808   1.553   3.761  0.1202 -0.5578  0.2830
 9101TIP3    H148718   1.868   1.627   3.753  1.5978 -1.7384 -0.2030
 9101TIP3    H248719   1.855   1.481   3.719 -2.9304 -0.8703 -2.9547
 9102TIP3   OH248720   3.103   2.465   1.523  0.2342  0.5612 -0.2314
 9102TIP3    H148721   3.081   2.404   1.453 -3.6233  0.4691  0.8132
 9102TIP3    H248722   3.126   2.547   1.478 -1.4952  0.3182 -1.6716
 9103TIP3   OH248723   4.671   4.141   3.222 -0.2773 -0.4813  0.6012
 9103TIP3    H148724   4.597   4.135   3.283  1.0215 -0.0818  2.2709
 9103TIP3    H248725   4.702   4.231   3.231 -1.4707  0.3710 -2.4365
 9104TIP3   OH248726   5.580   0.859  15.281  0.0531  0.7938  0.4571
 9104TIP3    H148727   5.554   0.781  15.330 -1.9117  1.3328  0.3516
 9104TIP3    H248728   5.668   0.878  15.312 -0.2669 -0.2122  2.1071
 9105TIP3   OH248729   6.288   4.964   4.199 -0.1836  0.4679 -0.7246
 9105TIP3    H148730   6.319   5.050   4.171  0.0148  0.8956  0.7541
 9105TIP3    H248731   6.306   4.961   4.293 -2.9221 -0.0059 -0.1428
 9106TIP3   OH248732   0.723   2.209  17.177 -1.1654 -0.0847 -0.3912
 9106TIP3    H148733   0.756   2.281  17.230  2.8122 -2.2284  0.4183
 9106TIP3    H248734   0.759   2.225  17.090 -1.8181 -0.1949 -0.6904
 9107TIP3   OH248735   1.648   3.162  12.135  0.3539  0.2688  0.1363
 9107TIP3    H148736   1.636   3.075  12.172  2.7604  0.3617  1.2935
 9107TIP3    H248737   1.669   3.146  12.043  0.7596 -0.3788  0.3377
 9108TIP3   OH248738   6.156   2.880  11.608  0.6416  0.1932  0.2618
 9108TIP3    H148739   6.100   2.805  11.629 -0.4997  0.4070 -1.7248
 9108TIP3    H248740   6.242   2.841  11.590  0.3559 -0.5102  0.3852
 9109TIP3   OH248741   0.873   0.338   4.521  0.9684 -0.2960 -0.2241
 9109TIP3    H148742   0.878   0.303   4.610  0.1498 -0.4565 -0.2311
 9109TIP3    H248743   0.922   0.419   4.524  0.7258 -0.1684  0.4500
 9110TIP3   OH248744   0.586   5.453  15.207  0.0535 -0.8991 -0.5193
 9110TIP3    H148745   0.636   5.440  15.287  0.0753 -0.3112 -0.4356
 9110TIP3    H248746   0.518   5.516  15.230 -0.6543 -1.5923 -0.6653
 9111TIP3   OH248747   2.721   2.442  17.176  0.1648  0.7992  0.3130
 9111TIP3    H148748   2.754   2.357  17.148  0.4332  0.2481  2.2144
 9111TIP3    H248749   2.786   2.505  17.143 -0.1023  0.3346 -1.2145
 9112TIP3   OH248750   6.417   0.947   1.457  0.2665  0.2743  0.1142
 9112TIP3    H148751   6.330   0.940   1.496 -0.8822  1.3159 -2.0845
 9112TIP3    H248752   6.465   1.004   1.517 -1.1126  1.0574  0.5341
 9113TIP3   OH248753   0.583   2.554  16.950 -0.4023  0.2769  0.3955
 9113TIP3    H148754   0.574   2.484  16.884  0.1017 -0.6317  1.2725
 9113TIP3    H248755   0.606   2.508  17.031  2.0551  1.6210  0.5408
 9114TIP3   OH248756   0.879   2.029  16.491 -0.1048 -0.5162 -0.5694
 9114TIP3    H148757   0.840   1.941  16.489 -0.6613 -0.2619 -1.1475
 9114TIP3    H248758   0.947   2.023  16.558  0.2469 -1.5527 -0.9940
 9115TIP3   OH248759   5.557   1.721   4.405  0.0765  0.1639  0.5035
 9115TIP3    H148760   5.491   1.776   4.447 -0.0289  0.5780 -0.2062
 9115TIP3    H248761   5.602   1.679   4.479 -0.1782  0.7965  1.0316
 9116TIP3   OH248762   3.329   6.403   4.941  0.1485  0.0411  0.1742
 9116TIP3    H148763   3.306   6.330   4.884 -0.5125 -1.1350  1.8561
 9116TIP3    H248764   3.297   6.481   4.895 -1.3000 -0.9624 -0.5978
 9117TIP3   OH248765   2.581   0.469   4.109  0.2296  0.3734 -0.0704
 9117TIP3    H148766   2.676   0.483   4.112  0.2191  0.5207 -0.3755
 9117TIP3    H248767   2.558   0.484   4.017  0.3616 -2.6232 -0.7063
 9118TIP3   OH248768   5.419   3.721  15.238 -0.2968 -0.1601  0.9657
 9118TIP3    H148769   5.370   3.795  15.274  0.7288  0.2729  1.4980
 9118TIP3    H248770   5.507   3.730  15.274 -0.1089 -1.5636  0.9230
 9119TIP3   OH248771   0.961   4.662   4.174 -0.3683 -0.6415 -0.0108
 9119TIP3    H148772   0.947   4.757   4.184  1.0715 -0.3002 -0.9617
 9119TIP3    H248773   0.933   4.625   4.258 -1.1555  0.5975  0.3031
 9120TIP3   OH248774   2.209   6.500   1.422  0.0593 -0.0639 -0.5209
 9120TIP3    H148775   2.169   6.518   1.336  1.5912 -0.1534 -1.2834
 9120TIP3    H248776   2.273   6.432   1.405  0.4887  0.0184  0.6800
 9121TIP3   OH248777   1.909   3.572   5.991 -0.6139 -0.7068 -0.2736
 9121TIP3    H148778   1.898   3.665   5.970 -1.9539 -0.9624 -0.7897
 9121TIP3    H248779   1.908   3.528   5.907 -0.3775 -1.2386 -0.0013
 9122TIP3   OH248780   5.262   5.652   3.928 -0.5385  0.2283 -0.1281
 9122TIP3    H148781   5.176   5.668   3.967 -0.4721  3.0435 -0.8569
 9122TIP3    H248782   5.319   5.717   3.970  1.0805 -1.1212 -0.1710
 9123TIP3   OH248783   4.666   5.992  11.719 -0.2667  0.0524  0.4325
 9123TIP3    H148784   4.728   5.982  11.648 -0.2789  1.1665  0.2416
 9123TIP3    H248785   4.623   6.076  11.701 -0.9875 -0.1394  1.1992
 9124TIP3   OH248786   0.408   4.938  12.126  0.3655 -0.0207 -0.3893
 9124TIP3    H148787   0.488   4.983  12.097  0.6529 -1.2316 -1.5817
 9124TIP3    H248788   0.369   4.998  12.190  1.4574  1.2616 -0.8616
 9125TIP3   OH248789   5.330   1.025  11.620  0.4295  0.8253  0.1695
 9125TIP3    H148790   5.272   1.042  11.694  0.5029  1.6430  0.0557
 9125TIP3    H248791   5.333   0.930  11.612 -2.9674  0.6798 -1.4018
 9126TIP3   OH248792   5.665   4.023   3.719 -0.1659 -0.2007  0.1294
 9126TIP3    H148793   5.611   3.952   3.685  0.6140 -0.8307  0.2026
 9126TIP3    H248794   5.648   4.023   3.814  1.5302 -1.7813  0.4834
 9127TIP3   OH248795   4.972   3.534  11.599  0.1221 -0.3097  0.0199
 9127TIP3    H148796   4.985   3.504  11.509 -0.5231 -0.6518  0.0330
 9127TIP3    H248797   4.974   3.453  11.651  1.4418 -0.0270  0.4315
 9128TIP3   OH248798   4.177   5.084  15.542 -0.4576  0.8349 -0.8198
 9128TIP3    H148799   4.196   5.065  15.634 -0.6805  0.4120 -0.8533
 9128TIP3    H248800   4.252   5.134  15.510 -0.3310  0.8872 -0.4354
 9129TIP3   OH248801   5.713   0.708  13.308  1.1514  0.2076 -0.0512
 9129TIP3    H148802   5.765   0.784  13.285 -1.9836  2.3672 -0.6572
 9129TIP3    H248803   5.701   0.715  13.403  1.5175  0.0275  0.0072
 9130TIP3   OH248804   6.482   0.716   4.902  0.2088 -0.2916  0.2719
 9130TIP3    H148805   6.562   0.688   4.948 -0.5277 -0.0544  1.7475
 9130TIP3    H248806   6.440   0.634   4.876 -0.4907 -0.5454  2.0464
 9131TIP3   OH248807   4.552   5.259  14.833 -0.8466  0.1809  0.0627
 9131TIP3    H148808   4.474   5.212  14.804  0.5306 -1.6578 -0.9066
 9131TIP3    H248809   4.575   5.316  14.761 -1.1833  0.5728  0.2661
 9132TIP3   OH248810   5.998   0.175  16.061 -0.2518  0.4626  0.8211
 9132TIP3    H148811   5.938   0.102  16.046 -1.5322  1.2164  2.0063
 9132TIP3    H248812   6.073   0.136  16.105  0.1775 -0.5095 -0.7165
 9133TIP3   OH248813   2.464   0.878   3.483 -0.4339  0.0937 -0.0731
 9133TIP3    H148814   2.505   0.838   3.561  1.7677  0.2945 -1.0431
 9133TIP3    H248815   2.371   0.880   3.503 -0.1981 -1.9933  1.6137
 9134TIP3   OH248816   4.619   1.646  15.270 -0.1563  0.1279 -0.0871
 9134TIP3    H148817   4.549   1.582  15.282 -0.7457  0.6829 -0.4804
 9134TIP3    H248818   4.576   1.721  15.229  0.0040  1.7300  2.4551
 9135TIP3   OH248819   6.776   0.976   2.514 -0.6527  0.7566  0.1163
 9135TIP3    H148820   6.761   0.899   2.569  2.1707  0.1451  0.2062
 9135TIP3    H248821   6.689   1.014   2.501 -1.8448 -1.0838  2.0408
 9136TIP3   OH248822   5.193   3.126   4.150  0.4079  0.6096  0.2731
 9136TIP3    H148823   5.232   3.126   4.238  0.6191  1.2298  0.1891
 9136TIP3    H248824   5.155   3.213   4.142  1.3999  0.9856 -0.6837
 9137TIP3   OH248825   3.180   3.270  13.505 -0.0241  0.0532 -0.0354
 9137TIP3    H148826   3.202   3.184  13.471  0.0803  0.0107  0.1380
 9137TIP3    H248827   3.153   3.320  13.428  0.1026 -0.0749 -0.1635
 9138TIP3   OH248828   2.448   4.221   1.361  0.1640  0.1961 -0.3940
 9138TIP3    H148829   2.395   4.286   1.316  0.3986  0.7588  0.1315
 9138TIP3    H248830   2.538   4.250   1.348  0.2048  1.1736  1.5829
 9139TIP3   OH248831   1.860   5.380   4.975  0.4395  0.2991  0.3289
 9139TIP3    H148832   1.854   5.351   5.066  0.0308 -0.8757 -0.0601
 9139TIP3    H248833   1.819   5.467   4.975  1.9441  1.0713  1.5726
 9140TIP3   OH248834   4.997   5.063  14.735 -0.1297 -0.2653 -0.0200
 9140TIP3    H148835   4.938   5.086  14.807 -0.1733 -0.3919 -0.0141
 9140TIP3    H248836   5.057   5.137  14.729 -0.0300 -0.3212  0.2465
 9141TIP3   OH248837   0.444   2.834   5.306  0.1671  0.4192  0.1872
 9141TIP3    H148838   0.476   2.863   5.391 -0.2880 -0.2045  0.5773
 9141TIP3    H248839   0.368   2.889   5.288 -1.7633 -1.5908  1.7258
 9142TIP3   OH248840   4.072   1.397   3.116 -0.0410 -0.1899 -0.0410
 9142TIP3    H148841   4.055   1.320   3.171  1.3347  0.7723  1.8482
 9142TIP3    H248842   3.985   1.428   3.090 -0.8227 -0.2191  2.3104
 9143TIP3   OH248843   5.018   0.741   1.246  0.3052  0.1374  0.4129
 9143TIP3    H148844   4.928   0.708   1.245  0.1282  0.6169 -0.5077
 9143TIP3    H248845   5.051   0.716   1.332 -1.0703  0.9412  1.2194
 9144TIP3   OH248846   1.135   2.529   1.700  0.2158 -0.0347 -0.1667
 9144TIP3    H148847   1.136   2.596   1.632  0.8680 -0.3161 -0.4442
 9144TIP3    H248848   1.057   2.476   1.681  0.2510  0.0461 -0.5434
 9145TIP3   OH248849   0.453   0.560  16.119  0.1033  0.4236 -0.3855
 9145TIP3    H148850   0.511   0.535  16.048  1.2970  1.6667  0.0991
 9145TIP3    H248851   0.498   0.532  16.199 -0.5007  0.3774 -0.0534
 9146TIP3   OH248852   5.845   4.330   1.775 -0.4025  0.1348  0.2628
 9146TIP3    H148853   5.766   4.292   1.737 -0.3805  1.3393 -1.0938
 9146TIP3    H248854   5.822   4.348   1.866 -0.5364 -2.6181  0.8421
 9147TIP3   OH248855   6.004   4.704   4.963 -0.1980  0.3026  0.3794
 9147TIP3    H148856   6.096   4.682   4.959 -0.2342  0.1557  0.3530
 9147TIP3    H248857   5.964   4.657   4.890  0.1363  2.5085 -1.3179
 9148TIP3   OH248858   6.339   2.743  10.704 -0.6544 -0.4146  0.4511
 9148TIP3    H148859   6.390   2.679  10.654  0.1383 -0.2204  1.0005
 9148TIP3    H248860   6.398   2.774  10.772 -0.7839  1.4162 -0.2042
 9149TIP3   OH248861   5.281   6.761   4.275  0.2556  0.1480 -0.3873
 9149TIP3    H148862   5.253   6.674   4.303  1.4320  0.1879  1.0099
 9149TIP3    H248863   5.205   6.817   4.293  0.4483 -0.0984  1.3974
 9150TIP3   OH248864   4.035   1.690   3.761 -0.1811  0.3233 -0.0547
 9150TIP3    H148865   3.947   1.692   3.725  0.0315  0.3667 -0.5887
 9150TIP3    H248866   4.030   1.627   3.833 -1.3302  2.4434  1.8476
 9151TIP3   OH248867   0.007   4.867   2.609  0.0337  0.4484  0.6104
 9151TIP3    H148868  -0.020   4.872   2.701  2.1812  0.0978  1.3110
 9151TIP3    H248869   0.091   4.912   2.606  0.2627 -0.0302 -1.0827
 9152TIP3   OH248870   5.670   4.361  14.752 -0.0360  0.2497  0.3403
 9152TIP3    H148871   5.631   4.440  14.788  0.4989  0.2623  0.9137
 9152TIP3    H248872   5.639   4.290  14.809 -1.0206 -0.0567 -0.5397
 9153TIP3   OH248873   5.449   2.127   0.804 -0.6182 -0.1551  0.1523
 9153TIP3    H148874   5.418   2.064   0.870  0.3847 -0.7083  0.1252
 9153TIP3    H248875   5.452   2.076   0.723  0.0415 -0.0415  0.0972
 9154TIP3   OH248876   1.405   6.541   3.816 -0.1670  0.0713  0.1490
 9154TIP3    H148877   1.453   6.468   3.854  0.5585 -0.6804 -2.0709
 9154TIP3    H248878   1.428   6.540   3.724 -2.4563  1.2993 -0.5196
 9155TIP3   OH248879   4.585   0.409   1.919 -0.2506 -0.5956 -0.1162
 9155TIP3    H148880   4.575   0.316   1.941  1.5894 -0.7732  0.1644
 9155TIP3    H248881   4.592   0.453   2.004  0.2113 -0.3956 -0.2518
 9156TIP3   OH248882   1.152   2.341  11.896 -0.0818  0.0361 -0.2437
 9156TIP3    H148883   1.098   2.286  11.839 -0.1482 -0.1075 -0.0435
 9156TIP3    H248884   1.144   2.301  11.982 -0.3630  0.5241 -0.0375
 9157TIP3   OH248885   5.909   6.080   5.412  0.5114  0.6257 -0.3344
 9157TIP3    H148886   5.958   6.161   5.428 -1.1080  1.9896 -1.7796
 9157TIP3    H248887   5.839   6.081   5.478  0.0208  0.8467 -0.8453
 9158TIP3   OH248888   1.265   2.188  10.958 -0.3249 -0.5186 -0.2997
 9158TIP3    H148889   1.263   2.204  11.052  0.0217 -0.7693 -0.2495
 9158TIP3    H248890   1.306   2.266  10.921  0.7383 -0.9743 -0.1181
 9159TIP3   OH248891   4.316   6.242  14.726  0.0662  0.2908  0.9532
 9159TIP3    H148892   4.343   6.327  14.760  0.3080  0.9351 -0.7483
 9159TIP3    H248893   4.398   6.196  14.708 -0.0523 -0.9192  3.2235
 9160TIP3   OH248894   3.547   1.706   5.251 -0.9709  0.6065 -0.6261
 9160TIP3    H148895   3.604   1.678   5.180 -0.5671  0.4134 -0.2237
 9160TIP3    H248896   3.536   1.629   5.306 -0.6774  0.9520 -0.0725
 9161TIP3   OH248897   2.547   6.736  16.960 -0.0730 -0.0002 -0.7367
 9161TIP3    H148898   2.568   6.828  16.943 -0.9091  0.5734  1.0665
 9161TIP3    H248899   2.460   6.725  16.923  0.3134 -0.2855 -1.5828
 9162TIP3   OH248900   2.573   1.758  16.641 -0.4233 -0.6105  0.2072
 9162TIP3    H148901   2.618   1.833  16.678  0.4682 -0.1208 -1.7268
 9162TIP3    H248902   2.644   1.700  16.611 -1.0952 -1.1715 -0.3343
 9163TIP3   OH248903   0.161   4.830   3.777 -0.1189 -0.0641  0.2495
 9163TIP3    H148904   0.091   4.895   3.786  0.4202  0.6803 -0.7339
 9163TIP3    H248905   0.116   4.749   3.754 -0.5605  0.9781 -3.0587
 9164TIP3   OH248906   3.369   6.399  16.620  0.7612 -0.2919 -0.4001
 9164TIP3    H148907   3.360   6.359  16.706 -1.6496 -0.4375 -0.6621
 9164TIP3    H248908   3.460   6.382  16.595  1.2233 -1.1173  1.6614
 9165TIP3   OH248909   1.232   2.434  10.796  0.7705 -1.0209 -0.3420
 9165TIP3    H148910   1.227   2.425  10.701  0.1982  1.9793 -0.7057
 9165TIP3    H248911   1.311   2.484  10.812 -0.2501  0.3937  0.5222
 9166TIP3   OH248912   0.878   6.087  12.094  0.2617  0.4288  0.4960
 9166TIP3    H148913   0.811   6.089  12.163  1.1931 -0.3032  1.4587
 9166TIP3    H248914   0.936   6.160  12.116 -0.2248  1.0836 -0.3555
 9167TIP3   OH248915   3.379   2.023   0.985 -0.0127 -0.2234  0.3512
 9167TIP3    H148916   3.447   1.992   0.926  0.2708  0.2607  0.4147
 9167TIP3    H248917   3.353   1.946   1.035  0.2188 -0.4913  0.0611
 9168TIP3   OH248918   1.736   4.089  11.762 -0.6742  0.0629 -0.1699
 9168TIP3    H148919   1.666   4.125  11.816  0.6238  2.2027  0.2235
 9168TIP3    H248920   1.794   4.045  11.825 -0.4892  0.2963 -0.1770
 9169TIP3   OH248921   0.240   1.078   5.651  0.2133 -0.2070  0.3189
 9169TIP3    H148922   0.171   1.036   5.703 -0.7602  1.1153  0.1325
 9169TIP3    H248923   0.196   1.147   5.603  1.0511 -1.3972 -2.3784
 9170TIP3   OH248924   5.699   6.671  15.783  0.5340 -0.3069 -0.1791
 9170TIP3    H148925   5.629   6.730  15.755  1.1421  1.1982  1.3255
 9170TIP3    H248926   5.669   6.584  15.757 -1.2116  0.4555 -0.8540
 9171TIP3   OH248927   5.352   2.394   4.579  0.4626 -0.8347  0.3479
 9171TIP3    H148928   5.264   2.356   4.573 -0.5361  1.2123  1.1938
 9171TIP3    H248929   5.337   2.488   4.576  2.7124 -0.4577 -0.1296
 9172TIP3   OH248930   1.528   6.428  10.963 -0.5503 -0.8051  0.0849
 9172TIP3    H148931   1.542   6.521  10.981 -1.4734 -1.0183  2.1809
 9172TIP3    H248932   1.582   6.410  10.886 -1.9487  1.9206 -1.6761
 9173TIP3   OH248933   2.359   4.680  13.504  0.1704 -0.3381  0.3310
 9173TIP3    H148934   2.302   4.658  13.578 -0.4475 -1.8741 -0.5447
 9173TIP3    H248935   2.432   4.727  13.543 -0.3538 -0.7307  1.8687
 9174TIP3   OH248936   5.861   3.918   4.647 -0.1676 -0.1354 -0.2516
 9174TIP3    H148937   5.891   3.914   4.556  0.6606 -0.3428  0.0221
 9174TIP3    H248938   5.780   3.868   4.648 -0.4607  0.3170 -0.9860
 9175TIP3   OH248939   1.258   3.598  15.791  0.0696 -0.1821  0.5327
 9175TIP3    H148940   1.298   3.641  15.716 -1.0467  0.4314  0.2589
 9175TIP3    H248941   1.167   3.582  15.764 -0.4806  0.4469  1.9023
 9176TIP3   OH248942   3.050   4.445  13.354 -0.0070  0.1503  0.0754
 9176TIP3    H148943   3.133   4.398  13.354 -0.3791 -0.5234 -0.0012
 9176TIP3    H248944   2.990   4.388  13.400 -0.3831  0.7251  0.3133
 9177TIP3   OH248945   4.225   2.067  13.041 -0.3093  0.4156 -0.0543
 9177TIP3    H148946   4.266   2.031  12.963 -2.5519  0.2827 -1.2417
 9177TIP3    H248947   4.298   2.092  13.097  1.3657 -1.9755 -1.0120
 9178TIP3   OH248948   0.029   0.285   1.051  0.0581  0.0175 -0.2104
 9178TIP3    H148949   0.068   0.205   1.017 -2.2297 -1.4778  0.4767
 9178TIP3    H248950   0.063   0.292   1.140 -1.3569 -1.4276  0.4836
 9179TIP3   OH248951   6.432   4.967  13.224 -0.2835  0.1999 -0.2999
 9179TIP3    H148952   6.379   4.973  13.303  0.1608 -0.2953  0.0513
 9179TIP3    H248953   6.460   5.057  13.207 -0.9283  0.4080 -0.2785
 9180TIP3   OH248954   1.053   1.264   0.833  0.6288 -0.0380 -0.4209
 9180TIP3    H148955   1.042   1.358   0.846  0.1886 -0.1983  0.4523
 9180TIP3    H248956   1.129   1.256   0.776  0.9943  0.8353 -0.0753
 9181TIP3   OH248957   5.488   5.120  11.700  0.0555  0.1460  0.0111
 9181TIP3    H148958   5.562   5.073  11.739  0.2592  0.1297 -0.3899
 9181TIP3    H248959   5.434   5.051  11.661  0.8297  0.3093 -1.3847
 9182TIP3   OH248960   6.498   5.667  15.825 -0.2464 -0.3423  0.1600
 9182TIP3    H148961   6.472   5.690  15.736 -0.8406 -1.2014  0.1056
 9182TIP3    H248962   6.594   5.678  15.825 -0.3332  0.5689 -0.3015
 9183TIP3   OH248963   1.852   0.936  10.939 -0.0998  0.2139 -0.1202
 9183TIP3    H148964   1.832   1.010  10.997  0.2428  0.7016 -0.6126
 9183TIP3    H248965   1.778   0.931  10.879  0.2429  0.6781 -0.5968
 9184TIP3   OH248966   0.660   4.104  10.926 -0.3423  0.5018 -0.2903
 9184TIP3    H148967   0.612   4.028  10.959 -0.4154 -0.2046 -1.9117
 9184TIP3    H248968   0.603   4.178  10.946 -0.5147  0.0864  0.8507
 9185TIP3   OH248969   5.509   2.358   4.834  0.5142  0.3474  0.0843
 9185TIP3    H148970   5.584   2.417   4.830 -0.0484  1.0269 -1.2248
 9185TIP3    H248971   5.471   2.362   4.746 -0.4626 -0.7633  0.4284
 9186TIP3   OH248972   4.155   3.587  13.711  0.7646  0.2338 -0.2543
 9186TIP3    H148973   4.162   3.573  13.805  1.2503 -0.6118 -0.4065
 9186TIP3    H248974   4.235   3.549  13.675  0.2994 -0.0107 -1.0625
 9187TIP3   OH248975   1.622   2.272  13.887 -0.3059 -0.1555  0.2420
 9187TIP3    H148976   1.689   2.334  13.859 -1.1294  0.4907 -0.3630
 9187TIP3    H248977   1.608   2.292  13.980  1.1057 -1.0397  0.6631
 9188TIP3   OH248978   2.585   2.157   0.070 -0.4150  0.1124 -0.3064
 9188TIP3    H148979   2.524   2.196   0.132 -1.6992 -0.5845 -1.0850
 9188TIP3    H248980   2.574   2.062   0.082  1.1927 -0.0555  0.1626
 9189TIP3   OH248981   1.860   6.229   3.541  0.0694 -0.0501  0.3339
 9189TIP3    H148982   1.878   6.320   3.565  0.8508 -0.7040  2.4086
 9189TIP3    H248983   1.804   6.235   3.464 -1.8447  2.2282  1.7828
 9190TIP3   OH248984   1.452   3.577  13.110  0.3219  0.1016 -0.5912
 9190TIP3    H148985   1.504   3.646  13.152  2.1649 -1.3930 -0.2714
 9190TIP3    H248986   1.412   3.529  13.183 -2.4814  1.8540 -0.8550
 9191TIP3   OH248987   1.398   4.655   3.342 -0.2464  0.7388 -0.9431
 9191TIP3    H148988   1.490   4.654   3.366 -0.2936  1.6261 -0.6714
 9191TIP3    H248989   1.365   4.570   3.370 -0.2142  1.5452  1.9254
 9192TIP3   OH248990   0.890   5.191  12.859 -0.0578 -0.1735  0.3457
 9192TIP3    H148991   0.951   5.252  12.899 -0.8161  0.6119  0.3328
 9192TIP3    H248992   0.821   5.246  12.821  0.1487 -0.9267 -1.2344
 9193TIP3   OH248993   2.465   6.199  12.900 -0.0234 -0.1735 -0.2664
 9193TIP3    H148994   2.510   6.264  12.847 -0.2101 -0.7068 -1.0956
 9193TIP3    H248995   2.524   6.123  12.901 -1.0123 -0.9978 -1.6283
 9194TIP3   OH248996   6.301   6.478   0.518  1.0774 -0.2631 -0.3728
 9194TIP3    H148997   6.240   6.485   0.591  0.0116 -0.0988 -1.2655
 9194TIP3    H248998   6.310   6.384   0.503  0.3947 -0.2653 -0.7744
 9195TIP3   OH248999   5.168   0.683  14.724  0.0893  0.5905  0.0816
 9195TIP3    H149000   5.257   0.685  14.688  0.2147 -1.9781  0.0807
 9195TIP3    H249001   5.112   0.666  14.649 -0.1828  0.2981  0.3444
 9196TIP3   OH249002   2.127   1.761  14.700  0.3524  0.2068  0.8052
 9196TIP3    H149003   2.120   1.695  14.631 -0.1160 -0.9161  1.8738
 9196TIP3    H249004   2.041   1.759  14.744 -0.8480  3.7812 -1.0153
 9197TIP3   OH249005   6.048   1.317  11.911  0.0735  0.2290 -0.4535
 9197TIP3    H149006   6.041   1.393  11.853  2.1168 -0.2293 -1.3817
 9197TIP3    H249007   6.107   1.257  11.866  1.4117 -0.3464  1.8522
 9198TIP3   OH249008   2.266   3.901   3.811 -0.3395  0.3868  0.3570
 9198TIP3    H149009   2.344   3.956   3.797  0.5255 -0.9803 -0.3611
 9198TIP3    H249010   2.221   3.902   3.727  0.4160 -1.0861 -0.0880
 9199TIP3   OH249011   2.210   5.799  10.550 -0.2413 -0.1354 -0.2370
 9199TIP3    H149012   2.268   5.806  10.626  0.6690 -0.2115 -0.9011
 9199TIP3    H249013   2.196   5.890  10.523 -0.2454 -0.1288 -0.2116
 9200TIP3   OH249014   2.827   2.622   5.515 -0.2068  0.0444 -0.2011
 9200TIP3    H149015   2.751   2.679   5.502 -0.7091  0.4164  3.3542
 9200TIP3    H249016   2.790   2.540   5.547  0.8119  0.5009  2.3651
 9201TIP3   OH249017   4.482   3.286   0.482 -0.0044  0.0000 -0.1984
 9201TIP3    H149018   4.403   3.301   0.534  0.7353 -0.8441  1.2284
 9201TIP3    H249019   4.547   3.346   0.519  0.5925 -0.7565 -0.0021
 9202TIP3   OH249020   0.434   5.919  14.651 -0.7185 -0.5513 -0.4658
 9202TIP3    H149021   0.437   5.890  14.742  0.5015  0.8132 -0.0252
 9202TIP3    H249022   0.511   5.878  14.610  1.1916  2.0178  0.2316
 9203TIP3   OH249023   0.683   6.246   2.728  0.0509  0.2247  0.3957
 9203TIP3    H149024   0.703   6.289   2.645  0.6515  1.8407  1.3254
 9203TIP3    H249025   0.693   6.153   2.710 -0.9096  0.4424 -1.6086
 9204TIP3   OH249026   0.254   5.536   1.787  0.0454  0.2738  0.3870
 9204TIP3    H149027   0.302   5.618   1.800 -0.5169  0.6880 -0.0380
 9204TIP3    H249028   0.274   5.483   1.864  1.5124  0.2544  0.0164
 9205TIP3   OH249029   0.831   0.300   1.335 -0.4050 -0.3749  0.0006
 9205TIP3    H149030   0.865   0.212   1.321  0.3351  0.0898 -1.3238
 9205TIP3    H249031   0.750   0.287   1.384 -0.8751 -1.8808 -1.0944
 9206TIP3   OH249032   5.378   0.670   1.050 -0.3296 -0.1885  0.6504
 9206TIP3    H149033   5.319   0.648   1.122 -0.0386 -0.2912  0.8578
 9206TIP3    H249034   5.381   0.765   1.050  0.1520 -0.2015  1.1657
 9207TIP3   OH249035   1.064   5.694  13.466 -0.1937  0.4074 -0.6411
 9207TIP3    H149036   0.980   5.649  13.467  0.7616 -1.7156  2.8462
 9207TIP3    H249037   1.126   5.628  13.433  0.5178  0.9052 -0.3238
 9208TIP3   OH249038   3.728   4.796  14.744 -0.0794  0.3613  0.0041
 9208TIP3    H149039   3.723   4.881  14.700 -0.6397  0.8199  0.9313
 9208TIP3    H249040   3.809   4.800  14.795 -0.1300  0.3583  0.0846
 9209TIP3   OH249041   2.766   2.994  10.892  0.7786  0.5420 -0.0353
 9209TIP3    H149042   2.676   2.990  10.862  0.9438 -1.7233 -0.4503
 9209TIP3    H249043   2.791   2.902  10.903  3.1358  1.1017 -0.2310
 9210TIP3   OH249044   1.987   0.360   3.695 -0.4305  0.0353 -0.5454
 9210TIP3    H149045   2.007   0.386   3.605  1.8239  1.4678  0.2709
 9210TIP3    H249046   1.987   0.442   3.744 -1.5108 -0.7374  0.7935
 9211TIP3   OH249047   4.316   1.777   4.668  0.0069 -0.0873 -0.0889
 9211TIP3    H149048   4.387   1.837   4.646  1.5382  0.1970  4.5830
 9211TIP3    H249049   4.242   1.834   4.687 -0.6880 -0.2291 -2.0974
 9212TIP3   OH249050   0.762   1.988  14.653  0.5451  0.3054  0.0565
 9212TIP3    H149051   0.852   2.014  14.673  0.6038  2.3357 -2.3712
 9212TIP3    H249052   0.767   1.949  14.566 -0.8106 -0.5218  0.3235
 9213TIP3   OH249053   4.440   1.327  16.953  0.0421  0.0365 -0.3159
 9213TIP3    H149054   4.347   1.350  16.952 -0.0050 -0.1616 -0.4431
 9213TIP3    H249055   4.474   1.358  16.869  0.0943  0.1170 -0.2656
 9214TIP3   OH249056   0.384   2.511  14.863 -0.3742 -0.0359 -0.0396
 9214TIP3    H149057   0.433   2.568  14.923 -0.6037  1.4176 -1.1517
 9214TIP3    H249058   0.410   2.422  14.887  1.8207  0.6200  0.2783
 9215TIP3   OH249059   4.360   1.469  15.058 -1.0118 -0.0261  0.2879
 9215TIP3    H149060   4.328   1.474  15.148 -0.0129  1.2570  0.5977
 9215TIP3    H249061   4.407   1.385  15.055  0.0977  0.5238  1.3794
 9216TIP3   OH249062   2.612   2.141   1.912  0.2347 -0.2833  0.2262
 9216TIP3    H149063   2.593   2.132   1.819  1.9155  1.5216 -0.3762
 9216TIP3    H249064   2.700   2.106   1.923  0.7036  0.9788  0.7702
 9217TIP3   OH249065   0.611   6.204  16.282 -0.5815  0.4021 -0.2287
 9217TIP3    H149066   0.704   6.224  16.291 -0.8376  1.2749  0.6225
 9217TIP3    H249067   0.601   6.117  16.321  0.2536 -0.8075 -2.4726
 9218TIP3   OH249068   0.383   6.319  13.869  0.5659  0.0602  0.3117
 9218TIP3    H149069   0.325   6.391  13.893  0.7770 -0.3091  2.0566
 9218TIP3    H249070   0.472   6.354  13.881  0.6885  0.0309 -0.4819
 9219TIP3   OH249071   5.636   0.956  10.928 -0.1915 -0.0752  0.2130
 9219TIP3    H149072   5.652   1.017  10.855 -1.5587 -1.2373 -1.1313
 9219TIP3    H249073   5.698   0.983  10.996  1.2703  0.9527 -1.4364
 9220TIP3   OH249074   2.902   4.541  11.011  0.0279 -0.2888 -0.0718
 9220TIP3    H149075   2.976   4.480  11.019  0.1871 -0.2144 -0.8655
 9220TIP3    H249076   2.898   4.562  10.918  1.7073  3.0513  0.4477
 9221TIP3   OH249077   5.616   0.090   3.755  0.0449 -0.0157 -0.3035
 9221TIP3    H149078   5.529   0.111   3.791  0.0036 -0.3955 -0.1820
 9221TIP3    H249079   5.616  -0.005   3.746  0.1155  0.0532 -1.1595
 9222TIP3   OH249080   1.048   1.825  12.237 -0.1577 -0.0270 -0.0252
 9222TIP3    H149081   1.059   1.900  12.295 -0.5195  0.8950 -1.1227
 9222TIP3    H249082   1.084   1.853  12.153  0.1760 -1.2681 -0.3261
 9223TIP3   OH249083   2.953   6.051   5.288 -0.5442 -0.0922 -0.4971
 9223TIP3    H149084   2.934   6.127   5.343 -1.0512 -0.9264  0.5162
 9223TIP3    H249085   2.963   5.979   5.350 -3.1209 -1.4740 -1.5731
 9224TIP3   OH249086   0.355   0.712   0.680 -0.1796 -0.1309 -0.0527
 9224TIP3    H149087   0.277   0.714   0.625 -0.0285 -1.5764 -0.3589
 9224TIP3    H249088   0.425   0.744   0.622 -0.1302 -1.0828 -0.5486
 9225TIP3   OH249089   5.159   3.380   4.962  0.1467  0.0010  0.0941
 9225TIP3    H149090   5.195   3.465   4.986  1.2741 -0.9746  2.0041
 9225TIP3    H249091   5.224   3.341   4.904  0.5734 -0.3428  0.7904
 9226TIP3   OH249092   0.649   0.502   4.530  0.4451 -0.3451  0.2614
 9226TIP3    H149093   0.700   0.568   4.577  1.0435 -0.2044 -0.5723
 9226TIP3    H249094   0.695   0.419   4.546  1.3505 -0.1198 -1.0407
 9227TIP3   OH249095   5.569   3.474  13.045 -0.4403 -0.1608 -0.5485
 9227TIP3    H149096   5.614   3.521  12.975  2.6454 -0.6958  0.9111
 9227TIP3    H249097   5.595   3.383  13.034 -0.7396 -0.4159  0.6551
 9228TIP3   OH249098   0.482   3.437  15.427 -0.1572  0.2794 -0.2095
 9228TIP3    H149099   0.480   3.361  15.370 -0.1289 -1.5897  2.1380
 9228TIP3    H249100   0.390   3.451  15.451 -0.0119  0.1167  0.4493
 9229TIP3   OH249101   1.481   4.628   1.975 -0.2564  0.2772  0.1711
 9229TIP3    H149102   1.561   4.576   1.965 -1.6319 -1.6176 -2.0642
 9229TIP3    H249103   1.456   4.617   2.067  1.7778  0.5833  0.8081
 9230TIP3   OH249104   4.712   1.954  11.449  0.6815 -0.0866 -0.9737
 9230TIP3    H149105   4.701   1.987  11.539  2.3485 -0.3026 -0.6676
 9230TIP3    H249106   4.761   2.023  11.404  2.3027 -1.1427 -0.9211
 9231TIP3   OH249107   2.462   3.678   0.223  0.1519 -0.6912 -0.0070
 9231TIP3    H149108   2.436   3.701   0.312 -0.4775 -0.8470 -0.1462
 9231TIP3    H249109   2.411   3.736   0.167 -1.1916 -2.1567 -0.3452
 9232TIP3   OH249110   3.595   3.898  13.982 -0.4169  0.1793 -0.0413
 9232TIP3    H149111   3.627   3.910  14.072 -0.7583  0.3844  0.0537
 9232TIP3    H249112   3.644   3.962  13.931  2.4370 -2.2694 -0.6600
 9233TIP3   OH249113   6.154   3.592   4.894  0.9995 -0.4653 -0.2877
 9233TIP3    H149114   6.081   3.561   4.947  2.0370 -1.1644  0.7930
 9233TIP3    H249115   6.153   3.536   4.817 -1.4779  1.5644 -1.8836
 9234TIP3   OH249116   3.237   2.144   6.700 -0.2197  0.0331  0.0385
 9234TIP3    H149117   3.263   2.067   6.649 -0.7817  0.5812 -1.1299
 9234TIP3    H249118   3.147   2.125   6.727  0.0493 -0.2215  0.7981
 9235TIP3   OH249119   3.002   1.946   2.811 -0.0854 -0.4177 -0.6346
 9235TIP3    H149120   2.974   2.037   2.823  1.9913  0.0851  0.9034
 9235TIP3    H249121   2.947   1.897   2.871 -0.1129  0.0560 -0.2643
 9236TIP3   OH249122   4.070   0.242  12.427 -0.1990  0.1093  0.1810
 9236TIP3    H149123   3.979   0.269  12.439 -0.0640  1.0998 -0.7862
 9236TIP3    H249124   4.112   0.319  12.389  0.7776 -0.7153 -0.4644
 9237TIP3   OH249125   5.123   5.790  11.711 -0.3256 -0.4586  0.2176
 9237TIP3    H149126   5.140   5.705  11.670 -0.8881 -1.4621  1.9672
 9237TIP3    H249127   5.206   5.811  11.755 -1.2746 -2.1261  3.1329
 9238TIP3   OH249128   6.168   1.056  15.800  0.6213  0.7357 -0.1097
 9238TIP3    H149129   6.207   1.099  15.877  2.4388 -0.2004 -0.4526
 9238TIP3    H249130   6.156   0.965  15.827 -0.2451  0.7536 -0.4186
 9239TIP3   OH249131   3.549   3.638   3.746 -0.0122 -0.4140 -0.0388
 9239TIP3    H149132   3.503   3.554   3.746  0.0421 -0.4524  0.7265
 9239TIP3    H249133   3.629   3.622   3.795  0.4866 -0.1616 -0.7451
 9240TIP3   OH249134   3.286   4.455  11.855  0.0449 -0.1958 -0.2751
 9240TIP3    H149135   3.259   4.547  11.859  0.3239 -0.1113 -0.3360
 9240TIP3    H249136   3.315   4.434  11.943 -1.7865 -0.7713  0.2310
 9241TIP3   OH249137   5.200   5.732   4.891  0.1981 -0.0122 -0.4553
 9241TIP3    H149138   5.223   5.802   4.830  1.7977  0.8998  1.0841
 9241TIP3    H249139   5.107   5.746   4.910  0.7363  2.5393  0.7578
 9242TIP3   OH249140   4.283   2.615  11.636 -0.1216  0.5290 -0.4387
 9242TIP3    H149141   4.205   2.598  11.583  0.2631  1.7537 -1.4745
 9242TIP3    H249142   4.257   2.595  11.726 -0.5092 -2.5857 -1.1256
 9243TIP3   OH249143   0.555   2.704   1.097 -0.5361  0.1834 -0.3735
 9243TIP3    H149144   0.535   2.796   1.117 -0.2590 -0.1475  1.5961
 9243TIP3    H249145   0.549   2.659   1.181  2.3292 -1.0583 -0.7135
 9244TIP3   OH249146   5.350   6.420   3.981  0.4365  0.0690 -0.1553
 9244TIP3    H149147   5.404   6.498   3.993  2.4419 -1.1695 -0.6974
 9244TIP3    H249148   5.327   6.393   4.070 -0.6402  1.4407  0.0350
 9245TIP3   OH249149   1.169   6.129   0.039 -0.2695 -0.2744  0.1682
 9245TIP3    H149150   1.114   6.180   0.098  0.0679 -1.8128  1.9461
 9245TIP3    H249151   1.162   6.039   0.073 -0.2028 -1.2881 -2.3043
 9246TIP3   OH249152   4.401   3.764  16.670  0.4885  0.0554 -0.2078
 9246TIP3    H149153   4.319   3.782  16.623  0.8463  2.8104  0.0651
 9246TIP3    H249154   4.419   3.672  16.650 -2.1073 -0.3703 -1.1241
 9247TIP3   OH249155   0.496   5.800   5.855 -0.4638 -0.3179 -0.0885
 9247TIP3    H149156   0.477   5.890   5.828  0.0886 -0.2185 -0.1575
 9247TIP3    H249157   0.580   5.780   5.813  0.2735 -0.2625  1.3128
 9248TIP3   OH249158   4.346   2.369   3.333 -0.4818  0.3499  0.2815
 9248TIP3    H149159   4.414   2.301   3.332 -2.1226 -1.3563 -0.6838
 9248TIP3    H249160   4.277   2.333   3.389 -2.5991 -0.1147 -2.4568
 9249TIP3   OH249161   0.547   1.236   0.861 -0.0943 -0.0375 -0.0303
 9249TIP3    H149162   0.472   1.185   0.831 -1.5813  0.8369  2.0104
 9249TIP3    H249163   0.545   1.316   0.808 -0.1552 -0.3135 -0.4513
 9250TIP3   OH249164   5.211   2.876  12.539 -0.5012 -0.0292  0.5420
 9250TIP3    H149165   5.264   2.888  12.460  2.2441  0.2601  2.2696
 9250TIP3    H249166   5.181   2.965  12.561  1.3746  0.4289  1.4504
 9251TIP3   OH249167   6.506   4.389   2.768  0.3456  0.2085 -1.0431
 9251TIP3    H149168   6.514   4.406   2.862  1.4466 -1.2046 -0.8474
 9251TIP3    H249169   6.572   4.447   2.728  1.7003 -1.0368 -0.6869
 9252TIP3   OH249170   3.542   3.251  13.862  0.2347  0.5318 -0.4551
 9252TIP3    H149171   3.496   3.217  13.938  0.1190  0.2642 -0.6410
 9252TIP3    H249172   3.498   3.210  13.787  2.0959 -1.4365 -0.5765
 9253TIP3   OH249173   4.251   5.989   2.683  0.2575 -0.2953 -0.2723
 9253TIP3    H149174   4.260   5.911   2.627  1.5852 -0.2532 -0.1403
 9253TIP3    H249175   4.236   6.061   2.622 -3.0767 -0.8630 -0.3254
 9254TIP3   OH249176   6.461   3.327  12.299  0.5309  0.0498 -0.4319
 9254TIP3    H149177   6.417   3.245  12.276  3.1617 -1.6279  0.0178
 9254TIP3    H249178   6.468   3.324  12.395  0.7330  0.7630 -0.4190
 9255TIP3   OH249179   6.699   1.829  11.880  0.3293 -0.0502 -0.0864
 9255TIP3    H149180   6.760   1.892  11.918 -0.0638 -0.2654  0.9454
 9255TIP3    H249181   6.653   1.879  11.812  3.3588 -0.5645 -2.7057
 9256TIP3   OH249182   0.731   5.347   5.115 -0.4213 -0.1039  0.0678
 9256TIP3    H149183   0.741   5.441   5.106  0.2781 -0.2624 -0.9672
 9256TIP3    H249184   0.800   5.310   5.059 -0.6302 -1.2212  0.5266
 9257TIP3   OH249185   5.227   3.980   3.792  0.5295  0.1186  0.3633
 9257TIP3    H149186   5.205   3.939   3.709  0.5275  1.2160 -0.2036
 9257TIP3    H249187   5.175   4.060   3.794 -1.7255 -1.2359  2.7623
 9258TIP3   OH249188   1.532   2.573  14.386 -0.2837 -0.0955  0.2122
 9258TIP3    H149189   1.469   2.639  14.415 -0.5913  0.1941 -1.0321
 9258TIP3    H249190   1.550   2.520  14.463 -2.3149 -0.4016  0.5214
 9259TIP3   OH249191   0.104   2.624  14.831 -0.1822  1.0182 -0.2014
 9259TIP3    H149192   0.081   2.658  14.917 -0.1433 -1.3557  0.8344
 9259TIP3    H249193   0.158   2.547  14.849  1.8802  1.7945 -2.4320
 9260TIP3   OH249194   1.149   5.889   6.466 -0.2466 -0.0887 -0.1269
 9260TIP3    H149195   1.183   5.948   6.533 -1.0925  0.5215 -0.2135
 9260TIP3    H249196   1.135   5.945   6.390 -0.5955 -0.4983 -0.3704
 9261TIP3   OH249197   5.288   4.700  15.315  0.1819  0.6290  0.2902
 9261TIP3    H149198   5.253   4.775  15.267 -1.0637  1.4579  2.3671
 9261TIP3    H249199   5.221   4.632  15.305  0.7431  0.1884 -0.5721
 9262TIP3   OH249200   0.057   4.641   5.595 -0.2182 -0.1882 -0.0344
 9262TIP3    H149201   0.024   4.659   5.683  0.7002  0.5605  0.1728
 9262TIP3    H249202   0.152   4.637   5.606 -0.0665  0.3228 -1.0633
 9263TIP3   OH249203   5.800   2.898  17.092  0.2502  0.5199  0.3264
 9263TIP3    H149204   5.714   2.905  17.052  0.6151  0.3244 -0.5207
 9263TIP3    H249205   5.815   2.983  17.134 -0.9971  0.0360  1.8603
 9264TIP3   OH249206   2.214   5.061   4.342  0.2271 -0.2740 -0.3040
 9264TIP3    H149207   2.217   5.000   4.269 -0.9568 -0.3357 -0.3188
 9264TIP3    H249208   2.306   5.080   4.361  0.5927 -1.3868 -0.8539
 9265TIP3   OH249209   1.717   6.599   3.726 -0.4157  0.4911 -0.0305
 9265TIP3    H149210   1.683   6.520   3.684  2.2064  0.3484 -2.0993
 9265TIP3    H249211   1.812   6.591   3.720  0.1127  1.6302  3.9813
 9266TIP3   OH249212   2.082   4.851   4.580 -0.2377  0.2630  0.0492
 9266TIP3    H149213   2.027   4.773   4.570 -1.1904  0.9863 -0.5704
 9266TIP3    H249214   2.047   4.913   4.516  2.8835 -0.1111 -2.2736
 9267TIP3   OH249215   5.675   0.730   2.684 -0.1497 -0.3890  0.1122
 9267TIP3    H149216   5.708   0.800   2.627 -0.0886 -1.4250 -1.1488
 9267TIP3    H249217   5.721   0.744   2.767  0.3850  0.6358 -0.3370
 9268TIP3   OH249218   4.980   4.914  15.549 -0.0102 -0.4414  0.0519
 9268TIP3    H149219   5.065   4.871  15.547  0.3561  0.2162  0.8864
 9268TIP3    H249220   4.918   4.844  15.570  0.3684 -0.8458 -0.1495
 9269TIP3   OH249221   0.940   3.787  16.462 -0.1129  0.7985  0.1086
 9269TIP3    H149222   0.894   3.715  16.421 -0.6954  1.3541 -0.2391
 9269TIP3    H249223   1.032   3.767  16.450 -0.2612 -0.0800  0.3684
 9270TIP3   OH249224   6.535   4.580  13.630 -0.2102  0.2029  0.0333
 9270TIP3    H149225   6.447   4.557  13.601 -0.4140  1.2701 -0.2298
 9270TIP3    H249226   6.593   4.521  13.580 -0.8128 -1.5285  1.2755
 9271TIP3   OH249227   4.292   3.335   4.170 -0.1955  0.0562  0.1113
 9271TIP3    H149228   4.322   3.270   4.234 -0.5229 -1.5829 -1.3321
 9271TIP3    H249229   4.371   3.379   4.140  0.2738 -1.0631 -0.3326
 9272TIP3   OH249230   1.426   4.500  14.796 -0.0921 -0.1224  0.4906
 9272TIP3    H149231   1.477   4.467  14.870  1.8429 -1.9171 -1.4954
 9272TIP3    H249232   1.387   4.582  14.828  1.7150 -0.1499  3.0442
 9273TIP3   OH249233   3.242   0.401  14.738 -0.1349 -0.1959  0.0386
 9273TIP3    H149234   3.164   0.403  14.683 -0.2293 -2.1995  0.0293
 9273TIP3    H249235   3.310   0.443  14.685 -0.2391 -2.0044 -1.6470
 9274TIP3   OH249236   2.642   4.125  12.082  0.1805  0.0828  0.1251
 9274TIP3    H149237   2.661   4.106  11.990  0.1719  0.8419 -0.0365
 9274TIP3    H249238   2.712   4.184  12.110 -0.1524  0.3368  0.4370
 9275TIP3   OH249239   4.372   0.931  14.195  0.4262 -0.8665  0.4411
 9275TIP3    H149240   4.281   0.924  14.224  0.5344 -1.9701  0.5601
 9275TIP3    H249241   4.414   0.987  14.261  0.1213 -1.3917  1.0918
 9276TIP3   OH249242   0.813   4.571   3.949 -0.4193 -0.7602 -0.5482
 9276TIP3    H149243   0.881   4.602   4.007 -1.1322 -1.6672  0.8145
 9276TIP3    H249244   0.848   4.584   3.861  0.6390  0.7215  0.0681
 9277TIP3   OH249245   4.717   5.251   1.280  0.6015  0.0579  0.3194
 9277TIP3    H149246   4.781   5.294   1.336 -0.1958  1.4094  0.2503
 9277TIP3    H249247   4.705   5.311   1.206 -1.5784  0.4489  0.9055
 9278TIP3   OH249248   3.736   4.109   4.734 -0.1960  0.1368  0.1447
 9278TIP3    H149249   3.765   4.113   4.825  0.7365  1.1246 -0.1683
 9278TIP3    H249250   3.754   4.019   4.707  0.0136 -0.0174  0.7738
 9279TIP3   OH249251   6.275   0.078   3.606 -0.5036 -0.3435 -0.3793
 9279TIP3    H149252   6.207   0.074   3.673 -0.2020 -0.2333 -0.0653
 9279TIP3    H249253   6.348   0.029   3.643 -0.3039 -0.2095 -0.5931
 9280TIP3   OH249254   3.993   1.114  13.982  0.2659 -0.1293 -0.1753
 9280TIP3    H149255   4.019   1.136  14.071  0.5311 -0.7670 -0.0885
 9280TIP3    H249256   4.075   1.097  13.936  0.0739 -1.0694 -0.1923
 9281TIP3   OH249257   6.106   1.021  14.507 -0.3698  0.1422 -0.6416
 9281TIP3    H149258   6.193   0.984  14.520 -0.5672  0.2208  1.1266
 9281TIP3    H249259   6.085   1.063  14.590 -0.5069  3.5683 -2.2729
 9282TIP3   OH249260   4.271   6.566   2.274  0.2558 -0.4453 -0.1248
 9282TIP3    H149261   4.219   6.644   2.292 -0.0154 -0.8576  0.9469
 9282TIP3    H249262   4.248   6.542   2.184  1.6781  1.7075 -1.1505
 9283TIP3   OH249263   3.264   5.905   0.587 -0.0454  0.4718 -0.2673
 9283TIP3    H149264   3.212   5.830   0.559  1.8559 -0.8038 -0.6359
 9283TIP3    H249265   3.265   5.964   0.512 -1.4382  0.8141 -0.0297
 9284TIP3   OH249266   2.484   1.280   6.184  0.0288  0.1077 -0.0611
 9284TIP3    H149267   2.540   1.256   6.258 -0.0369  1.7994  0.5601
 9284TIP3    H249268   2.407   1.320   6.224 -0.3416  0.3754 -1.0215
 9285TIP3   OH249269   1.395   4.095   2.381  0.1134 -0.0836 -0.3350
 9285TIP3    H149270   1.405   4.032   2.309  1.6824  0.7007 -0.8584
 9285TIP3    H249271   1.313   4.070   2.423  0.2475 -1.9296 -1.0477
 9286TIP3   OH249272   1.207   0.255  11.976 -0.2108  0.2016 -0.5979
 9286TIP3    H149273   1.203   0.332  12.033 -1.4919 -0.0305 -0.3528
 9286TIP3    H249274   1.117   0.242  11.947 -0.3800 -2.2802  0.8167
 9287TIP3   OH249275   3.092   0.378  16.329  0.9062  0.0411  0.1584
 9287TIP3    H149276   3.035   0.454  16.314  0.9252  0.2508  1.1101
 9287TIP3    H249277   3.176   0.404  16.292  0.2043 -0.5959 -2.0519
 9288TIP3   OH249278   0.598   3.658   1.966  0.5011  0.0871 -0.1210
 9288TIP3    H149279   0.651   3.618   2.035  0.5512  1.2915  0.5643
 9288TIP3    H249280   0.633   3.747   1.957  0.3515  0.0105 -1.5581
 9289TIP3   OH249281   6.459   3.391   3.694 -0.3369  0.8557 -0.1196
 9289TIP3    H149282   6.505   3.425   3.617  0.1659 -0.7826 -0.5728
 9289TIP3    H249283   6.519   3.327   3.732 -1.5555 -0.1212  0.2365
 9290TIP3   OH249284   2.711   3.622  14.438  0.1495  0.0157  0.5422
 9290TIP3    H149285   2.744   3.695  14.386 -1.9624  0.3562 -0.4291
 9290TIP3    H249286   2.631   3.656  14.480 -0.9823 -1.7464 -0.0737
 9291TIP3   OH249287   0.825   0.716   4.782 -0.6242  0.2293 -0.3168
 9291TIP3    H149288   0.733   0.744   4.776 -0.5101  0.3724 -1.7788
 9291TIP3    H249289   0.825   0.646   4.847 -1.4259  1.5862  1.2213
 9292TIP3   OH249290   3.340   4.635   1.697 -0.4194  0.2406  1.0224
 9292TIP3    H149291   3.359   4.542   1.706  0.7657  0.3721  0.2028
 9292TIP3    H249292   3.409   4.679   1.747 -0.2461  0.6923  0.4051
 9293TIP3   OH249293   3.118   2.861   4.280  0.5932  0.0224  0.0287
 9293TIP3    H149294   3.089   2.869   4.371  0.5734 -1.0786  0.1253
 9293TIP3    H249295   3.199   2.809   4.286 -0.2390 -1.3932 -0.7178
 9294TIP3   OH249296   6.069   0.850   1.998  0.5955  0.0995  0.0681
 9294TIP3    H149297   6.126   0.820   2.069  1.5361  1.5597 -0.0310
 9294TIP3    H249298   6.014   0.917   2.038  1.5123  1.3357 -0.6584
 9295TIP3   OH249299   0.471   5.875  13.238 -0.2796 -0.5884  0.3842
 9295TIP3    H149300   0.454   5.955  13.188 -3.4063 -0.7034  1.0539
 9295TIP3    H249301   0.470   5.805  13.172 -2.9028 -0.5729  0.2943
 9296TIP3   OH249302   1.316   0.679   5.984  0.5354 -0.4021  0.5413
 9296TIP3    H149303   1.242   0.628   5.952 -1.6958  2.8211  0.1742
 9296TIP3    H249304   1.299   0.690   6.078  0.8161 -0.0753  0.5567
 9297TIP3   OH249305   5.604   5.879  11.368  0.1240  0.4563 -0.4033
 9297TIP3    H149306   5.691   5.839  11.361  0.4816  0.5037  2.4698
 9297TIP3    H249307   5.621   5.970  11.391 -0.7034  0.7459 -0.9137
 9298TIP3   OH249308   3.202   6.734  12.005  0.6698 -0.2537 -0.1508
 9298TIP3    H149309   3.237   6.646  12.016  0.6880 -0.2298 -0.0123
 9298TIP3    H249310   3.232   6.762  11.919  0.1450 -0.6252 -0.4636
 9299TIP3   OH249311   1.932   0.056  11.581 -0.3246 -0.1688 -0.0540
 9299TIP3    H149312   1.952   0.096  11.496  0.8533  0.0676  0.3053
 9299TIP3    H249313   1.844   0.087  11.603 -0.9065 -0.7539 -1.4726
 9300TIP3   OH249314   2.365   2.295   3.746 -0.7617  0.3851  0.1785
 9300TIP3    H149315   2.321   2.218   3.711 -0.6844 -0.3610  1.6472
 9300TIP3    H249316   2.372   2.278   3.840 -0.6026  2.1172  0.5166
 9301TIP3   OH249317   0.287   2.735  11.359  0.0248 -0.0443  0.1821
 9301TIP3    H149318   0.243   2.752  11.442  1.7039  1.2242  0.8547
 9301TIP3    H249319   0.367   2.690  11.383 -0.4532 -1.5945 -0.9675
 9302TIP3   OH249320   2.862   3.511  11.254  0.0692 -0.1127 -0.3032
 9302TIP3    H149321   2.865   3.582  11.318 -2.0351  0.4296 -0.7149
 9302TIP3    H249322   2.953   3.484  11.244  0.4967 -0.5131  3.1908
 9303TIP3   OH249323   4.946   3.508  16.323  0.1392 -0.1656 -0.3014
 9303TIP3    H149324   4.871   3.516  16.383  0.6042 -0.8822  0.3945
 9303TIP3    H249325   4.926   3.430  16.271  1.6877 -2.0510  1.8035
 9304TIP3   OH249326   0.815   5.319  13.677 -0.0160 -0.6296 -0.3309
 9304TIP3    H149327   0.767   5.331  13.760 -1.0816 -0.2998 -0.9739
 9304TIP3    H249328   0.875   5.247  13.694  1.1396  0.6337  1.3162
 9305TIP3   OH249329   1.081   0.338  13.248  0.7201  0.2017  0.0743
 9305TIP3    H149330   1.171   0.314  13.226  0.5583  0.7080 -1.2895
 9305TIP3    H249331   1.071   0.426  13.213 -0.3284  0.1169  0.1285
 9306TIP3   OH249332   0.427   6.156   6.300 -0.7324  0.5347 -0.2216
 9306TIP3    H149333   0.432   6.118   6.387 -0.2893  2.4823  0.6587
 9306TIP3    H249334   0.340   6.194   6.295 -1.1291 -0.4224 -1.0453
 9307TIP3   OH249335   4.080   5.696   2.766  0.4129 -0.9897  0.1677
 9307TIP3    H149336   4.033   5.643   2.702  3.5992 -1.2960 -2.1119
 9307TIP3    H249337   4.074   5.646   2.848 -3.6090 -0.6569  0.2793
 9308TIP3   OH249338   0.117   0.041   4.396 -0.3720  0.0626 -0.4156
 9308TIP3    H149339   0.193   0.086   4.432 -1.5951  1.2225  0.8398
 9308TIP3    H249340   0.088   0.095   4.323 -0.6986  0.2693 -0.1339
 9309TIP3   OH249341   1.863   2.608   0.817  0.3833  0.1531 -0.1766
 9309TIP3    H149342   1.889   2.694   0.852  2.4508 -0.5367  0.1171
 9309TIP3    H249343   1.802   2.629   0.746  1.0781  1.8990 -0.3206
 9310TIP3   OH249344   6.301   0.832   2.563  0.0983 -0.4037  0.9269
 9310TIP3    H149345   6.306   0.761   2.499 -1.4921 -0.0502  0.3579
 9310TIP3    H249346   6.209   0.833   2.590  0.3034  0.8002  1.6581
 9311TIP3   OH249347   6.640   3.864   3.367 -0.7627 -0.5872  0.1050
 9311TIP3    H149348   6.624   3.852   3.274  2.3137 -1.1220 -0.4547
 9311TIP3    H249349   6.717   3.921   3.371 -0.1708 -1.4321  2.2676
 9312TIP3   OH249350   5.586   6.782   1.283 -0.0030  0.0924 -0.0434
 9312TIP3    H149351   5.528   6.757   1.211 -0.3185 -0.8290  0.5104
 9312TIP3    H249352   5.625   6.864   1.255  0.0112 -0.3396 -1.3337
 9313TIP3   OH249353   4.156   2.991   1.544  0.0222 -0.5421 -0.2178
 9313TIP3    H149354   4.201   2.992   1.460  1.7694 -0.8413  0.6787
 9313TIP3    H249355   4.191   3.066   1.592 -1.1163 -0.2381  0.1846
 9314TIP3   OH249356   1.524   6.771   0.173  0.8612  0.6435  0.7220
 9314TIP3    H149357   1.542   6.717   0.250  0.0171  1.3923  1.4680
 9314TIP3    H249358   1.602   6.759   0.117  0.0989 -2.5201  0.1088
 9315TIP3   OH249359   5.669   3.769   5.011 -0.4093  0.3935  0.0743
 9315TIP3    H149360   5.750   3.751   4.964 -0.4017 -0.1406  0.2824
 9315TIP3    H249361   5.657   3.864   5.004 -0.3856  0.3322 -0.9582
 9316TIP3   OH249362   3.753   2.181   0.148  0.1615  0.2989  0.3177
 9316TIP3    H149363   3.674   2.139   0.184  0.4775  0.7417  1.5699
 9316TIP3    H249364   3.738   2.183   0.053 -1.6937  1.0857  0.5862
 9317TIP3   OH249365   4.972   5.472   0.841  0.6163 -0.0924 -0.4553
 9317TIP3    H149366   5.001   5.430   0.760 -0.0171 -0.2335 -0.6119
 9317TIP3    H249367   5.023   5.429   0.909  2.2768  1.0677 -0.8981
 9318TIP3   OH249368   4.068   2.149   6.648  0.6060 -0.8775  0.1301
 9318TIP3    H149369   4.152   2.119   6.681  1.6302 -0.6182 -2.0414
 9318TIP3    H249370   4.089   2.227   6.597 -1.5092  1.5292  2.6161
 9319TIP3   OH249371   4.578   5.298  12.609  0.1039 -0.1143 -0.0051
 9319TIP3    H149372   4.616   5.385  12.599 -0.9513  0.5362  1.1703
 9319TIP3    H249373   4.645   5.238  12.578  0.5024  1.1513 -1.7388
 9320TIP3   OH249374   4.761   5.091   5.636  0.8510  0.2727 -0.2015
 9320TIP3    H149375   4.666   5.093   5.644  0.6892 -0.1327 -1.7269
 9320TIP3    H249376   4.787   5.010   5.681  0.5117  0.5158  0.4441
 9321TIP3   OH249377   2.433   1.567  12.327  0.3242 -0.0441 -0.4269
 9321TIP3    H149378   2.426   1.644  12.270  0.4393 -0.3996 -0.9270
 9321TIP3    H249379   2.344   1.553  12.359  0.2775  0.2227 -0.4330
 9322TIP3   OH249380   6.459   6.516  15.614  0.3127 -0.4546 -0.6717
 9322TIP3    H149381   6.404   6.521  15.692 -0.1148  2.6130 -1.0553
 9322TIP3    H249382   6.545   6.547  15.643  0.9878 -2.0670 -0.8286
 9323TIP3   OH249383   2.784   3.547  13.408 -0.3065  0.1672 -0.1280
 9323TIP3    H149384   2.853   3.611  13.394 -0.2112 -0.1300 -1.1386
 9323TIP3    H249385   2.741   3.539  13.322 -0.1259 -1.3224 -0.1149
 9324TIP3   OH249386   4.506   5.946  13.866  0.0580  0.2593  0.0758
 9324TIP3    H149387   4.547   5.911  13.945 -2.3382 -0.6279  1.0186
 9324TIP3    H249388   4.551   5.902  13.794 -0.9557 -2.7858  1.1274
 9325TIP3   OH249389   1.465   1.108   2.649  0.1189  0.0291 -0.2976
 9325TIP3    H149390   1.462   1.174   2.718 -1.8504 -0.7871  0.4734
 9325TIP3    H249391   1.551   1.067   2.659  0.2802  0.6190  1.0064
 9326TIP3   OH249392   2.877   3.270   0.206 -0.3518  0.0836 -0.0512
 9326TIP3    H149393   2.842   3.325   0.276 -0.7699  1.3152 -1.1973
 9326TIP3    H249394   2.801   3.249   0.152 -0.0699 -1.0561 -0.0356
 9327TIP3   OH249395   5.071   2.911  12.064 -0.3129  0.1789  0.2397
 9327TIP3    H149396   4.989   2.865  12.046 -0.5308  0.4716  0.4779
 9327TIP3    H249397   5.052   2.967  12.138  0.4659 -0.6930  1.1321
 9328TIP3   OH249398   0.666   2.335   1.923  0.9614 -0.5369 -0.5875
 9328TIP3    H149399   0.698   2.260   1.973  0.7447  0.2789  0.8218
 9328TIP3    H249400   0.575   2.345   1.950  0.5838 -0.5892 -1.7965
 9329TIP3   OH249401   5.181   0.052   0.982  0.1777 -0.1005  0.2302
 9329TIP3    H149402   5.128   0.128   0.956  0.3489  0.0721  0.3824
 9329TIP3    H249403   5.123   0.001   1.038  0.2523  0.2223  0.6100
 9330TIP3   OH249404   5.722   4.537   4.829  0.3982  0.6500  0.3871
 9330TIP3    H149405   5.628   4.546   4.842  0.1375 -0.9945 -0.0425
 9330TIP3    H249406   5.753   4.492   4.908  0.7035  0.5930  0.2381
 9331TIP3   OH249407   2.146   3.839   0.501 -0.7745  0.5027 -0.0713
 9331TIP3    H149408   2.083   3.852   0.572  0.1132  0.7259  0.6878
 9331TIP3    H249409   2.130   3.913   0.442  0.9018  2.4441  1.7312
 9332TIP3   OH249410   3.671   3.191  10.168 -0.3930 -0.2369 -0.4165
 9332TIP3    H149411   3.737   3.259  10.158 -0.6662  0.0515 -0.2581
 9332TIP3    H249412   3.719   3.118  10.208 -0.4876  0.4954  1.1180
 9333TIP3   OH249413   4.848   5.065  13.500  0.0816  0.0470 -0.2063
 9333TIP3    H149414   4.823   5.066  13.593 -1.3432  1.2388 -0.5640
 9333TIP3    H249415   4.808   4.987  13.465  1.4683 -0.9655  0.3574
 9334TIP3   OH249416   0.984   6.259   5.451  0.6901 -0.1613  0.2714
 9334TIP3    H149417   1.015   6.325   5.389  0.7353  0.4651  0.9478
 9334TIP3    H249418   0.891   6.248   5.430  1.0474 -1.1290 -0.9424
 9335TIP3   OH249419   3.304   3.448  12.417 -0.3522  0.4138  0.9017
 9335TIP3    H149420   3.336   3.536  12.440 -1.5161  0.6961  1.5215
 9335TIP3    H249421   3.225   3.437  12.470 -1.7205  0.0446 -1.0992
 9336TIP3   OH249422   5.290   6.452   5.844 -0.0052 -0.1587 -0.3111
 9336TIP3    H149423   5.222   6.497   5.894  0.5373  0.0961  0.2129
 9336TIP3    H249424   5.362   6.516   5.839  0.8952 -1.0592  0.6985
 9337TIP3   OH249425   2.073   4.782  15.393  0.5761 -0.3633 -0.0067
 9337TIP3    H149426   2.035   4.789  15.481  1.8139 -0.4923  0.5538
 9337TIP3    H249427   2.034   4.854  15.345 -0.6766 -0.7176  0.4274
 9338TIP3   OH249428   1.569   1.501   2.576  0.0846  0.3570 -0.6129
 9338TIP3    H149429   1.476   1.481   2.568  0.2359 -0.8567  0.4126
 9338TIP3    H249430   1.602   1.498   2.486 -0.7504  0.2655 -0.9250
 9339TIP3   OH249431   3.739   2.149  14.755  0.3751  0.5860  0.5519
 9339TIP3    H149432   3.712   2.085  14.689  0.6928  2.4300 -1.4808
 9339TIP3    H249433   3.657   2.185  14.788  0.2087  1.4328 -0.7178
 9340TIP3   OH249434   4.688   4.028   4.517  0.7131  0.2428 -0.2400
 9340TIP3    H149435   4.655   4.082   4.589  2.3738 -1.3037  1.8263
 9340TIP3    H249436   4.762   4.077   4.482  0.2660  0.7279 -0.5275
 9341TIP3   OH249437   6.783   5.312  11.037 -0.2466  0.2062 -0.3111
 9341TIP3    H149438   6.854   5.365  11.003  0.3284 -0.5893 -0.3683
 9341TIP3    H249439   6.703   5.359  11.010  0.2388  1.2889  0.0557
 9342TIP3   OH249440   2.652   3.435   3.502 -0.4000  0.1434  0.1191
 9342TIP3    H149441   2.745   3.434   3.527 -0.6386  2.4070  1.4353
 9342TIP3    H249442   2.639   3.521   3.462 -1.8469 -0.3322 -0.5180
 9343TIP3   OH249443   5.180   2.064   0.527  0.4817 -0.1164 -0.1315
 9343TIP3    H149444   5.232   2.023   0.458  0.0599 -0.2422 -0.3806
 9343TIP3    H249445   5.194   2.158   0.515  1.9436 -0.1794  0.8269
 9344TIP3   OH249446   2.337   6.101   0.787 -0.3209 -0.1299  0.0783
 9344TIP3    H149447   2.331   6.140   0.700 -0.5215 -1.5540 -0.5867
 9344TIP3    H249448   2.246   6.085   0.813 -0.2513  0.0293  0.4214
 9345TIP3   OH249449   2.986   0.148  12.973  0.4357  0.2513  0.0618
 9345TIP3    H149450   2.894   0.166  12.952  0.6338  1.1136 -0.1331
 9345TIP3    H249451   3.002   0.196  13.054  0.6160 -0.2046  0.2992
 9346TIP3   OH249452   5.039   6.358  16.114  0.7254  0.0361 -0.0171
 9346TIP3    H149453   4.996   6.273  16.108 -0.8150  0.8142 -0.6258
 9346TIP3    H249454   5.089   6.366  16.033  0.4955 -0.1051 -0.1731
 9347TIP3   OH249455   2.386   5.316  17.044  0.2189  0.0929 -0.2747
 9347TIP3    H149456   2.480   5.300  17.045  0.1370 -0.4238 -0.3475
 9347TIP3    H249457   2.364   5.336  17.135  0.3118 -0.3457 -0.1521
 9348TIP3   OH249458   5.095   3.366  14.318 -0.2904  0.0563 -0.5229
 9348TIP3    H149459   5.015   3.417  14.303  0.6626  1.8005  0.0528
 9348TIP3    H249460   5.134   3.405  14.396  0.7523 -1.2608 -0.3487
 9349TIP3   OH249461   4.283   1.523   6.063  0.0770  0.7664 -0.2522
 9349TIP3    H149462   4.272   1.552   6.154 -0.2850 -2.3018  0.8016
 9349TIP3    H249463   4.195   1.527   6.026  0.1109  1.3851 -0.2816
 9350TIP3   OH249464   5.138   6.467   3.824 -0.6401  0.1197  0.5779
 9350TIP3    H149465   5.197   6.446   3.896  1.3054  0.9474 -0.6846
 9350TIP3    H249466   5.120   6.383   3.782  1.0128  0.0255 -0.0003
 9351TIP3   OH249467   0.200   5.258  17.176  0.4939 -0.3396  0.1577
 9351TIP3    H149468   0.246   5.174  17.169 -0.5988 -1.2710  2.8210
 9351TIP3    H249469   0.267   5.318  17.209  0.5268 -0.9770  1.2953
 9352TIP3   OH249470   4.561   2.531  13.391 -0.3860  0.0393  0.2040
 9352TIP3    H149471   4.577   2.484  13.473 -0.5503 -0.6024 -0.1231
 9352TIP3    H249472   4.503   2.474  13.342  2.8544 -1.6309 -2.1001
 9353TIP3   OH249473   1.556   5.034  15.955 -0.2125 -0.0742  0.5522
 9353TIP3    H149474   1.563   4.939  15.947  0.3894  0.0140 -0.0087
 9353TIP3    H249475   1.642   5.061  15.988 -1.4625 -0.0688  4.3308
 9354TIP3   OH249476   6.470   1.266  13.602  0.0670  0.1368 -0.1975
 9354TIP3    H149477   6.486   1.359  13.582  0.4111  0.0999 -0.0879
 9354TIP3    H249478   6.497   1.256  13.693 -1.9988  0.4353  0.5055
 9355TIP3   OH249479   6.358   1.439   4.073  0.1822  0.9353 -0.3489
 9355TIP3    H149480   6.409   1.379   4.018  0.7346  1.2201 -0.1475
 9355TIP3    H249481   6.280   1.459   4.020 -1.2566 -1.8732  0.5156
 9356TIP3   OH249482   5.190   6.207   0.921 -0.2966  0.3152  0.2360
 9356TIP3    H149483   5.133   6.238   0.991  1.1553  0.8299  1.2373
 9356TIP3    H249484   5.244   6.283   0.898 -0.7563  0.1689 -1.4880
 9357TIP3   OH249485   1.465   3.598   0.619  0.0383  0.1128  0.0278
 9357TIP3    H149486   1.545   3.552   0.644 -0.4095 -0.4240  0.4811
 9357TIP3    H249487   1.417   3.610   0.701 -0.4557  0.2244 -0.2748
 9358TIP3   OH249488   6.715   4.074  11.497  0.2720 -0.1789  0.3189
 9358TIP3    H149489   6.737   4.087  11.589 -0.5956 -1.3060  0.7086
 9358TIP3    H249490   6.708   3.979  11.487  0.7715 -0.1050 -1.0220
 9359TIP3   OH249491   2.587   5.705   2.987  0.3100 -0.3533  0.1625
 9359TIP3    H149492   2.562   5.795   2.966  1.6803 -0.5681 -2.8470
 9359TIP3    H249493   2.672   5.714   3.031  1.1186 -0.1590 -1.3601
 9360TIP3   OH249494   2.787   3.220   3.809  0.0629 -0.0298  0.2535
 9360TIP3    H149495   2.849   3.279   3.852  0.5796 -1.3017  1.3524
 9360TIP3    H249496   2.823   3.206   3.722  2.2049 -1.8908  1.3367
 9361TIP3   OH249497   2.980   0.411  15.916 -0.7463  0.3577 -0.5387
 9361TIP3    H149498   2.908   0.421  15.978 -0.3033  0.7368 -0.0741
 9361TIP3    H249499   2.965   0.480  15.851 -1.4977 -0.3687 -1.1496
 9362TIP3   OH249500   3.939   0.201  13.609 -0.4331  0.4979 -0.1244
 9362TIP3    H149501   3.869   0.145  13.575 -0.4372 -1.1138  2.3128
 9362TIP3    H249502   4.014   0.142  13.618  0.5613  1.6688 -0.5232
 9363TIP3   OH249503   6.410   1.738   3.934 -0.4504  1.0519 -0.3838
 9363TIP3    H149504   6.402   1.673   3.865 -0.1079  1.2156 -0.5799
 9363TIP3    H249505   6.490   1.713   3.981 -1.2498  0.2986  0.6367
 9364TIP3   OH249506   3.419   1.695   5.600 -0.1432  0.2875 -0.8673
 9364TIP3    H149507   3.328   1.716   5.619 -0.2366  0.3751 -1.4045
 9364TIP3    H249508   3.415   1.646   5.518  0.1053 -1.4044  0.0835
 9365TIP3   OH249509   5.670   5.033  11.888 -0.2499 -0.7607 -0.0882
 9365TIP3    H149510   5.713   4.956  11.852 -1.0352 -0.9984 -0.5451
 9365TIP3    H249511   5.608   4.998  11.953 -0.1814 -0.4705  0.1391
 9366TIP3   OH249512   2.233   2.059  11.332  0.1701  0.2724 -0.5312
 9366TIP3    H149513   2.278   1.974  11.336 -1.9091 -0.9220 -0.8135
 9366TIP3    H249514   2.269   2.109  11.405  0.2227 -1.5094  0.7314
 9367TIP3   OH249515   1.019   6.169   0.994 -0.2274  0.4499  0.2458
 9367TIP3    H149516   0.942   6.121   0.962 -1.1311  2.2709 -0.5059
 9367TIP3    H249517   1.075   6.102   1.032 -1.6349 -1.1122 -0.2807
 9368TIP3   OH249518   1.719   4.273   5.549  0.1605 -0.2267 -0.1187
 9368TIP3    H149519   1.780   4.295   5.619  1.4752 -2.0892 -0.5920
 9368TIP3    H249520   1.653   4.218   5.592  0.1345 -0.1348 -0.0422
 9369TIP3   OH249521   0.660   0.022   1.356 -0.2665 -0.1942 -0.3008
 9369TIP3    H149522   0.603   0.086   1.315  0.8195  0.6942 -0.4677
 9369TIP3    H249523   0.748   0.057   1.345  0.3006 -1.3917  0.1930
 9370TIP3   OH249524   4.883   1.990   1.106 -0.3554  0.3119  0.2282
 9370TIP3    H149525   4.811   1.978   1.043  0.0198  1.2694 -0.4117
 9370TIP3    H249526   4.942   1.917   1.088  0.2617  1.1367 -1.2923
 9371TIP3   OH249527   1.507   3.139   2.453 -0.2036 -0.0635  0.4660
 9371TIP3    H149528   1.494   3.173   2.365  0.4066  0.2642  0.4978
 9371TIP3    H249529   1.509   3.044   2.443  0.8267 -0.0001 -0.0078
 9372TIP3   OH249530   5.648   3.458  17.007 -0.1675  0.2972  0.4204
 9372TIP3    H149531   5.713   3.400  16.967  0.0427  1.1942 -0.5941
 9372TIP3    H249532   5.698   3.516  17.064 -0.4764 -1.0305  2.1228
 9373TIP3   OH249533   3.682   3.202   3.582 -0.0144 -0.0265 -1.0730
 9373TIP3    H149534   3.679   3.153   3.499  1.6107 -0.8367 -0.7058
 9373TIP3    H249535   3.759   3.167   3.627 -2.1117 -1.3294  1.8665
 9374TIP3   OH249536   6.639   5.546  11.150 -0.3570 -0.7399 -0.6129
 9374TIP3    H149537   6.607   5.493  11.077 -1.4377  0.5193 -1.1069
 9374TIP3    H249538   6.577   5.619  11.155  0.4599 -0.0987  0.7266
 9375TIP3   OH249539   1.745   2.608   4.521 -0.3646 -0.3298 -0.2170
 9375TIP3    H149540   1.778   2.601   4.610  0.5579  0.0465 -0.5111
 9375TIP3    H249541   1.823   2.626   4.468 -0.7487 -1.5142 -1.2342
 9376TIP3   OH249542   5.604   3.480   3.038  0.2774 -0.6140  0.3678
 9376TIP3    H149543   5.545   3.439   2.975  0.3372  0.6301 -0.5314
 9376TIP3    H249544   5.550   3.496   3.115 -0.6495  0.7045 -0.5243
 9377TIP3   OH249545   0.574   2.195  14.664  0.4891  0.0330 -0.2131
 9377TIP3    H149546   0.634   2.122  14.673 -0.1372 -0.3233  1.4067
 9377TIP3    H249547   0.582   2.223  14.573  1.8236 -1.0953 -0.4527
 9378TIP3   OH249548   3.312   5.346   0.392  0.1957 -0.1182 -0.1591
 9378TIP3    H149549   3.399   5.342   0.431  0.7176 -0.2866 -1.2726
 9378TIP3    H249550   3.293   5.439   0.384  0.6958 -0.0570 -0.7601
 9379TIP3   OH249551   4.396   3.077  11.361 -0.0606 -0.1794 -0.3609
 9379TIP3    H149552   4.341   3.055  11.286  1.2382 -1.9355 -0.8833
 9379TIP3    H249553   4.372   3.013  11.429 -0.0414  0.3064  0.1101
 9380TIP3   OH249554   1.654   1.868   5.009 -0.0466 -0.3221  0.3438
 9380TIP3    H149555   1.707   1.917   5.072 -0.7294  0.8087  0.0819
 9380TIP3    H249556   1.658   1.777   5.038  0.6424  0.0005  1.2968
 9381TIP3   OH249557   1.533   3.728  12.035  0.1264  0.0062  0.1905
 9381TIP3    H149558   1.624   3.745  12.010  0.3130 -2.3247 -1.0216
 9381TIP3    H249559   1.535   3.642  12.076 -1.4308  0.2801  0.9238
 9382TIP3   OH249560   1.446   2.177  10.590  0.0888  0.5094 -0.3609
 9382TIP3    H149561   1.499   2.206  10.664  0.7153 -1.7874  0.1907
 9382TIP3    H249562   1.508   2.130  10.534 -1.0354 -0.8867 -0.4909
 9383TIP3   OH249563   1.298   2.331   1.015 -0.0809  0.1842 -0.4399
 9383TIP3    H149564   1.254   2.416   1.010  1.4253  1.2848  2.4837
 9383TIP3    H249565   1.229   2.271   1.046 -0.2181  1.3633  1.7463
 9384TIP3   OH249566   4.222   0.350  15.064  0.1933 -0.0295 -0.5400
 9384TIP3    H149567   4.267   0.409  15.003 -1.2166 -0.3362 -1.9330
 9384TIP3    H249568   4.129   0.365  15.047 -0.2130 -2.3764 -0.6725
 9385TIP3   OH249569   2.868   0.449   3.641 -0.6194 -0.6238  0.1540
 9385TIP3    H149570   2.801   0.459   3.573  0.1903  0.0963 -0.5747
 9385TIP3    H249571   2.942   0.408   3.596 -0.4582 -1.1501  0.8752
 9386TIP3   OH249572   3.044   4.345  12.580  0.0492 -0.3157  0.5496
 9386TIP3    H149573   3.035   4.249  12.573 -0.8900 -0.3528  1.8504
 9386TIP3    H249574   2.961   4.373  12.618  1.1468  0.7776  2.2386
 9387TIP3   OH249575   3.505   4.667  12.655 -0.3030  0.4431 -0.2932
 9387TIP3    H149576   3.540   4.613  12.726 -1.1622  1.3369  0.8675
 9387TIP3    H249577   3.578   4.678  12.594  1.1504  1.4156  1.5187
 9388TIP3   OH249578   5.035   1.148   2.707  0.0287 -0.0863 -0.1131
 9388TIP3    H149579   5.116   1.165   2.660  0.9859 -1.3123  0.9878
 9388TIP3    H249580   4.984   1.092   2.648  0.7096 -0.6676 -0.1582
 9389TIP3   OH249581   4.693   1.601  16.123  0.3706 -0.2366 -0.4297
 9389TIP3    H149582   4.621   1.563  16.073 -1.5740  1.3630  0.9682
 9389TIP3    H249583   4.709   1.686  16.081 -2.2674  1.7926  2.2196
 9390TIP3   OH249584   6.457   5.745   0.941 -0.0445  0.2963 -0.8058
 9390TIP3    H149585   6.549   5.716   0.940 -0.2721 -0.4783 -0.2167
 9390TIP3    H249586   6.406   5.665   0.932 -0.6851  0.4773  0.8394
 9391TIP3   OH249587   3.545   3.307  12.864  0.0525 -0.3014 -0.1849
 9391TIP3    H149588   3.603   3.244  12.822  3.3587  1.0879  1.8349
 9391TIP3    H249589   3.567   3.391  12.824 -2.8513 -0.0289 -1.4458
 9392TIP3   OH249590   6.217   2.071  11.617 -0.2653 -0.2611 -0.2747
 9392TIP3    H149591   6.156   2.142  11.599 -0.9018 -0.8526 -0.4851
 9392TIP3    H249592   6.162   1.999  11.646  0.4713 -0.2874  1.1524
 9393TIP3   OH249593   1.989   0.025  14.771 -0.3526  0.2350  0.3848
 9393TIP3    H149594   1.899   0.056  14.760 -1.0387 -1.6467  0.3451
 9393TIP3    H249595   2.032   0.049  14.689 -0.4923  2.0626  0.8009
 9394TIP3   OH249596   2.690   0.199   1.788  0.0410 -0.2833 -0.4348
 9394TIP3    H149597   2.674   0.286   1.826  0.9089  0.0060 -0.7082
 9394TIP3    H249598   2.704   0.142   1.864  1.5182  0.2387 -0.2840
 9395TIP3   OH249599   5.276   0.344  11.535  0.1474  0.2156 -0.0440
 9395TIP3    H149600   5.272   0.280  11.605  0.7826  1.1035  0.8400
 9395TIP3    H249601   5.185   0.356  11.508 -0.2374  0.5927  1.3285
 9396TIP3   OH249602   6.720   6.014   4.951 -0.7230 -0.1482  0.1075
 9396TIP3    H149603   6.684   6.054   4.872 -0.9133  0.5319  0.5355
 9396TIP3    H249604   6.659   5.943   4.971 -2.5584  1.6870  1.4727
 9397TIP3   OH249605   2.500   0.854  12.559  0.0118 -0.6661  0.3653
 9397TIP3    H149606   2.414   0.894  12.562 -0.0340 -0.7973  0.9334
 9397TIP3    H249607   2.520   0.845  12.465  0.3607  1.4067  0.1980
 9398TIP3   OH249608   0.525   6.588   0.720 -0.2952 -0.1324  0.3974
 9398TIP3    H149609   0.517   6.525   0.792  1.5220 -1.8685 -0.8018
 9398TIP3    H249610   0.451   6.568   0.662  0.4021 -1.4588 -0.1057
 9399TIP3   OH249611   0.777   0.200   1.825 -0.2832  0.3939 -0.5886
 9399TIP3    H149612   0.682   0.214   1.821 -0.4551 -0.4330  0.2530
 9399TIP3    H249613   0.796   0.144   1.749 -0.7905 -1.0220  0.2892
 9400TIP3   OH249614   3.187   3.321  11.514 -0.1863 -0.5538  1.0730
 9400TIP3    H149615   3.103   3.334  11.558 -0.3226 -1.1335  0.9869
 9400TIP3    H249616   3.239   3.398  11.538 -1.1324  0.3811  0.1894
 9401TIP3   OH249617   1.532   2.900  16.157 -0.3579  0.0363 -0.3864
 9401TIP3    H149618   1.504   2.937  16.073 -0.5632  1.3509  0.2384
 9401TIP3    H249619   1.554   2.976  16.211 -1.5089 -0.6778  1.1955
 9402TIP3   OH249620   0.798   5.005  13.075 -0.1577  0.0380 -0.2567
 9402TIP3    H149621   0.745   4.928  13.056 -3.4489  2.1014 -0.1547
 9402TIP3    H249622   0.832   5.033  12.990  1.3280 -1.5752 -0.2554
 9403TIP3   OH249623   4.961   1.821  13.725 -0.0478 -0.2299 -0.2368
 9403TIP3    H149624   5.052   1.842  13.707 -0.6035  1.3247 -1.5677
 9403TIP3    H249625   4.957   1.809  13.820  1.3057  0.9286 -0.0035
 9404TIP3   OH249626   6.601   5.948  16.224 -0.1452  0.3656  0.8383
 9404TIP3    H149627   6.541   6.018  16.250  1.2007  1.6517  0.6500
 9404TIP3    H249628   6.600   5.950  16.128  2.0564  2.1650  0.7752
 9405TIP3   OH249629   4.640   1.986   4.866 -0.9062 -0.1604 -0.0232
 9405TIP3    H149630   4.654   1.909   4.922  0.1558  0.7729  1.0495
 9405TIP3    H249631   4.594   1.952   4.789 -3.3730 -1.3469  1.8337
 9406TIP3   OH249632   4.935   0.379  15.642 -0.6021  0.2324  0.4519
 9406TIP3    H149633   4.950   0.422  15.726  1.7100 -1.1399  0.8332
 9406TIP3    H249634   4.884   0.300  15.663 -2.1515  1.1231  0.1780
 9407TIP3   OH249635   3.888   5.906   3.141  0.5891 -0.0512 -0.1492
 9407TIP3    H149636   3.974   5.888   3.104  0.9236  0.3708  0.4130
 9407TIP3    H249637   3.836   5.936   3.067  0.2151 -2.5256 -0.9935
 9408TIP3   OH249638   1.105   3.531  12.949  0.1714 -0.5319  0.4469
 9408TIP3    H149639   1.087   3.437  12.961  0.6049 -0.8012 -0.7808
 9408TIP3    H249640   1.030   3.575  12.988  0.0475 -1.3872  1.2142
 9409TIP3   OH249641   1.798   3.874   3.155 -0.2163  0.0528  0.0951
 9409TIP3    H149642   1.754   3.853   3.238 -0.3345  1.0619  0.3106
 9409TIP3    H249643   1.730   3.915   3.102  0.3184  1.2107  0.2591
 9410TIP3   OH249644   0.014   1.236  15.993  0.5427  0.2465  0.2073
 9410TIP3    H149645  -0.042   1.241  15.915  0.7848  1.6060  0.0959
 9410TIP3    H249646   0.007   1.323  16.033  2.6973  0.5217  0.0980
 9411TIP3   OH249647   5.171   6.015  13.431 -0.2190 -0.5102 -0.5969
 9411TIP3    H149648   5.129   6.098  13.454 -0.1349 -0.2939 -1.1970
 9411TIP3    H249649   5.263   6.028  13.452 -0.3758 -0.8456  0.3464
 9412TIP3   OH249650   1.643   4.836   5.369  0.0499  0.7347 -0.1010
 9412TIP3    H149651   1.652   4.769   5.436  0.2740  0.2534 -0.6001
 9412TIP3    H249652   1.707   4.903   5.394  0.4477  0.3509 -0.0713
 9413TIP3   OH249653   3.863   1.270   3.759  0.0592  0.1559 -0.4220
 9413TIP3    H149654   3.833   1.309   3.677  0.5242 -0.8784 -1.1089
 9413TIP3    H249655   3.906   1.189   3.732  0.1439 -0.2411  0.8599
 9414TIP3   OH249656   6.519   5.688   2.644  0.8408 -0.1355 -0.3152
 9414TIP3    H149657   6.429   5.674   2.614  0.4897 -0.7234  0.9800
 9414TIP3    H249658   6.560   5.736   2.572 -0.2637 -0.5979 -1.2934
 9415TIP3   OH249659   1.574   2.240   1.871 -0.3964  0.3625 -0.9868
 9415TIP3    H149660   1.629   2.272   1.800  1.6010  0.3994  0.5012
 9415TIP3    H249661   1.635   2.209   1.937 -2.1969 -1.4486 -0.0440
 9416TIP3   OH249662   1.150   0.864   4.153  0.6238 -0.0218 -0.4428
 9416TIP3    H149663   1.074   0.824   4.197  0.4146  3.6935  3.2984
 9416TIP3    H249664   1.115   0.897   4.070 -0.5973 -2.3074 -0.9118
 9417TIP3   OH249665   4.861   0.245   1.223  0.6106 -0.1184 -0.7406
 9417TIP3    H149666   4.883   0.271   1.312 -1.5499  1.0391 -0.4744
 9417TIP3    H249667   4.819   0.159   1.233 -0.2033  0.2897 -0.5278
 9418TIP3   OH249668   1.484   5.169   3.460 -0.0542 -0.1159  0.7746
 9418TIP3    H149669   1.403   5.217   3.480 -0.2132  0.6569 -1.4199
 9418TIP3    H249670   1.453   5.087   3.421  0.2280 -0.4405  1.2327
 9419TIP3   OH249671   5.137   2.324   3.687  0.0046  0.0418 -0.6059
 9419TIP3    H149672   5.202   2.363   3.629 -0.9246  1.6412 -0.6281
 9419TIP3    H249673   5.102   2.250   3.638  1.2098 -0.3584 -0.9064
 9420TIP3   OH249674   0.879   6.635  15.302  0.5228 -0.1009  0.3474
 9420TIP3    H149675   0.893   6.545  15.272  0.4154 -0.2266  0.6675
 9420TIP3    H249676   0.929   6.689  15.241 -0.2645 -0.2891 -0.4892
 9421TIP3   OH249677   3.909   0.744   5.822  0.2359 -0.2569  0.1804
 9421TIP3    H149678   3.915   0.762   5.915  0.9779 -2.2141  0.5622
 9421TIP3    H249679   3.956   0.661   5.810 -0.7242 -0.5928 -1.7568
 9422TIP3   OH249680   4.816   2.876  16.844  0.3055 -0.2341 -0.6956
 9422TIP3    H149681   4.741   2.910  16.893  0.4270  0.6029 -1.0637
 9422TIP3    H249682   4.892   2.922  16.882  0.7751 -1.8006  0.3540
 9423TIP3   OH249683   6.110   2.680  13.888 -0.3256  0.5844 -0.0701
 9423TIP3    H149684   6.205   2.667  13.893 -0.5082 -1.0057  0.0409
 9423TIP3    H249685   6.097   2.739  13.814  0.8445  2.4767  1.1600
 9424TIP3   OH249686   0.945   1.866   2.515  0.4190  0.3698 -0.1220
 9424TIP3    H149687   0.925   1.878   2.422  1.9806 -1.2652 -0.7354
 9424TIP3    H249688   0.979   1.951   2.544 -4.1194  2.3231  0.2104
 9425TIP3   OH249689   5.436   0.034   1.527  0.3913  0.3805 -0.1148
 9425TIP3    H149690   5.445   0.129   1.534  2.0136  0.2578 -0.1348
 9425TIP3    H249691   5.486   0.010   1.449  2.7447 -0.7729  1.6193
 9426TIP3   OH249692   4.457   4.338   3.733 -0.2349 -0.2589 -0.3309
 9426TIP3    H149693   4.379   4.366   3.780  1.1254  1.0450  1.3114
 9426TIP3    H249694   4.505   4.284   3.796  1.0286  0.4678 -0.6177
 9427TIP3   OH249695   0.809   4.334  16.309 -0.3457  0.6681 -0.0408
 9427TIP3    H149696   0.860   4.376  16.378 -0.8060  0.8785  0.1781
 9427TIP3    H249697   0.824   4.389  16.232  1.6632 -0.5928 -0.6409
 9428TIP3   OH249698   6.467   2.669   4.018  0.2068 -0.3153  0.3746
 9428TIP3    H149699   6.553   2.651   3.980  0.5413  0.0889  0.9108
 9428TIP3    H249700   6.407   2.668   3.944  1.1506  2.7975 -0.6296
 9429TIP3   OH249701   5.516   3.443   5.611 -0.8545 -0.6252 -0.0834
 9429TIP3    H149702   5.554   3.367   5.567 -0.4299  0.3037 -1.3677
 9429TIP3    H249703   5.447   3.406   5.666 -0.0478 -2.0302  0.0526
 9430TIP3   OH249704   0.848   4.283  11.885  0.2739 -0.7022 -0.3900
 9430TIP3    H149705   0.780   4.339  11.923  0.9818 -1.0969  1.5697
 9430TIP3    H249706   0.809   4.195  11.886  0.3650 -0.7432 -0.4227
 9431TIP3   OH249707   6.556   0.535   2.028 -0.8647  0.0962 -0.0636
 9431TIP3    H149708   6.593   0.577   1.950 -2.1008 -1.7096 -1.7088
 9431TIP3    H249709   6.526   0.608   2.082  0.9706  1.4327 -0.7370
 9432TIP3   OH249710   0.337   6.052   2.233 -0.6624 -0.8248  0.0660
 9432TIP3    H149711   0.382   5.969   2.247  1.3288 -0.1564 -1.8503
 9432TIP3    H249712   0.361   6.105   2.309 -0.5995 -1.4344  0.4807
 9433TIP3   OH249713   3.096   0.623  12.686 -0.2400 -0.0137 -0.1228
 9433TIP3    H149714   3.090   0.530  12.707  0.6997 -0.2397 -0.8027
 9433TIP3    H249715   3.030   0.664  12.741 -0.2388 -1.0101  0.6533
 9434TIP3   OH249716   3.011   4.121  13.380 -0.6782  0.2131 -0.2184
 9434TIP3    H149717   3.097   4.152  13.410 -0.0874 -1.1272 -0.4490
 9434TIP3    H249718   2.949   4.185  13.415  0.3832  1.0646  0.1770
 9435TIP3   OH249719   1.607   5.873   1.665  0.4675  0.3454 -0.4336
 9435TIP3    H149720   1.602   5.818   1.587  0.8453  0.7109 -0.7210
 9435TIP3    H249721   1.576   5.959   1.636  0.0389  0.3295 -0.0295
 9436TIP3   OH249722   5.331   3.203  12.471  0.3272  0.3213  0.1524
 9436TIP3    H149723   5.378   3.240  12.396 -0.1754  0.4682 -0.0965
 9436TIP3    H249724   5.374   3.242  12.547 -0.1622  1.4173 -0.1032
 9437TIP3   OH249725   0.072   3.839  12.161  0.3068 -0.0287 -0.2677
 9437TIP3    H149726   0.046   3.931  12.151  2.8449  0.9369  1.1574
 9437TIP3    H249727   0.035   3.813  12.245 -0.6206 -0.4262 -0.7843
 9438TIP3   OH249728   1.117   2.109  12.697  0.6027  0.4909  0.0208
 9438TIP3    H149729   1.203   2.143  12.674 -0.6580  3.1487 -1.2382
 9438TIP3    H249730   1.113   2.117  12.793  0.8290  3.0694 -0.0988
 9439TIP3   OH249731   5.096   3.765   1.443  0.2664 -0.2948  0.8443
 9439TIP3    H149732   5.161   3.785   1.510 -0.4871 -0.3905  1.6245
 9439TIP3    H249733   5.015   3.752   1.492 -0.1447 -1.1004 -0.0309
 9440TIP3   OH249734   0.596   5.792   5.303  0.1609 -0.4477 -0.0869
 9440TIP3    H149735   0.552   5.855   5.246  0.6730 -0.7053 -0.7788
 9440TIP3    H249736   0.658   5.747   5.246  0.6429 -0.7557  0.6614
 9441TIP3   OH249737   4.453   4.495  15.031  0.2881  0.7795  0.1029
 9441TIP3    H149738   4.369   4.522  15.068 -0.1839  0.2679 -0.5627
 9441TIP3    H249739   4.467   4.555  14.958  0.3030  0.6028 -0.0389
 9442TIP3   OH249740   6.689   4.879  16.526 -0.6385 -0.4546 -0.4353
 9442TIP3    H149741   6.609   4.925  16.551 -0.9451  1.0199 -3.5880
 9442TIP3    H249742   6.661   4.788  16.513 -1.1077 -0.5813  1.2541
 9443TIP3   OH249743   2.565   2.610   3.300 -0.0275  0.0652 -0.4780
 9443TIP3    H149744   2.605   2.523   3.301  0.0966 -0.0463  4.0553
 9443TIP3    H249745   2.472   2.593   3.288  0.0541 -0.6692 -0.1428
 9444TIP3   OH249746   4.914   4.876  13.147 -0.7862 -0.8700  0.2444
 9444TIP3    H149747   4.903   4.900  13.055 -0.8715 -0.0063  0.4756
 9444TIP3    H249748   4.850   4.806  13.161 -1.6430 -0.1529 -0.0320
 9445TIP3   OH249749   3.502   5.575   4.403 -0.6033  0.0884  0.2758
 9445TIP3    H149750   3.450   5.627   4.464 -1.4702 -1.3705  0.8438
 9445TIP3    H249751   3.530   5.499   4.454  0.1421 -0.3016 -0.6745
 9446TIP3   OH249752   0.256   4.499   4.629 -0.0273 -1.0099  0.2220
 9446TIP3    H149753   0.332   4.558   4.631  0.0613 -1.1504  1.0689
 9446TIP3    H249754   0.247   4.468   4.718 -1.8030 -0.0871  0.4118
 9447TIP3   OH249755   6.215   1.079  16.509  0.2887 -0.5068  0.3138
 9447TIP3    H149756   6.182   1.128  16.434 -0.7098 -1.5991  0.0137
 9447TIP3    H249757   6.268   1.142  16.558  1.1742  0.1615 -1.4366
 9448TIP3   OH249758   3.696   4.582  13.923 -0.4299 -0.0186 -0.7183
 9448TIP3    H149759   3.691   4.524  13.999  0.2135  1.6606  0.6869
 9448TIP3    H249760   3.790   4.598  13.911 -0.6102  1.4033 -0.4842
 9449TIP3   OH249761   1.607   2.885  12.487  0.1432  0.5672  0.3238
 9449TIP3    H149762   1.529   2.844  12.523 -0.5313  1.5724  0.0475
 9449TIP3    H249763   1.649   2.816  12.435 -0.5465  0.0177  0.4870
 9450TIP3   OH249764   4.742   1.170   0.435 -0.1159  0.5606  0.6237
 9450TIP3    H149765   4.814   1.220   0.397 -0.4331  0.7978  0.3233
 9450TIP3    H249766   4.701   1.231   0.497  1.1693 -0.2360  2.3124
 9451TIP3   OH249767   0.649   4.040  12.627 -0.0596 -0.1232  0.2765
 9451TIP3    H149768   0.716   4.012  12.565 -1.5508  0.3021 -1.6031
 9451TIP3    H249769   0.628   3.961  12.677  0.0465 -0.8796 -0.8575
 9452TIP3   OH249770   6.731   2.020   5.653 -0.3216  0.3610  0.2990
 9452TIP3    H149771   6.661   1.965   5.615  1.2446 -0.2881 -1.8607
 9452TIP3    H249772   6.807   1.962   5.655  0.7280  1.7212  0.4586
 9453TIP3   OH249773   6.526   3.784  12.740 -0.4533 -0.3617  0.1318
 9453TIP3    H149774   6.560   3.871  12.760 -0.3479 -0.7358  1.7535
 9453TIP3    H249775   6.567   3.727  12.805 -1.7922 -1.3443  0.1617
 9454TIP3   OH249776   2.182   1.168  14.030  0.6245  0.6562  0.2427
 9454TIP3    H149777   2.144   1.196  13.947  0.3979 -0.1312  0.0762
 9454TIP3    H249778   2.151   1.078  14.042  1.7880  0.2767  0.4944
 9455TIP3   OH249779   3.720   0.540   0.296 -0.1262  0.2364 -0.0670
 9455TIP3    H149780   3.755   0.453   0.275  1.0705  0.9857 -1.3710
 9455TIP3    H249781   3.769   0.600   0.239 -0.3995  1.8558  1.3118
 9456TIP3   OH249782   6.160   5.144   5.797 -0.2080  0.4616 -0.2014
 9456TIP3    H149783   6.143   5.175   5.886 -1.5136  0.2519 -0.3630
 9456TIP3    H249784   6.162   5.048   5.806 -1.4314  0.3827 -0.5501
 9457TIP3   OH249785   0.163   0.176  11.578 -0.0118  0.6905  0.3576
 9457TIP3    H149786   0.176   0.158  11.671  0.3218 -0.7036  0.0592
 9457TIP3    H249787   0.250   0.201  11.546 -0.2772  1.9477  0.5596
 9458TIP3   OH249788   4.291   2.414   5.644  0.4871  0.1981 -0.0543
 9458TIP3    H149789   4.232   2.385   5.574  0.2431  0.6135 -0.0243
 9458TIP3    H249790   4.285   2.346   5.711  1.0837 -0.4352 -0.6378
 9459TIP3   OH249791   5.222   4.593   3.551 -0.5100 -0.1788  0.5576
 9459TIP3    H149792   5.180   4.564   3.471  0.4140 -0.6956  0.2500
 9459TIP3    H249793   5.194   4.684   3.561  0.7996  0.4919 -1.3463
 9460TIP3   OH249794   1.813   3.461  12.684  0.7151 -0.3737  0.3761
 9460TIP3    H149795   1.828   3.522  12.756  0.5814 -0.7363  0.7133
 9460TIP3    H249796   1.845   3.376  12.717 -0.1449 -0.7247  0.3369
 9461TIP3   OH249797   0.932   0.200  16.388  0.2678 -0.1178  0.3892
 9461TIP3    H149798   0.843   0.233  16.396  0.3935  0.1955  0.5041
 9461TIP3    H249799   0.969   0.247  16.313 -0.2636 -1.6073 -0.8446
 9462TIP3   OH249800   6.155   0.699   3.193  0.0671  0.4743  0.4202
 9462TIP3    H149801   6.122   0.629   3.136 -0.7170  1.3104 -0.1820
 9462TIP3    H249802   6.225   0.658   3.243  0.7272 -0.3225 -1.0869
 9463TIP3   OH249803   1.050   4.597  12.053  0.2056 -0.2971  0.4149
 9463TIP3    H149804   1.069   4.559  11.967  0.9286  0.6595  0.1397
 9463TIP3    H249805   1.059   4.524  12.114  1.5174 -0.5967 -0.1099
 9464TIP3   OH249806   5.152   4.683   5.345 -0.1062 -0.0920  0.2558
 9464TIP3    H149807   5.119   4.769   5.372 -0.9205  1.1509 -3.8964
 9464TIP3    H249808   5.080   4.623   5.363 -0.6632  0.6576  0.6107
 9465TIP3   OH249809   5.730   5.456  16.413 -0.0091  0.5748  0.3442
 9465TIP3    H149810   5.688   5.441  16.497 -2.6167  2.1254 -0.5499
 9465TIP3    H249811   5.732   5.370  16.371 -3.5295  0.4969  0.0026
 9466TIP3   OH249812   5.305   0.103   5.444  0.0536 -0.1745 -0.2452
 9466TIP3    H149813   5.386   0.103   5.496  0.0705 -0.9977 -0.2528
 9466TIP3    H249814   5.301   0.190   5.406  1.1492 -0.2330 -0.5507
 9467TIP3   OH249815   2.248   3.852  15.695 -0.2637  0.1524 -0.4113
 9467TIP3    H149816   2.212   3.814  15.615  1.3423 -0.7482 -0.7546
 9467TIP3    H249817   2.219   3.793  15.765  1.7746 -1.5341 -0.8789
 9468TIP3   OH249818   4.302   6.528  14.762 -0.2017 -0.1925 -0.9911
 9468TIP3    H149819   4.218   6.504  14.723 -1.0255  1.2890 -0.2176
 9468TIP3    H249820   4.279   6.562  14.848  1.3887 -1.4658 -0.0146
 9469TIP3   OH249821   0.433   5.512  15.590  0.8789 -0.1613 -0.1046
 9469TIP3    H149822   0.481   5.595  15.589 -1.3284  1.2077 -0.0518
 9469TIP3    H249823   0.432   5.486  15.682 -2.7385  2.5750  0.8536
 9470TIP3   OH249824   6.111   5.503  13.308 -1.0338  0.0826  0.0583
 9470TIP3    H149825   6.160   5.430  13.269  0.0018  0.8392 -0.0900
 9470TIP3    H249826   6.135   5.579  13.256 -2.6124  0.4486 -0.1950
 9471TIP3   OH249827   0.390   1.721  13.841  0.2011  0.2575  0.8755
 9471TIP3    H149828   0.457   1.655  13.825 -0.0341  0.5753 -1.8951
 9471TIP3    H249829   0.315   1.672  13.875  0.6443 -0.6320  0.5763
 9472TIP3   OH249830   0.474   6.256   2.901 -0.7939  0.4020 -0.0584
 9472TIP3    H149831   0.548   6.237   2.843  0.0296 -0.3052  1.1606
 9472TIP3    H249832   0.404   6.198   2.871  0.3176 -1.5717  0.9487
 9473TIP3   OH249833   1.026   2.711   4.418  0.2781  0.3259 -0.2419
 9473TIP3    H149834   1.014   2.757   4.335  2.0990  1.7500  0.2082
 9473TIP3    H249835   1.121   2.706   4.429  0.0791 -0.5858  1.3552
 9474TIP3   OH249836   2.746   4.186   4.690 -0.3227  0.4758 -0.0425
 9474TIP3    H149837   2.727   4.249   4.758  0.3920 -0.6229  1.2307
 9474TIP3    H249838   2.677   4.198   4.625 -0.6158  2.0187  0.5324
 9475TIP3   OH249839   4.868   3.891   4.999  0.3933 -0.3307  0.5204
 9475TIP3    H149840   4.795   3.866   4.943 -0.3927 -0.0433  1.4068
 9475TIP3    H249841   4.896   3.809   5.040  0.2505 -0.3594  0.5602
 9476TIP3   OH249842   5.567   4.526   0.687 -0.6083 -0.4946  0.4339
 9476TIP3    H149843   5.533   4.490   0.605 -0.2401 -0.8894  0.4504
 9476TIP3    H249844   5.493   4.520   0.748 -0.3020 -2.0944  0.6911
 9477TIP3   OH249845   1.954   2.042   6.264  0.0366  0.6055 -0.1129
 9477TIP3    H149846   1.979   2.105   6.332  0.9071 -0.2807  0.4132
 9477TIP3    H249847   1.939   2.095   6.186 -0.1814  1.5572  0.5557
 9478TIP3   OH249848   4.318   3.340   0.900  0.2499 -0.0736  0.2122
 9478TIP3    H149849   4.387   3.295   0.851  0.7134 -0.8010  1.4780
 9478TIP3    H249850   4.361   3.366   0.982 -0.9297 -0.3681  0.9363
 9479TIP3   OH249851   3.040   4.904  12.410 -0.0765 -0.0454  0.0010
 9479TIP3    H149852   2.976   4.851  12.458 -0.8734 -0.4213 -1.4159
 9479TIP3    H249853   3.031   4.992  12.446  0.4176 -0.6040  1.5639
 9480TIP3   OH249854   5.418   0.410  13.752 -0.4297 -0.3371  0.5293
 9480TIP3    H149855   5.423   0.484  13.812 -1.3310 -1.7269  2.4547
 9480TIP3    H249856   5.377   0.340  13.804 -1.6817 -1.5112 -1.8494
 9481TIP3   OH249857   1.488   0.856   1.571 -0.7164 -0.4828  0.0403
 9481TIP3    H149858   1.511   0.926   1.633  2.9375 -1.8681  0.4447
 9481TIP3    H249859   1.435   0.795   1.622 -0.9679  0.2575  0.6800
 9482TIP3   OH249860   2.172   1.564  14.037 -0.1459  0.4299 -0.4328
 9482TIP3    H149861   2.122   1.633  14.080  0.3038 -0.4832  1.6871
 9482TIP3    H249862   2.107   1.496  14.017 -0.5153  1.2337 -2.1394
 9483TIP3   OH249863   6.261   3.190   3.668  0.0614 -0.3999 -0.3117
 9483TIP3    H149864   6.222   3.208   3.754 -0.7449  1.5422 -1.0251
 9483TIP3    H249865   6.326   3.259   3.656  0.9126 -1.2711 -0.8352
 9484TIP3   OH249866   1.764   1.891  11.211 -0.1788  0.7863  0.2336
 9484TIP3    H149867   1.740   1.840  11.289  0.0647  2.2176  1.3036
 9484TIP3    H249868   1.849   1.930  11.234  0.7838 -0.2041 -1.4957
 9485TIP3   OH249869   2.323   4.050  10.766  0.3852  0.2904 -0.6272
 9485TIP3    H149870   2.237   4.092  10.764  1.3967  2.6325  1.1379
 9485TIP3    H249871   2.319   3.991  10.842  0.8029  1.6249  0.4717
 9486TIP3   OH249872   5.714   4.056  13.974 -0.2322  0.1756  0.0008
 9486TIP3    H149873   5.688   3.978  14.021  0.4213 -0.7674 -1.1443
 9486TIP3    H249874   5.802   4.036  13.941 -0.3291  1.1200 -0.8894
 9487TIP3   OH249875   5.393   2.712   2.645 -0.0055 -0.5467  0.3883
 9487TIP3    H149876   5.461   2.739   2.707 -0.3840  0.5333  0.3535
 9487TIP3    H249877   5.393   2.781   2.579  0.3102 -1.6282 -0.7622
 9488TIP3   OH249878   1.077   2.577   2.003  0.4910 -0.4877  0.1489
 9488TIP3    H149879   0.985   2.559   1.986  0.4990  0.0961 -0.5851
 9488TIP3    H249880   1.124   2.529   1.935  0.5313  1.8291 -1.5470
 9489TIP3   OH249881   0.993   6.648  14.678  0.7441 -0.9087 -0.2731
 9489TIP3    H149882   0.916   6.697  14.649 -0.0196 -2.6378 -1.3460
 9489TIP3    H249883   1.035   6.619  14.596  1.0774 -2.1386  0.3077
 9490TIP3   OH249884   0.903   1.457   3.744  0.8966  0.0510  0.2420
 9490TIP3    H149885   0.931   1.515   3.814  2.0742 -0.2944  0.0868
 9490TIP3    H249886   0.847   1.393   3.787 -0.1477  1.0951  0.4682
 9491TIP3   OH249887   3.710   6.493  13.044  0.0925 -0.3992 -0.2764
 9491TIP3    H149888   3.699   6.415  13.098  1.1601 -0.2554  0.1712
 9491TIP3    H249889   3.784   6.472  12.987 -0.6894 -0.3523 -1.3400
 9492TIP3   OH249890   3.799   3.060  10.517 -0.3699 -0.5593  0.2806
 9492TIP3    H149891   3.852   3.138  10.532  0.2505 -0.8732 -0.2006
 9492TIP3    H249892   3.793   3.052  10.422  3.8355 -3.7804 -0.0132
 9493TIP3   OH249893   2.236   1.776  15.757 -0.4824  0.1648  0.1991
 9493TIP3    H149894   2.168   1.843  15.764 -0.9615 -0.2064 -0.8082
 9493TIP3    H249895   2.227   1.741  15.669 -0.3097 -1.3143  0.7451
 9494TIP3   OH249896   6.051   6.625   4.828  0.0789  0.0471  0.2887
 9494TIP3    H149897   6.033   6.607   4.920 -1.5580  0.2859  0.0513
 9494TIP3    H249898   5.975   6.589   4.781 -0.8359  2.8384 -0.6379
 9495TIP3   OH249899   1.673   5.427   3.533 -0.3838 -0.1999 -0.2264
 9495TIP3    H149900   1.627   5.345   3.549 -0.7492  0.1915  0.8670
 9495TIP3    H249901   1.761   5.413   3.567 -0.7561  0.1822  0.9527
 9496TIP3   OH249902   4.152   3.395  14.349 -0.4415  0.3036 -0.5442
 9496TIP3    H149903   4.093   3.430  14.282 -0.8689  0.1269 -0.2654
 9496TIP3    H249904   4.105   3.321  14.386  0.0600  0.0126 -0.4770
 9497TIP3   OH249905   5.261   4.729  13.215  0.7469 -0.0397  0.7002
 9497TIP3    H149906   5.238   4.770  13.132  0.7733 -0.2385  0.5946
 9497TIP3    H249907   5.296   4.801  13.268 -0.1840  0.2905  0.8939
 9498TIP3   OH249908   0.330   0.572   3.166 -0.1099  0.4123  0.7132
 9498TIP3    H149909   0.406   0.629   3.159  0.2117 -0.0699  0.2626
 9498TIP3    H249910   0.258   0.624   3.131  0.0504  0.7801  0.9166
 9499TIP3   OH249911   3.608   4.193   0.562 -0.6392  0.4605  0.1645
 9499TIP3    H149912   3.589   4.229   0.475  0.4778 -0.8186 -0.6364
 9499TIP3    H249913   3.546   4.238   0.620 -0.6458  2.1660 -1.0977
 9500TIP3   OH249914   1.925   4.949   1.591  0.1379  0.6933 -0.1158
 9500TIP3    H149915   1.956   5.013   1.655 -2.1190  0.8232  0.9468
 9500TIP3    H249916   1.836   4.928   1.619  0.8197 -3.0740 -0.3530
 9501TIP3   OH249917   0.900   2.149   6.084  0.6138 -0.3361  0.3331
 9501TIP3    H149918   0.930   2.225   6.133  0.2386  1.7614 -2.4191
 9501TIP3    H249919   0.813   2.131   6.119  1.7275 -1.2948  2.8294
 9502TIP3   OH249920   1.826   1.976   2.909  0.1193  0.4703 -0.1194
 9502TIP3    H149921   1.810   2.057   2.956  2.1109  1.8715 -1.6792
 9502TIP3    H249922   1.914   1.949   2.936 -1.3443 -2.6269  2.2318
 9503TIP3   OH249923   3.080   0.668   5.174 -0.2836  0.3437 -0.0345
 9503TIP3    H149924   3.027   0.612   5.231  1.9841 -0.0568  1.8501
 9503TIP3    H249925   3.023   0.742   5.154 -2.0650 -0.7878  0.5872
 9504TIP3   OH249926   6.604   5.787  14.934 -0.9406 -0.2988 -0.1811
 9504TIP3    H149927   6.678   5.731  14.908 -0.5533 -0.8818  1.9482
 9504TIP3    H249928   6.627   5.874  14.902  0.4276 -0.5830 -0.0326
 9505TIP3   OH249929   0.625   3.778   0.441 -0.3730 -0.1666 -0.1648
 9505TIP3    H149930   0.541   3.752   0.403 -1.1936 -0.9413  2.0336
 9505TIP3    H249931   0.603   3.843   0.508  0.9624  0.7437 -0.5521
 9506TIP3   OH249932   6.411   0.360   3.970 -0.4844  0.4699 -0.2188
 9506TIP3    H149933   6.457   0.276   3.968 -0.5660  0.3768  0.9204
 9506TIP3    H249934   6.330   0.341   4.019  0.0732  1.4657  1.1477
 9507TIP3   OH249935   4.098   0.305  15.381 -0.3161  0.4441 -0.2439
 9507TIP3    H149936   4.113   0.212  15.363  1.8041  1.0700 -2.2492
 9507TIP3    H249937   4.024   0.328  15.325  0.8436  0.4841 -1.8284
 9508TIP3   OH249938   6.296   3.916   3.171  0.0903 -0.1142 -0.3524
 9508TIP3    H149939   6.380   3.960   3.159 -0.2272  0.4489 -0.5561
 9508TIP3    H249940   6.233   3.988   3.179 -0.3143 -0.5263  0.2143
 9509TIP3   OH249941   3.615   4.463  13.380 -0.1494  0.0492  0.3802
 9509TIP3    H149942   3.535   4.511  13.358 -0.9837 -0.3792  2.2546
 9509TIP3    H249943   3.621   4.469  13.475  1.3272 -1.0763  0.3950
 9510TIP3   OH249944   5.878   2.860   6.572  0.4270 -0.0719  0.2621
 9510TIP3    H149945   5.863   2.804   6.496 -0.8885  0.5897  0.0054
 9510TIP3    H249946   5.962   2.902   6.556 -0.7915  1.7502 -1.9471
 9511TIP3   OH249947   1.839   2.649  11.577 -0.0321 -0.2311  0.0903
 9511TIP3    H149948   1.836   2.558  11.546  0.3930  0.1020 -0.9921
 9511TIP3    H249949   1.891   2.695  11.511  0.3492  0.6665  0.9787
 9512TIP3   OH249950   3.021   3.033   4.858  0.0899  0.0336  0.5547
 9512TIP3    H149951   3.092   3.054   4.797  0.7821  0.4038  1.4626
 9512TIP3    H249952   2.967   2.969   4.811  1.6782 -1.1764  0.3035
 9513TIP3   OH249953   0.740   5.468   3.583 -0.5421 -0.1045 -0.2890
 9513TIP3    H149954   0.748   5.388   3.531 -1.5689  0.3064 -1.1189
 9513TIP3    H249955   0.790   5.450   3.662  1.1915 -0.7105 -1.4611
 9514TIP3   OH249956   5.232   1.744  12.996 -0.0978  0.7369 -0.4839
 9514TIP3    H149957   5.240   1.677  13.065  0.0674 -0.4941 -1.6555
 9514TIP3    H249958   5.300   1.807  13.017 -0.5157  0.7601  0.8835
 9515TIP3   OH249959   4.173   0.369  15.636 -0.2208  0.3367 -0.1804
 9515TIP3    H149960   4.258   0.411  15.646  0.1357 -0.5349  0.6035
 9515TIP3    H249961   4.170   0.344  15.544 -0.2491  1.6346 -0.5497
 9516TIP3   OH249962   2.041   5.661  13.322 -0.2020 -0.4806  0.2133
 9516TIP3    H149963   2.095   5.739  13.310  0.6347 -0.6782  2.3858
 9516TIP3    H249964   2.102   5.593  13.351 -1.1757 -1.5142 -0.0881
 9517TIP3   OH249965   2.382   2.842   4.492 -0.2016  1.0259  0.3288
 9517TIP3    H149966   2.431   2.838   4.410 -1.6322 -2.2486 -0.5038
 9517TIP3    H249967   2.439   2.891   4.551  0.8979  3.4933 -2.5195
 9518TIP3   OH249968   5.861   2.866   5.098  0.2184  0.4770  0.0932
 9518TIP3    H149969   5.830   2.906   5.179 -2.8080 -0.5188 -0.4311
 9518TIP3    H249970   5.875   2.774   5.121 -0.2341  0.2830 -0.3814
 9519TIP3   OH249971   2.802   3.658  13.986 -0.1402  0.5532 -0.0643
 9519TIP3    H149972   2.796   3.693  14.075  0.4900  0.9490 -0.1732
 9519TIP3    H249973   2.799   3.563  13.997 -0.3414  0.6063  0.3572
 9520TIP3   OH249974   3.483   2.675  11.482 -0.1194  0.1176 -0.4164
 9520TIP3    H149975   3.541   2.633  11.419 -0.4448 -1.1268  0.0825
 9520TIP3    H249976   3.405   2.698  11.432  0.3545  0.8144 -0.8508
 9521TIP3   OH249977   5.611   4.827   4.002  0.8586  0.2492 -0.2289
 9521TIP3    H149978   5.648   4.907   3.965  0.3924 -0.5542 -2.5866
 9521TIP3    H249979   5.604   4.767   3.928  0.6364 -1.7982  1.3501
 9522TIP3   OH249980   0.069   1.711  15.575 -0.0473 -0.5631  0.6041
 9522TIP3    H149981   0.134   1.645  15.552 -1.3907 -1.8444  0.3040
 9522TIP3    H249982   0.077   1.722  15.669  0.0812 -1.2903  0.6812
 9523TIP3   OH249983   0.623   0.392   0.043  0.8242  0.3032 -0.3184
 9523TIP3    H149984   0.574   0.467   0.075  0.5884  0.0987 -0.1988
 9523TIP3    H249985   0.615   0.396  -0.052 -0.4741 -0.4289 -0.2599
 9524TIP3   OH249986   2.080   3.135   2.852  0.0307  0.9313 -0.0403
 9524TIP3    H149987   2.155   3.095   2.807  0.3822  1.4692  0.0548
 9524TIP3    H249988   2.111   3.148   2.942 -0.2200  1.0390  0.0303
 9525TIP3   OH249989   3.375   3.136  15.556  0.2584 -0.4501 -0.1328
 9525TIP3    H149990   3.379   3.099  15.644  0.5891 -2.7072 -1.0057
 9525TIP3    H249991   3.348   3.227  15.568 -0.0343 -0.8002  2.2473
 9526TIP3   OH249992   0.325   5.908   4.228  0.1004  0.0109 -0.3856
 9526TIP3    H149993   0.259   5.845   4.198 -0.0331  0.8760 -1.9899
 9526TIP3    H249994   0.329   5.895   4.323 -2.6201  0.1765 -0.1763
 9527TIP3   OH249995   3.974   5.466   1.718 -0.3714 -0.2015  0.0272
 9527TIP3    H149996   3.941   5.543   1.764  1.9922  0.5532  0.6332
 9527TIP3    H249997   3.955   5.393   1.777  2.7138  0.7554  2.4968
 9528TIP3   OH249998   1.843   2.241  14.302 -0.2760  1.0558 -0.0807
 9528TIP3    H149999   1.872   2.332  14.290 -1.1911  1.5069  0.9904
 9528TIP3    H250000   1.823   2.234  14.395  1.2601 -0.7063  0.1722
 9529TIP3   OH250001   1.476   1.645  14.924  0.3633  0.2814  0.3117
 9529TIP3    H150002   1.434   1.721  14.965 -0.2582 -0.4213  1.0241
 9529TIP3    H250003   1.550   1.625  14.982  0.3136  0.1275  0.3217
 9530TIP3   OH250004   1.190   4.101   0.743  0.3327  0.6153  0.5689
 9530TIP3    H150005   1.250   4.069   0.810 -0.2798  1.3508  1.4921
 9530TIP3    H250006   1.197   4.196   0.748  0.2990  0.6825 -0.4403
 9531TIP3   OH250007   5.529   6.280  14.588  0.4020 -0.0326  0.0159
 9531TIP3    H150008   5.475   6.209  14.622 -1.0210  1.1342  0.3150
 9531TIP3    H250009   5.619   6.249  14.596  0.0680 -0.4795  3.3908
 9532TIP3   OH250010   3.787   6.513  11.506  0.3770 -0.1082  0.2441
 9532TIP3    H150011   3.724   6.574  11.468 -0.4883 -0.3704  1.2088
 9532TIP3    H250012   3.815   6.556  11.587  0.5843 -0.5062  0.3817
 9533TIP3   OH250013   1.455   0.183  15.933  0.4638 -0.5653  0.5697
 9533TIP3    H150014   1.483   0.224  15.851 -2.6169 -2.0022 -1.3840
 9533TIP3    H250015   1.456   0.089  15.914 -0.0562 -0.9426  2.2684
 9534TIP3   OH250016   6.180   4.636   0.791 -0.7110 -0.4077 -0.1362
 9534TIP3    H150017   6.177   4.711   0.851 -2.6007 -0.7718  0.2950
 9534TIP3    H250018   6.253   4.582   0.823  0.5138  1.0780 -0.3012
 9535TIP3   OH250019   2.244   5.534  13.074  0.0123  0.0473 -0.3683
 9535TIP3    H150020   2.305   5.507  13.143  2.1592  2.2845 -1.2429
 9535TIP3    H250021   2.195   5.606  13.112 -1.4753 -1.0850 -0.0235
 9536TIP3   OH250022   1.063   4.103  14.334 -0.0339 -0.3480  0.3703
 9536TIP3    H150023   1.017   4.123  14.252  1.5770 -0.2091 -0.5617
 9536TIP3    H250024   1.065   4.186  14.382  0.6597  0.0769 -0.3526
 9537TIP3   OH250025   2.225   0.488   1.374  0.6192  0.3026 -0.6536
 9537TIP3    H150026   2.209   0.399   1.405  2.8125  0.3435  0.8126
 9537TIP3    H250027   2.156   0.503   1.308  0.1764 -2.4431 -0.9543
 9538TIP3   OH250028   2.055   1.685   4.423  0.3164  0.4356  0.1301
 9538TIP3    H150029   2.072   1.764   4.474  1.0024 -0.5520  1.4865
 9538TIP3    H250030   2.054   1.614   4.487 -0.1762 -0.6873 -1.0633
 9539TIP3   OH250031   6.155   2.859   5.265  0.1417  0.2820 -0.4883
 9539TIP3    H150032   6.231   2.902   5.306 -0.8502  0.9822  0.6916
 9539TIP3    H250033   6.193   2.785   5.218  1.2736 -1.9091  3.4106
 9540TIP3   OH250034   1.659   4.286  11.411 -0.4943 -0.4653 -0.0520
 9540TIP3    H150035   1.620   4.209  11.372 -0.8006  0.3079 -1.3379
 9540TIP3    H250036   1.740   4.254  11.452  0.2572 -1.2312 -1.9943
 9541TIP3   OH250037   1.088   1.422  10.725 -0.2040 -0.0078 -0.6627
 9541TIP3    H150038   1.179   1.437  10.700 -0.4617  1.0015 -1.0280
 9541TIP3    H250039   1.093   1.365  10.801  0.8871  2.6664  1.4294
 9542TIP3   OH250040   3.303   1.666  15.710  0.1614 -0.1881  0.0486
 9542TIP3    H150041   3.295   1.726  15.783 -0.3006 -0.6684  0.3952
 9542TIP3    H250042   3.385   1.619  15.726 -0.0736 -0.4781  0.3938
 9543TIP3   OH250043   2.193   6.431  13.754 -0.2114  0.3263 -0.0637
 9543TIP3    H150044   2.248   6.382  13.692 -1.6795 -0.4147 -0.8377
 9543TIP3    H250045   2.233   6.518  13.758  1.2761 -0.3214 -0.2229
 9544TIP3   OH250046   1.133   3.103  14.724  0.0788 -0.2554  0.1629
 9544TIP3    H150047   1.204   3.097  14.788 -0.3548  2.5505  1.0278
 9544TIP3    H250048   1.070   3.038  14.754  0.7889 -0.4294  1.3947
 9545TIP3   OH250049   3.587   2.028   0.309 -0.5290  0.8147 -0.3793
 9545TIP3    H150050   3.519   2.004   0.245 -1.5086  0.8512  0.6170
 9545TIP3    H250051   3.540   2.033   0.393  0.8716  0.0672  0.4734
 9546TIP3   OH250052   5.107   3.766   4.800  0.6104  0.3722 -0.0753
 9546TIP3    H150053   5.032   3.710   4.780  0.2960  1.0109 -0.7395
 9546TIP3    H250054   5.072   3.831   4.862  0.5933  0.7102 -0.4362
 9547TIP3   OH250055   3.034   1.028  16.100  0.1551 -0.1506 -0.3063
 9547TIP3    H150056   3.095   1.025  16.174  0.0036 -0.4381 -0.1930
 9547TIP3    H250057   3.035   1.120  16.072 -0.0495  0.0256  0.2653
 9548TIP3   OH250058   6.528   4.169  12.283  0.1326 -0.2790 -0.0398
 9548TIP3    H150059   6.505   4.086  12.243 -1.2377  0.2183 -0.3474
 9548TIP3    H250060   6.555   4.147  12.372  0.4105 -1.1110 -0.3301
 9549TIP3   OH250061   4.333   4.520  14.669  0.4157  0.0691 -0.0391
 9549TIP3    H150062   4.394   4.591  14.689  0.2302 -0.1147  1.3127
 9549TIP3    H250063   4.386   4.441  14.674 -0.2024 -0.2907  3.1007
 9550TIP3   OH250064   0.034   0.383  13.165 -0.1786  0.6584  0.0593
 9550TIP3    H150065   0.130   0.385  13.163 -0.1708  1.3877  0.6605
 9550TIP3    H250066   0.012   0.370  13.257 -0.6594 -0.2673 -0.1797
 9551TIP3   OH250067   2.472   3.369  16.743 -0.6688  0.1379 -0.0824
 9551TIP3    H150068   2.523   3.328  16.673 -2.9091 -0.6184 -1.3487
 9551TIP3    H250069   2.465   3.461  16.716  0.1963  0.3102  0.2363
 9552TIP3   OH250070   3.003   1.490  10.810 -0.2735 -0.1884 -0.0544
 9552TIP3    H150071   3.039   1.456  10.728 -0.5353  0.4110 -0.4304
 9552TIP3    H250072   2.949   1.565  10.783  0.1597  0.4299  0.7274
 9553TIP3   OH250073   4.588   2.411  12.516  0.8369  0.6096  0.1125
 9553TIP3    H150074   4.662   2.437  12.572 -1.4659  1.1161  3.1683
 9553TIP3    H250075   4.541   2.492  12.499  0.2193  0.1037 -0.6735
 9554TIP3   OH250076   5.115   5.115   2.647  0.2458  0.4667  0.8814
 9554TIP3    H150077   5.096   5.194   2.597  0.6730 -0.2767 -0.5050
 9554TIP3    H250078   5.054   5.050   2.612  1.4097 -0.4036  0.4122
 9555TIP3   OH250079   5.561   6.519  14.382 -0.3322  0.7275  0.2428
 9555TIP3    H150080   5.527   6.448  14.436 -1.6464  0.5836 -0.7350
 9555TIP3    H250081   5.653   6.526  14.407 -0.3318 -0.8946  0.8004
 9556TIP3   OH250082   3.983   5.010  10.323  0.1657  0.9013  0.0497
 9556TIP3    H150083   3.899   4.970  10.301  1.1108 -0.6998 -0.8807
 9556TIP3    H250084   3.987   5.088  10.269 -0.4345  0.6238 -0.4102
 9557TIP3   OH250085   0.347   2.151  13.889 -0.0501  0.0159  0.0633
 9557TIP3    H150086   0.443   2.150  13.883 -0.1052 -1.1795 -1.0797
 9557TIP3    H250087   0.321   2.233  13.848  0.4813  0.4097  0.4990
 9558TIP3   OH250088   4.453   1.504  13.772 -0.0960 -0.1534 -0.0231
 9558TIP3    H150089   4.504   1.529  13.696  3.6050 -0.3358  2.1794
 9558TIP3    H250090   4.466   1.410  13.781 -2.3700 -0.5659 -0.3300
 9559TIP3   OH250091   1.756   0.605   4.495  0.2999 -0.2958  0.1120
 9559TIP3    H150092   1.737   0.698   4.484  2.6395  0.4547  1.6184
 9559TIP3    H250093   1.800   0.580   4.414  2.4173  0.8023  0.8221
 9560TIP3   OH250094   0.244   0.211   6.961 -0.4431  0.6304  0.1109
 9560TIP3    H150095   0.151   0.190   6.956 -0.4115  0.7957 -2.7150
 9560TIP3    H250096   0.248   0.306   6.946  0.2111  0.5522 -0.2332
 9561TIP3   OH250097   5.602   5.221  16.864 -0.6112  0.3687 -0.1371
 9561TIP3    H150098   5.574   5.297  16.914  1.8555  1.6076 -0.4983
 9561TIP3    H250099   5.645   5.164  16.927  0.6893  0.9777 -0.4432
 9562TIP3   OH250100   4.660   6.509  16.456 -0.4432 -0.4251 -0.1698
 9562TIP3    H150101   4.710   6.439  16.415  2.5240  0.9483  0.8141
 9562TIP3    H250102   4.683   6.504  16.549 -1.2285  1.0048  0.1384
 9563TIP3   OH250103   5.941   0.792  11.922 -0.5344  0.2534  0.1529
 9563TIP3    H150104   5.915   0.882  11.941  1.2109  0.2877  3.0594
 9563TIP3    H250105   6.005   0.771  11.990 -0.3532 -2.9705 -0.8404
 9564TIP3   OH250106   5.912   6.213  11.823 -0.4625 -0.1247 -0.1723
 9564TIP3    H150107   5.878   6.124  11.830  1.3988 -1.3567 -4.0214
 9564TIP3    H250108   5.971   6.222  11.898  0.7330 -2.9164 -0.6465
 9565TIP3   OH250109   1.684   6.354  14.533  0.2677  0.1480 -0.3220
 9565TIP3    H150110   1.666   6.362  14.439 -3.9376  1.7194  0.4195
 9565TIP3    H250111   1.679   6.444  14.566 -3.4174 -0.7150  2.0028
 9566TIP3   OH250112   3.958   2.561   4.882 -0.5249  0.4837  0.5248
 9566TIP3    H150113   4.023   2.624   4.915  1.2085  0.3619 -2.2967
 9566TIP3    H250114   3.888   2.616   4.847  0.0605  0.8416 -0.1379
 9567TIP3   OH250115   1.943   6.586   6.612  0.0018 -0.0621 -0.4412
 9567TIP3    H150116   1.994   6.654   6.654 -0.0574 -0.3125  0.0456
 9567TIP3    H250117   1.965   6.592   6.519  0.4952  0.1882 -0.3074
 9568TIP3   OH250118   2.907   3.816   6.319 -0.6033 -0.1841  0.6193
 9568TIP3    H150119   2.814   3.826   6.297 -1.2204 -3.4496  1.1260
 9568TIP3    H250120   2.911   3.833   6.413 -1.0039 -1.3970  0.8734
 9569TIP3   OH250121   6.688   4.068  14.564  0.3887 -0.1114  0.4047
 9569TIP3    H150122   6.608   4.074  14.617  2.0725 -0.2123  3.1487
 9569TIP3    H250123   6.706   3.974  14.559 -0.5556 -0.2328 -1.7724
 9570TIP3   OH250124   2.510   3.375   4.868 -0.0194  0.2001  0.0046
 9570TIP3    H150125   2.440   3.432   4.900 -0.2105 -1.6673  3.4799
 9570TIP3    H250126   2.518   3.395   4.775 -2.1202  3.6060  0.4076
 9571TIP3   OH250127   3.360   2.874   5.803 -0.1327  0.1800  0.2469
 9571TIP3    H150128   3.450   2.845   5.816 -0.3481  0.3679  2.5749
 9571TIP3    H250129   3.368   2.968   5.785  0.2563 -0.2922 -2.3437
 9572TIP3   OH250130   2.304   5.609  15.673 -0.0464  0.4794 -0.0048
 9572TIP3    H150131   2.339   5.648  15.593 -2.1909  0.8499 -0.8383
 9572TIP3    H250132   2.335   5.518  15.671  3.0228  1.4055  0.7386
 9573TIP3   OH250133   1.777   5.153  13.136  0.1367  0.7118  0.1107
 9573TIP3    H150134   1.791   5.247  13.149  0.1026  0.5559  1.4421
 9573TIP3    H250135   1.745   5.122  13.221  0.0246 -0.4847 -0.3505
 9574TIP3   OH250136   0.258   2.133   3.193  0.7473  0.1644 -0.4390
 9574TIP3    H150137   0.294   2.089   3.270  0.2048  1.7741  0.8014
 9574TIP3    H250138   0.190   2.074   3.161 -1.5913  0.9306  2.5550
 9575TIP3   OH250139   2.490   0.102  11.330  0.0515 -0.7261  0.2922
 9575TIP3    H150140   2.410   0.059  11.358 -0.9439  1.2185  0.6164
 9575TIP3    H250141   2.467   0.145  11.248  0.8495 -0.3989  0.2260
 9576TIP3   OH250142   6.196   2.937  11.030  0.2626 -0.7590 -0.6467
 9576TIP3    H150143   6.106   2.966  11.047  1.0502  2.0779 -0.7207
 9576TIP3    H250144   6.194   2.905  10.939 -0.5389  0.0615 -0.9397
 9577TIP3   OH250145   3.458   1.569  16.555  0.5277 -0.0658  0.5953
 9577TIP3    H150146   3.476   1.510  16.628 -1.3504 -2.1069 -0.4320
 9577TIP3    H250147   3.489   1.521  16.478 -2.9636 -0.8658 -0.5011
 9578TIP3   OH250148   4.624   2.983  17.036  0.4471  0.3823  0.1713
 9578TIP3    H150149   4.665   3.064  17.065  2.4141 -0.2633 -0.6171
 9578TIP3    H250150   4.574   2.952  17.111  1.2391  1.3497  1.1180
 9579TIP3   OH250151   4.683   0.864  11.098  0.3779  0.4536  0.2099
 9579TIP3    H150152   4.661   0.771  11.088  2.6189 -1.0255  5.4559
 9579TIP3    H250153   4.778   0.866  11.095  0.4111  2.3827  1.1499
 9580TIP3   OH250154   3.388   2.399  11.044  0.0557  0.1488  0.3022
 9580TIP3    H150155   3.401   2.377  11.137 -0.3564 -0.8050  0.1430
 9580TIP3    H250156   3.305   2.358  11.021  0.6358 -0.4795 -0.7502
 9581TIP3   OH250157   3.733   3.726  13.659  0.0853  0.4249 -0.2525
 9581TIP3    H150158   3.675   3.653  13.638  1.6603 -0.8514 -0.3583
 9581TIP3    H250159   3.736   3.777  13.578 -1.0733  0.6874 -0.1576
 9582TIP3   OH250160   4.818   3.895   5.546  0.1750  0.4920  0.2333
 9582TIP3    H150161   4.889   3.843   5.584 -0.2726  0.0137  0.4270
 9582TIP3    H250162   4.830   3.982   5.583 -0.1052  0.1004  1.2825
 9583TIP3   OH250163   4.229   5.374   1.811  0.0191  0.0710 -0.3197
 9583TIP3    H150164   4.153   5.428   1.792  0.2125  1.0105  1.3744
 9583TIP3    H250165   4.303   5.426   1.780  0.0920  0.0479 -0.1875
 9584TIP3   OH250166   6.752   2.922  15.743 -0.0385 -0.2375  0.6472
 9584TIP3    H150167   6.744   2.844  15.688  0.0990 -0.7550  1.3424
 9584TIP3    H250168   6.802   2.892  15.819  1.1368  0.8388  0.3395
 9585TIP3   OH250169   6.774   2.250  15.867  0.0871 -0.0934  0.0096
 9585TIP3    H150170   6.817   2.226  15.949 -0.9534  0.0464  0.6239
 9585TIP3    H250171   6.758   2.166  15.823  0.1276 -0.2154  0.2265
 9586TIP3   OH250172   2.986   3.199  13.680  0.5158  0.5847  0.2062
 9586TIP3    H150173   3.066   3.234  13.639  1.0830 -2.0442 -1.1465
 9586TIP3    H250174   2.976   3.112  13.643 -3.4879  1.0578 -0.3066
 9587TIP3   OH250175   1.839   4.767   4.008 -0.0028 -0.0026  0.0518
 9587TIP3    H150176   1.832   4.727   4.094  0.6876 -0.8094 -0.2575
 9587TIP3    H250177   1.876   4.854   4.024 -0.3158  0.0309  0.6045
 9588TIP3   OH250178   3.564   3.678  16.601 -0.4287  0.1310  0.0282
 9588TIP3    H150179   3.567   3.769  16.571 -1.5448 -0.4082 -1.8777
 9588TIP3    H250180   3.649   3.664  16.642 -0.6074  2.3044  1.2724
 9589TIP3   OH250181   5.860   1.532  13.839  0.0040 -0.3052  0.3508
 9589TIP3    H150182   5.946   1.491  13.827  0.3082  0.1489  0.9387
 9589TIP3    H250183   5.877   1.626  13.836 -0.7663 -0.1709 -1.5170
 9590TIP3   OH250184   6.614   5.093   5.347 -0.0042 -0.1377 -0.3091
 9590TIP3    H150185   6.709   5.085   5.338 -0.0329 -0.0832 -0.6797
 9590TIP3    H250186   6.601   5.121   5.438  0.3066 -0.5642 -0.1323
 9591TIP3   OH250187   6.632   0.175   5.615  0.0927 -0.0269  0.0491
 9591TIP3    H150188   6.616   0.258   5.658 -0.8163 -0.3391  0.3266
 9591TIP3    H250189   6.719   0.185   5.576  1.0551  0.2081  2.0948
 9592TIP3   OH250190   0.390   1.819   3.501  0.1522 -0.2552  0.0139
 9592TIP3    H150191   0.473   1.783   3.470  0.2446  0.6880 -0.8861
 9592TIP3    H250192   0.324   1.754   3.475  0.4405 -0.3124 -0.5696
 9593TIP3   OH250193   0.667   4.057  11.892 -0.0228  0.0909 -0.2756
 9593TIP3    H150194   0.660   3.973  11.847  2.7465 -1.2591  1.5204
 9593TIP3    H250195   0.584   4.101  11.874 -1.0365 -2.4217 -2.4190
 9594TIP3   OH250196   1.339   3.710  12.294  0.1629 -0.8845 -0.1820
 9594TIP3    H150197   1.384   3.637  12.251  0.9108 -0.4486 -0.1559
 9594TIP3    H250198   1.400   3.784  12.287 -0.0314 -0.5927  0.9195
 9595TIP3   OH250199   5.803   3.287  15.188 -0.0554 -0.6013 -0.5508
 9595TIP3    H150200   5.859   3.259  15.116 -0.1589 -0.8058 -0.5516
 9595TIP3    H250201   5.818   3.382  15.195  0.0097 -0.5934 -0.7923
 9596TIP3   OH250202   4.494   1.692  11.949  0.2417  0.1684  0.2000
 9596TIP3    H150203   4.447   1.758  11.999  3.3785  1.4069  1.7950
 9596TIP3    H250204   4.568   1.740  11.910  1.9722 -2.1302  0.4302
 9597TIP3   OH250205   2.974   1.547   3.382 -0.3946  0.1615  0.5389
 9597TIP3    H150206   3.058   1.502   3.388  0.4520  1.7225  0.9259
 9597TIP3    H250207   2.918   1.503   3.446  0.0410 -1.0273  0.1274
 9598TIP3   OH250208   2.381   6.122  13.140 -0.2167 -0.5036  0.1744
 9598TIP3    H150209   2.453   6.151  13.196 -0.2756  2.2997 -1.0026
 9598TIP3    H250210   2.394   6.170  13.058 -2.9099 -0.5989 -0.3989
 9599TIP3   OH250211   2.290   2.496  10.419 -0.1160  0.4669 -0.1326
 9599TIP3    H150212   2.304   2.581  10.379  2.1233 -0.2242 -0.9790
 9599TIP3    H250213   2.210   2.506  10.470 -0.4984  2.7343 -1.0742
 9600TIP3   OH250214   0.038   6.358  13.299 -0.6332  0.4663  0.2243
 9600TIP3    H150215  -0.049   6.332  13.329 -0.9926  2.7546  1.3662
 9600TIP3    H250216   0.098   6.326  13.367 -0.8912  1.1883  0.7996
 9601TIP3   OH250217   6.514   0.844   5.569  0.0788 -0.2323  0.3121
 9601TIP3    H150218   6.590   0.823   5.623 -0.1240  0.8442  1.0452
 9601TIP3    H250219   6.485   0.930   5.600 -1.4772 -0.6394  0.0959
 9602TIP3   OH250220   1.676   4.637   5.076  0.2838  0.2259 -0.0999
 9602TIP3    H150221   1.638   4.722   5.056  0.6715  0.7301  1.1818
 9602TIP3    H250222   1.726   4.614   4.998  0.2049  1.1863 -0.4495
 9603TIP3   OH250223   6.713   3.792   5.763  0.4534  0.3429 -0.0151
 9603TIP3    H150224   6.803   3.767   5.746 -0.2663 -2.4657 -0.1971
 9603TIP3    H250225   6.691   3.749   5.846 -1.0923 -0.1733 -0.6538
 9604TIP3   OH250226   2.068   5.685  15.776 -0.1775  0.1471  0.1162
 9604TIP3    H150227   2.089   5.779  15.781 -3.4214  0.9701  0.2525
 9604TIP3    H250228   2.148   5.645  15.742  2.1176  2.6087  2.0741
 9605TIP3   OH250229   0.989   2.438  12.961  0.4864  0.2845 -0.2034
 9605TIP3    H150230   0.914   2.495  12.977 -0.5512 -1.2665  0.7422
 9605TIP3    H250231   1.031   2.429  13.046  1.2873  0.5111 -0.5685
 9606TIP3   OH250232   4.230   0.286   1.000  0.2070 -0.5929 -0.4982
 9606TIP3    H150233   4.214   0.262   1.091 -2.2264 -0.3696 -0.8192
 9606TIP3    H250234   4.204   0.378   0.994  3.0946  0.3114 -0.8211
 9607TIP3   OH250235   5.243   4.913   1.215 -0.5088  0.1779 -0.0309
 9607TIP3    H150236   5.185   4.851   1.259 -0.0661 -1.2787 -1.4090
 9607TIP3    H250237   5.225   4.900   1.121  1.3696  0.3306 -0.4470
 9608TIP3   OH250238   0.533   2.925  15.117 -0.4340  0.1561  0.3879
 9608TIP3    H150239   0.591   2.974  15.059 -0.6871  0.3364  0.2828
 9608TIP3    H250240   0.453   2.913  15.065 -1.5970  2.4406  1.5307
 9609TIP3   OH250241   0.836   3.586   2.894 -0.2784 -0.5736 -0.2239
 9609TIP3    H150242   0.893   3.553   2.824 -1.4307  0.8938 -1.9600
 9609TIP3    H250243   0.764   3.523   2.898 -1.7988  0.8375 -2.6134
 9610TIP3   OH250244   5.962   4.152   5.202  0.2765  0.6687  0.3378
 9610TIP3    H150245   5.870   4.180   5.204 -1.0405 -3.0631 -0.1414
 9610TIP3    H250246   5.970   4.092   5.277  1.9730  0.0226 -0.3307
 9611TIP3   OH250247   4.892   0.124  11.287  0.4735 -0.0566  0.0724
 9611TIP3    H150248   4.937   0.129  11.202  0.4787 -0.7052  0.0279
 9611TIP3    H250249   4.814   0.072  11.268  1.3896 -1.8113  0.8199
 9612TIP3   OH250250   4.221   0.528  14.346 -0.1070 -0.5465 -0.8351
 9612TIP3    H150251   4.314   0.546  14.334  0.1007 -0.6128  0.5310
 9612TIP3    H250252   4.189   0.600  14.401 -0.6248 -1.0446 -0.4646
 9613TIP3   OH250253   0.059   5.551  15.438  0.4203 -0.6860  0.0067
 9613TIP3    H150254   0.071   5.638  15.475 -0.3956 -0.1159 -1.0417
 9613TIP3    H250255  -0.006   5.509  15.494  0.7679 -0.6202  0.4723
 9614TIP3   OH250256   2.117   2.255  11.929  0.0267  0.1560 -0.6248
 9614TIP3    H150257   2.175   2.329  11.913 -0.9850  0.4243 -3.7504
 9614TIP3    H250258   2.176   2.181  11.944  1.1960  0.7378 -2.0639
 9615TIP3   OH250259   1.545   1.985   4.467 -0.3712  0.2429  0.0726
 9615TIP3    H150260   1.638   2.007   4.474  0.1137 -1.3406 -0.9203
 9615TIP3    H250261   1.500   2.063   4.499  1.2094  2.5985 -2.8302
 9616TIP3   OH250262   0.746   4.184  13.887 -0.0141 -0.0315  0.5036
 9616TIP3    H150263   0.669   4.133  13.861  0.8129 -1.2334  0.3393
 9616TIP3    H250264   0.728   4.273  13.854 -0.7226 -0.6075 -0.7360
 9617TIP3   OH250265   4.869   6.003  16.823  0.5183  0.1425 -0.0346
 9617TIP3    H150266   4.917   5.921  16.814  1.2610  0.3694  1.5055
 9617TIP3    H250267   4.779   5.976  16.840  0.4262 -0.3074 -1.1222
 9618TIP3   OH250268   5.015   0.707   4.267  0.2104  0.4359 -0.3341
 9618TIP3    H150269   5.090   0.672   4.314 -0.1211 -1.0000 -0.8492
 9618TIP3    H250270   5.008   0.798   4.298  1.0151  0.0326  1.1101
 9619TIP3   OH250271   4.228   1.979   3.587 -0.3681 -0.5611 -0.2139
 9619TIP3    H150272   4.281   1.939   3.657  0.0334  0.4570  0.0854
 9619TIP3    H250273   4.287   2.043   3.547 -1.9788  2.2029  1.5426
 9620TIP3   OH250274   1.489   4.119  13.268  0.4858 -0.2483  0.5023
 9620TIP3    H150275   1.579   4.116  13.300  0.2163 -1.3869  1.1927
 9620TIP3    H250276   1.439   4.155  13.341  0.5042  1.4208 -0.2528
 9621TIP3   OH250277   5.038   3.984   6.630 -0.0905  0.0736  0.5267
 9621TIP3    H150278   5.079   3.966   6.546 -0.1384 -0.5105  0.6227
 9621TIP3    H250279   5.062   4.074   6.650 -0.8826  0.5468 -0.5655
 9622TIP3   OH250280   5.409   5.526  16.605  0.0111 -0.3210  0.3806
 9622TIP3    H150281   5.399   5.621  16.609 -2.5780 -0.5352  0.9927
 9622TIP3    H250282   5.413   5.498  16.696  0.8292 -0.8094  0.2056
 9623TIP3   OH250283   3.820   1.612   3.156  0.0210 -0.1555  0.3422
 9623TIP3    H150284   3.848   1.607   3.247  1.0415  0.3605  0.0713
 9623TIP3    H250285   3.790   1.524   3.135  1.0241 -0.6194  0.7944
 9624TIP3   OH250286   3.451   6.010  15.248  0.1809 -0.5853  0.0393
 9624TIP3    H150287   3.430   6.053  15.331 -0.3501  0.1418 -0.4532
 9624TIP3    H250288   3.516   6.067  15.207 -0.1212 -0.5273 -0.3726
 9625TIP3   OH250289   1.936   0.153   4.013 -0.4861  0.0087  0.5150
 9625TIP3    H150290   1.987   0.163   4.093 -1.4011  0.1669  1.0971
 9625TIP3    H250291   1.948   0.061   3.988  0.2784  0.1095  0.4934
 9626TIP3   OH250292   5.671   1.943  15.537 -0.7181  0.3610  0.1468
 9626TIP3    H150293   5.718   2.016  15.496 -1.4313  0.0635 -1.2504
 9626TIP3    H250294   5.695   1.948  15.630  2.7096 -0.2169 -0.5633
 9627TIP3   OH250295   0.662   2.963   2.667  0.3351  0.1381  0.6023
 9627TIP3    H150296   0.661   3.054   2.699 -0.6890  0.3361  0.0430
 9627TIP3    H250297   0.754   2.936   2.675  0.5448  1.0122  1.3542
 9628TIP3   OH250298   0.157   5.866  16.668 -0.1093  0.1649  0.3284
 9628TIP3    H150299   0.063   5.869  16.682 -0.3608 -0.3905 -1.1470
 9628TIP3    H250300   0.168   5.844  16.576  1.4686  0.4190  0.4215
 9629TIP3   OH250301   1.452   0.856  13.745 -0.0269  0.5733 -0.2285
 9629TIP3    H150302   1.496   0.796  13.806  0.1222  0.4741 -0.4323
 9629TIP3    H250303   1.413   0.799  13.679 -0.8182  0.6376  0.1796
 9630TIP3   OH250304   5.226   2.978   5.672  0.2408 -0.3627 -0.2074
 9630TIP3    H150305   5.231   3.062   5.718  0.4987 -0.9066  0.7926
 9630TIP3    H250306   5.221   2.913   5.742 -1.9917 -1.0928 -0.9647
 9631TIP3   OH250307   2.931   0.833  14.250 -0.3887  0.5095  0.3617
 9631TIP3    H150308   2.919   0.753  14.300  0.4233  0.5830  0.6884
 9631TIP3    H250309   2.845   0.875  14.250 -0.8180 -0.3681  0.1632
 9632TIP3   OH250310   3.138   6.521  13.947  0.6491 -0.3792 -0.4814
 9632TIP3    H150311   3.175   6.609  13.952  0.0939 -0.0444 -1.8340
 9632TIP3    H250312   3.209   6.463  13.977  0.6600  0.5630  1.4873
 9633TIP3   OH250313   1.700   5.416   3.981 -0.5775  0.1345  0.4547
 9633TIP3    H150314   1.725   5.500   4.019  0.8239 -1.5538  3.6750
 9633TIP3    H250315   1.780   5.363   3.983 -1.4597 -1.3915 -1.2338
 9634TIP3   OH250316   4.932   4.300  15.419  0.0862 -0.1411 -0.3833
 9634TIP3    H150317   4.850   4.251  15.416 -0.0078  0.0384 -0.8162
 9634TIP3    H250318   4.964   4.288  15.508  0.4020 -1.5441 -0.6619
 9635TIP3   OH250319   0.220   2.213   5.180 -0.3800 -0.8971 -0.0721
 9635TIP3    H150320   0.166   2.284   5.146  0.0998 -0.0565  0.8760
 9635TIP3    H250321   0.300   2.216   5.127 -0.0699 -0.2662  0.4197
 9636TIP3   OH250322   3.576   0.086   4.512  0.1284 -0.1629 -0.0195
 9636TIP3    H150323   3.620   0.151   4.567  1.4781  0.0479 -1.3057
 9636TIP3    H250324   3.496   0.065   4.560  0.2581  1.5368  1.0205
 9637TIP3   OH250325   3.151   1.994   5.683 -0.0863  0.1011  0.2520
 9637TIP3    H150326   3.151   1.923   5.619 -0.6706 -0.5005  0.9015
 9637TIP3    H250327   3.139   2.073   5.630  0.1764 -0.3130 -0.4432
 9638TIP3   OH250328   1.085   5.283   5.386 -0.2558 -0.0924 -0.1994
 9638TIP3    H150329   1.161   5.237   5.349  0.8011  1.7978 -0.5181
 9638TIP3    H250330   1.113   5.307   5.474 -1.4604 -1.5137  0.6123
 9639TIP3   OH250331   1.274   5.032   4.900 -0.3925  0.3740  0.5066
 9639TIP3    H150332   1.185   4.998   4.911 -0.3640  0.5145  1.1684
 9639TIP3    H250333   1.309   5.037   4.988 -0.0563  1.2243  0.3315
 9640TIP3   OH250334   1.390   2.186   4.594  0.5323  0.4335 -0.1394
 9640TIP3    H150335   1.378   2.137   4.675 -2.4989 -0.2498 -0.8575
 9640TIP3    H250336   1.428   2.270   4.622 -0.6106  0.3087  2.0302
 9641TIP3   OH250337   0.164   2.105  13.602  0.1922 -0.3555  0.1267
 9641TIP3    H150338   0.238   2.047  13.619  1.0373  0.8599  0.7637
 9641TIP3    H250339   0.192   2.190  13.637 -1.4930  0.1429  0.3378
 9642TIP3   OH250340   5.599   3.581  15.069 -0.0758  0.5437  0.7565
 9642TIP3    H150341   5.676   3.591  15.124 -0.3773 -1.9752  1.7633
 9642TIP3    H250342   5.532   3.635  15.111  0.2002  0.0213  1.9112
 9643TIP3   OH250343   5.361   1.229  13.542  0.1810  0.6356  0.1380
 9643TIP3    H150344   5.355   1.240  13.447  0.1178  0.4905  0.1247
 9643TIP3    H250345   5.417   1.301  13.571  3.2134 -1.2903 -0.4426
 9644TIP3   OH250346   0.926   3.187   3.248 -0.0030 -0.0788 -0.3395
 9644TIP3    H150347   0.853   3.249   3.251  0.1238  0.0407  2.7748
 9644TIP3    H250348   0.888   3.103   3.272  0.0798 -1.0763 -3.2949
 9645TIP3   OH250349   3.748   3.312   0.446  1.1650  0.0319 -0.2637
 9645TIP3    H150350   3.732   3.261   0.367 -0.1781  0.1292 -0.0818
 9645TIP3    H250351   3.694   3.390   0.435 -1.8326 -1.4594  2.1590
 9646TIP3   OH250352   5.021   4.063   4.073  1.2395  0.1467  0.1103
 9646TIP3    H150353   5.097   4.099   4.027  1.3937 -0.6277 -0.2549
 9646TIP3    H250354   5.059   4.000   4.135  0.8056 -1.6635 -1.3894
 9647TIP3   OH250355   5.131   4.868   3.734 -0.3921 -0.0476  0.3836
 9647TIP3    H150356   5.041   4.901   3.736 -0.6981 -0.8818  1.1747
 9647TIP3    H250357   5.185   4.946   3.746 -0.9121  0.7172 -1.7162
 9648TIP3   OH250358   5.342   6.018  12.378  0.2115  0.1883 -0.0128
 9648TIP3    H150359   5.317   6.004  12.470  2.2623  0.5435  0.6364
 9648TIP3    H250360   5.348   5.930  12.341  0.7828 -0.0292  0.5890
 9649TIP3   OH250361   1.133   0.062   4.489  0.0797 -0.3653  0.0276
 9649TIP3    H150362   1.199   0.027   4.430 -0.1687  0.7955 -0.9805
 9649TIP3    H250363   1.057   0.078   4.434 -0.4403 -0.0150  0.8202
 9650TIP3   OH250364   3.096   2.448   4.973 -0.3551  0.1142  0.1512
 9650TIP3    H150365   3.046   2.527   4.994 -1.2141 -0.6343  1.0653
 9650TIP3    H250366   3.061   2.419   4.889 -0.1045  0.6467 -0.1401
 9651TIP3   OH250367   5.741   5.852   3.370 -0.0942 -0.4295 -0.0825
 9651TIP3    H150368   5.704   5.897   3.294  0.6813 -0.1371 -0.2918
 9651TIP3    H250369   5.807   5.912   3.404 -0.2633 -0.6653  0.6783
 9652TIP3   OH250370   6.771   5.431   2.850 -0.1521  0.8942  0.7677
 9652TIP3    H150371   6.818   5.352   2.874 -1.3210 -0.1694 -0.2944
 9652TIP3    H250372   6.823   5.470   2.779  1.4952  2.2357  2.5777
 9653TIP3   OH250373   2.388   5.198  16.246 -0.1123  0.1006 -0.0524
 9653TIP3    H150374   2.353   5.201  16.157  1.8788 -0.3394 -0.9152
 9653TIP3    H250375   2.480   5.171  16.234  0.4234  0.8199  2.0763
 9654TIP3   OH250376   4.758   3.269   4.256 -0.3613 -0.6393  0.2354
 9654TIP3    H150377   4.687   3.331   4.238  0.4479  0.2342  0.0214
 9654TIP3    H250378   4.812   3.313   4.321  0.4822 -0.9313 -0.2616
 9655TIP3   OH250379   2.649   1.011  16.677  0.2224  0.0035  0.6399
 9655TIP3    H150380   2.700   1.020  16.596  0.1848 -0.5584  0.5523
 9655TIP3    H250381   2.607   0.925  16.670  2.6540 -1.5209  2.5957
 9656TIP3   OH250382   0.083   4.651  16.414 -0.8479 -0.6692  0.1277
 9656TIP3    H150383   0.007   4.637  16.471 -1.1281  0.3666  0.0449
 9656TIP3    H250384   0.076   4.744  16.389 -0.0888 -0.8155 -0.6573
 9657TIP3   OH250385   0.928   3.962  11.501 -0.5206  0.7169 -1.0733
 9657TIP3    H150386   0.861   4.028  11.482 -1.0359 -0.1888 -2.5690
 9657TIP3    H250387   0.967   3.942  11.417  0.0896 -0.3977 -0.5444
 9658TIP3   OH250388   4.439   5.768   1.316  0.2736  0.5169  0.3507
 9658TIP3    H150389   4.456   5.863   1.319  1.0425  0.4364 -0.7830
 9658TIP3    H250390   4.358   5.760   1.267  0.1861  0.5934  0.4822
 9659TIP3   OH250391   5.826   3.573  15.253 -0.2834 -0.5588 -0.1632
 9659TIP3    H150392   5.751   3.597  15.307  0.3436 -1.8480  1.3792
 9659TIP3    H250393   5.893   3.638  15.275  0.1319 -1.3623  1.0346
 9660TIP3   OH250394   1.719   3.847   6.228  0.7737  0.0166  0.6833
 9660TIP3    H150395   1.681   3.840   6.140 -1.1189 -1.0479  1.5106
 9660TIP3    H250396   1.813   3.833   6.215  0.4607 -0.7037 -1.1028
 9661TIP3   OH250397   5.934   1.405  16.833 -0.5865  0.0995  0.1801
 9661TIP3    H150398   6.011   1.433  16.784 -0.8650 -0.7778 -0.7886
 9661TIP3    H250399   5.898   1.332  16.782 -1.2410 -0.4385  1.3689
 9662TIP3   OH250400   5.058   3.801   6.101 -0.2615 -0.1663 -0.7849
 9662TIP3    H150401   4.974   3.756   6.093 -1.1702  1.0120  1.4076
 9662TIP3    H250402   5.035   3.891   6.124  1.5953  0.4352 -1.0872
 9663TIP3   OH250403   6.341   3.550  14.610 -0.4301 -0.3627  0.3065
 9663TIP3    H150404   6.260   3.553  14.559 -0.8524  0.9725  0.9985
 9663TIP3    H250405   6.371   3.641  14.611  0.3184 -0.6117  1.2605
 9664TIP3   OH250406   4.689   1.539  16.667  0.0711  0.2518  0.3372
 9664TIP3    H150407   4.718   1.548  16.576 -0.2862 -0.6944  0.1163
 9664TIP3    H250408   4.630   1.464  16.666 -1.5341  1.4585  0.9880
 9665TIP3   OH250409   4.947   3.720  15.684  0.1631 -0.3033 -0.4094
 9665TIP3    H150410   4.911   3.807  15.664  0.5898  0.5537  2.1342
 9665TIP3    H250411   5.027   3.715  15.632 -1.0031 -0.1966 -2.3461
 9666TIP3   OH250412   2.351   0.176  12.130 -0.0120  0.0667 -0.0830
 9666TIP3    H150413   2.318   0.250  12.080  0.1681  0.4189  0.3127
 9666TIP3    H250414   2.444   0.194  12.142  0.4773 -1.1737 -1.6506
 9667TIP3   OH250415   3.255   6.733  15.176 -0.2161 -0.3515  0.9631
 9667TIP3    H150416   3.185   6.795  15.195 -2.8331 -2.9672  0.6600
 9667TIP3    H250417   3.250   6.669  15.247  1.5797 -0.8863  0.6525
 9668TIP3   OH250418   4.838   4.739   1.532  0.2477 -0.4153  0.1091
 9668TIP3    H150419   4.874   4.671   1.474 -0.6655 -2.2278  1.5503
 9668TIP3    H250420   4.748   4.710   1.550  0.0102  0.9046  1.2074
 9669TIP3   OH250421   3.704   4.770   3.776 -0.3170  0.0698  0.2161
 9669TIP3    H150422   3.706   4.687   3.728  0.2293  0.0864  0.2037
 9669TIP3    H250423   3.745   4.751   3.860 -3.8883 -0.7050  1.9532
 9670TIP3   OH250424   2.711   1.899   1.441  0.1493 -0.0435  0.2408
 9670TIP3    H150425   2.687   1.905   1.348  1.5747  0.5609 -0.1110
 9670TIP3    H250426   2.769   1.824   1.446  0.2168  0.0326  0.6145
 9671TIP3   OH250427   5.369   2.508  12.380  0.3930  0.1202  0.0947
 9671TIP3    H150428   5.339   2.417  12.384  1.1849 -0.1510 -0.0393
 9671TIP3    H250429   5.360   2.540  12.470  1.5626 -0.5775  0.4915
 9672TIP3   OH250430   1.444   3.070   4.162  0.0031 -0.0187  0.1249
 9672TIP3    H150431   1.434   3.002   4.096  1.8447 -0.1749 -0.0433
 9672TIP3    H250432   1.355   3.084   4.196 -0.9148 -0.2839 -2.0007
 9673TIP3   OH250433   2.451   5.615  12.718 -0.0639  0.5226  0.1331
 9673TIP3    H150434   2.370   5.653  12.751 -0.3914 -0.3309  0.3471
 9673TIP3    H250435   2.441   5.612  12.623 -0.7804 -0.6419  0.2293
 9674TIP3   OH250436   3.429   2.599   4.254 -0.2110 -0.0146  0.2455
 9674TIP3    H150437   3.407   2.514   4.216 -0.2106 -0.2188  0.6957
 9674TIP3    H250438   3.468   2.578   4.339  1.0419  0.3577 -0.1993
 9675TIP3   OH250439   6.228   6.329   1.422  0.2494  0.0761 -0.0459
 9675TIP3    H150440   6.199   6.313   1.332  1.5333  0.5572 -0.5787
 9675TIP3    H250441   6.197   6.417   1.441  1.5527  0.7185 -0.7315
 9676TIP3   OH250442   0.998   1.805  15.716  0.1144 -0.2243  0.1504
 9676TIP3    H150443   1.079   1.773  15.677 -0.5057 -3.2425  1.0675
 9676TIP3    H250444   0.933   1.798  15.647  0.5123  2.2263 -0.5950
 9677TIP3   OH250445   5.477   2.561   1.803  0.5378  0.5422 -0.3951
 9677TIP3    H150446   5.515   2.640   1.765  2.4192  0.0867  0.4131
 9677TIP3    H250447   5.388   2.586   1.825  1.5927  3.0797  1.5216
 9678TIP3   OH250448   5.774   2.488  16.037 -0.1180  0.3006 -0.1944
 9678TIP3    H150449   5.731   2.492  15.952  0.3901  0.2550 -0.4554
 9678TIP3    H250450   5.763   2.576  16.073  2.2696  1.2746 -1.6148
 9679TIP3   OH250451   4.585   1.983   2.127 -0.1090  0.3339  0.0402
 9679TIP3    H150452   4.562   1.997   2.036  3.3537  2.2020 -0.6986
 9679TIP3    H250453   4.588   1.887   2.137 -2.1636  0.0837 -1.2377
 9680TIP3   OH250454   1.541   3.337  16.899  0.6372 -0.0263  0.3779
 9680TIP3    H150455   1.491   3.418  16.903 -0.1919 -0.5654  1.7539
 9680TIP3    H250456   1.584   3.330  16.985  0.2235 -1.3103  0.5064
 9681TIP3   OH250457   2.191   4.940   6.257 -0.3450 -0.2212  0.5215
 9681TIP3    H150458   2.231   5.019   6.221 -0.8619 -0.0155  0.3803
 9681TIP3    H250459   2.097   4.955   6.248 -0.4635 -1.8499 -1.7230
 9682TIP3   OH250460   3.849   5.272   1.856  0.6668  0.2362  0.1686
 9682TIP3    H150461   3.830   5.193   1.806  0.3542 -0.2530  1.0378
 9682TIP3    H250462   3.899   5.240   1.932  1.2262  0.9734  0.1241
 9683TIP3   OH250463   1.388   2.388  17.173  0.0771 -0.8382  0.1299
 9683TIP3    H150464   1.446   2.313  17.164  1.2725 -0.0591  1.1034
 9683TIP3    H250465   1.446   2.464  17.170 -0.8661 -0.0451  1.2231
 9684TIP3   OH250466   4.572   3.561  10.168  0.4164  0.3700 -0.1365
 9684TIP3    H150467   4.582   3.468  10.146  0.3038  0.5744 -1.1064
 9684TIP3    H250468   4.482   3.568  10.200  0.6014  0.0496  0.4643
 9685TIP3   OH250469   3.341   5.225   4.079  0.4898  0.1522 -0.2460
 9685TIP3    H150470   3.278   5.286   4.040 -0.4929 -1.3692 -1.1526
 9685TIP3    H250471   3.300   5.199   4.162  1.3863  1.4422  0.6433
 9686TIP3   OH250472   1.680   2.944   3.280  0.7254  0.3668  0.0259
 9686TIP3    H150473   1.611   2.880   3.297  0.6498  0.5006  0.2246
 9686TIP3    H250474   1.762   2.898   3.300  1.1287 -1.3896 -4.5232
 9687TIP3   OH250475   3.614   4.215  15.196  0.2316 -0.4613  0.3522
 9687TIP3    H150476   3.528   4.214  15.238 -0.1016 -2.3867 -0.2604
 9687TIP3    H250477   3.595   4.220  15.102  0.7933 -0.5842  0.2284
 9688TIP3   OH250478   5.455   5.157  12.922  0.4857  0.1099  0.2386
 9688TIP3    H150479   5.453   5.142  13.016  0.3793 -0.2589  0.1759
 9688TIP3    H250480   5.439   5.071  12.883 -0.1040  0.3731 -0.1126
 9689TIP3   OH250481   2.532   3.055  11.430 -0.0156 -0.3961 -0.0959
 9689TIP3    H150482   2.560   3.145  11.413  1.4391 -1.1784 -2.2311
 9689TIP3    H250483   2.437   3.060  11.435  0.1055  1.5230  1.8296
 9690TIP3   OH250484   3.678   5.083  11.746 -0.3370 -0.1391  0.5460
 9690TIP3    H150485   3.679   5.110  11.654 -0.5089  0.0650  0.6029
 9690TIP3    H250486   3.692   5.165  11.794  2.0602 -0.5271  0.6495
 9691TIP3   OH250487   0.725   5.257  13.418 -0.0679  0.6492  0.0114
 9691TIP3    H150488   0.747   5.278  13.509 -0.4684  1.6955 -0.1241
 9691TIP3    H250489   0.768   5.173  13.402  0.7570  0.8925  0.8781
 9692TIP3   OH250490   1.766   6.523  13.044  0.3176  0.1569  0.3702
 9692TIP3    H150491   1.809   6.459  13.101  0.5212 -0.0445  0.0020
 9692TIP3    H250492   1.673   6.513  13.063  0.3765  0.0221  0.5947
 9693TIP3   OH250493   2.845   0.770   4.084 -0.2566 -0.6469 -0.6121
 9693TIP3    H150494   2.805   0.763   4.171 -0.6232 -0.0970 -0.7352
 9693TIP3    H250495   2.781   0.817   4.031  0.2424 -0.4058 -1.0130
 9694TIP3   OH250496   3.686   6.668   5.409  0.2341 -0.1099 -0.1851
 9694TIP3    H150497   3.673   6.573   5.411  0.0893 -0.1303 -1.5176
 9694TIP3    H250498   3.766   6.680   5.358 -0.2414  0.5217 -0.7934
 9695TIP3   OH250499   5.525   6.709  10.788  0.0088  0.3387  0.1848
 9695TIP3    H150500   5.455   6.689  10.850 -1.5201 -0.3024 -1.6614
 9695TIP3    H250501   5.489   6.777  10.732  1.1793  0.5736 -0.3121
 9696TIP3   OH250502   5.484   5.232   2.588  0.6459 -0.1264 -0.0378
 9696TIP3    H150503   5.562   5.181   2.564 -0.6035 -1.4864 -1.4684
 9696TIP3    H250504   5.495   5.316   2.542  0.2716 -1.1558 -2.1636
 9697TIP3   OH250505   3.706   5.641  13.778  0.2102  0.6003  0.2717
 9697TIP3    H150506   3.706   5.560  13.727  0.5695  1.4112 -1.0716
 9697TIP3    H250507   3.614   5.657  13.798  0.1545 -0.2287  0.7230
 9698TIP3   OH250508   4.107   3.635   4.864  0.4444 -0.0331  0.5029
 9698TIP3    H150509   4.133   3.555   4.817 -0.2920  0.1660 -0.2792
 9698TIP3    H250510   4.011   3.632   4.864  0.4266  0.1392  1.7396
 9699TIP3   OH250511   0.921   1.564  15.356  0.9147 -0.3703 -0.0161
 9699TIP3    H150512   0.923   1.503  15.282 -0.0825 -1.9614  1.2294
 9699TIP3    H250513   0.906   1.650  15.315 -1.3246 -1.4190 -1.5633
 9700TIP3   OH250514   6.479   5.237   0.805 -0.0633 -0.1864  0.2007
 9700TIP3    H150515   6.385   5.246   0.814 -0.0619  0.8763 -0.7226
 9700TIP3    H250516   6.494   5.142   0.806 -1.2467 -0.4004 -0.6812
 9701TIP3   OH250517   4.978   3.879  15.371 -0.5090  0.3926  0.3090
 9701TIP3    H150518   4.997   3.861  15.279  1.3016 -0.7124  0.8424
 9701TIP3    H250519   4.887   3.852  15.382 -0.7915  0.6509 -1.1665
 9702TIP3   OH250520   1.383   1.445  16.722 -0.2813 -0.0452 -0.0886
 9702TIP3    H150521   1.478   1.433  16.727 -0.3515 -1.6093 -1.6001
 9702TIP3    H250522   1.372   1.530  16.680  0.4488 -0.0351 -0.2757
 9703TIP3   OH250523   5.700   2.839   0.580 -0.4177 -0.3699 -0.0856
 9703TIP3    H150524   5.700   2.783   0.658  0.3892 -0.4374 -0.1254
 9703TIP3    H250525   5.682   2.927   0.614  2.1167  0.0012  0.5244
 9704TIP3   OH250526   6.531   4.551   4.064  0.0546 -0.3707  0.5181
 9704TIP3    H150527   6.501   4.500   4.140  0.0299 -0.5313  0.3992
 9704TIP3    H250528   6.468   4.623   4.059 -0.3604 -0.7476  0.2251
 9705TIP3   OH250529   2.678   6.499   0.295 -0.0868 -0.3061 -0.0846
 9705TIP3    H150530   2.677   6.418   0.345  1.0233  0.8311  1.8885
 9705TIP3    H250531   2.768   6.531   0.303  0.0774  0.0858 -2.6310
 9706TIP3   OH250532   6.270   1.733   6.313 -0.6489 -0.1996 -0.1100
 9706TIP3    H150533   6.294   1.704   6.401  1.1292  0.6123 -0.2875
 9706TIP3    H250534   6.291   1.826   6.311  0.3799 -0.4187 -1.7172
 9707TIP3   OH250535   5.047   0.391  14.057  0.4195  0.3923 -0.4648
 9707TIP3    H150536   5.041   0.336  13.979 -0.1000  0.8746 -0.7709
 9707TIP3    H250537   5.105   0.462  14.032 -0.8008  1.2780 -0.8721
 9708TIP3   OH250538   4.794   1.110   1.741  0.1742  0.1265  0.7040
 9708TIP3    H150539   4.857   1.147   1.679 -0.1787 -1.3241 -0.5752
 9708TIP3    H250540   4.710   1.114   1.695 -0.5719  1.3631  2.1027
 9709TIP3   OH250541   1.823   3.623   0.557 -0.6184  0.1412  0.2029
 9709TIP3    H150542   1.885   3.620   0.484  0.5809  2.0013  1.0612
 9709TIP3    H250543   1.741   3.653   0.518 -1.1450 -2.6293 -1.0082
 9710TIP3   OH250544   0.336   4.349   0.297 -0.6180  0.2410 -0.1669
 9710TIP3    H150545   0.258   4.314   0.338 -0.7265 -0.5051 -0.9895
 9710TIP3    H250546   0.314   4.441   0.278 -0.9677  0.2767  0.3922
 9711TIP3   OH250547   0.276   1.196   3.459  0.0296 -0.2407  0.5731
 9711TIP3    H150548   0.253   1.283   3.493 -0.6776 -0.3923  0.5017
 9711TIP3    H250549   0.304   1.147   3.536  1.6042  0.3973  0.4489
 9712TIP3   OH250550   3.384   4.551   1.351 -0.1369  0.1281  0.1500
 9712TIP3    H150551   3.323   4.517   1.416 -0.5588  0.3220 -0.1372
 9712TIP3    H250552   3.408   4.474   1.299 -0.5617  0.1422 -0.0743
 9713TIP3   OH250553   5.136   5.360   1.049  0.1553  0.5120 -0.5696
 9713TIP3    H150554   5.206   5.389   0.990 -1.2829  0.0748 -2.6058
 9713TIP3    H250555   5.124   5.433   1.109  3.0179  0.1991  0.5312
 9714TIP3   OH250556   2.635   1.506   5.178 -0.1178  0.5676 -0.2530
 9714TIP3    H150557   2.673   1.564   5.244 -2.6207  1.5997  0.3796
 9714TIP3    H250558   2.638   1.557   5.096  0.6626  0.2785 -0.4126
 9715TIP3   OH250559   1.134   0.600   5.717 -0.0186 -0.3347  0.2863
 9715TIP3    H150560   1.186   0.586   5.639  3.1929  1.2006  1.9593
 9715TIP3    H250561   1.133   0.515   5.761  0.8861 -0.4607  0.0815
 9716TIP3   OH250562   1.920   3.759  15.841 -0.2789  0.3713 -0.6363
 9716TIP3    H150563   1.827   3.752  15.862  0.0642 -0.2956  0.7908
 9716TIP3    H250564   1.942   3.851  15.857 -1.3049  1.3518 -3.9744
 9717TIP3   OH250565   2.045   1.761  14.186 -0.1222  0.0468 -0.6089
 9717TIP3    H150566   1.985   1.829  14.156  0.3030 -0.1278 -1.9079
 9717TIP3    H250567   1.988   1.695  14.225 -0.8313 -0.2875 -2.1470
 9718TIP3   OH250568   0.455   0.152   1.785 -0.2189  0.1159 -0.0728
 9718TIP3    H150569   0.394   0.079   1.793  1.4794 -1.1828  1.8279
 9718TIP3    H250570   0.446   0.201   1.867  0.5743  0.4847 -0.1917
 9719TIP3   OH250571   2.902   5.541   5.373 -0.4374  0.1208 -0.0157
 9719TIP3    H150572   2.857   5.456   5.364 -1.6380  0.7673 -0.3634
 9719TIP3    H250573   2.890   5.583   5.288 -0.2191  0.8128  0.2891
 9720TIP3   OH250574   5.998   6.454  15.602  0.1329 -0.3869 -0.4006
 9720TIP3    H150575   6.055   6.423  15.672 -0.6776 -0.9701  0.0219
 9720TIP3    H250576   5.918   6.402  15.611 -1.5667  2.1712  0.7682
 9721TIP3   OH250577   5.641   1.352  12.413 -0.5060 -0.0758 -0.0770
 9721TIP3    H150578   5.711   1.406  12.451 -0.8233  0.0813  0.3030
 9721TIP3    H250579   5.561   1.387  12.452 -0.6281 -1.6799  1.2632
 9722TIP3   OH250580   0.977   0.583   4.479 -0.0767  0.2839 -0.3456
 9722TIP3    H150581   1.052   0.558   4.425  1.1522  0.6437  1.1222
 9722TIP3    H250582   1.000   0.669   4.513 -0.9047  0.1410  0.6130
 9723TIP3   OH250583   3.427   4.667   2.421  0.2254 -0.0838 -0.5895
 9723TIP3    H150584   3.479   4.683   2.342  0.9308  0.2981 -0.0501
 9723TIP3    H250585   3.451   4.737   2.481  1.8100 -1.8699  1.0329
 9724TIP3   OH250586   4.179   4.288  14.222 -0.0630  0.0643 -0.2217
 9724TIP3    H150587   4.273   4.268  14.224 -0.4234 -2.0449 -1.6405
 9724TIP3    H250588   4.172   4.371  14.269  2.3641 -0.2454  0.8517
 9725TIP3   OH250589   6.078   5.600   6.156 -0.1010 -0.2702 -0.8183
 9725TIP3    H150590   6.153   5.652   6.184 -0.2393 -0.6020  0.1943
 9725TIP3    H250591   6.010   5.616   6.221 -0.4383 -1.0481 -0.9600
 9726TIP3   OH250592   3.343   5.323  15.134  0.2379  1.1629 -0.1299
 9726TIP3    H150593   3.430   5.337  15.096  0.0791  0.7442 -0.6668
 9726TIP3    H250594   3.348   5.360  15.222  1.4600 -0.2926  0.4616
 9727TIP3   OH250595   0.512   1.961  15.933  0.1755 -0.2064  0.3509
 9727TIP3    H150596   0.438   1.972  15.873  0.5096  0.6766  0.0788
 9727TIP3    H250597   0.545   2.050  15.946  0.2407 -0.4161  1.6912
 9728TIP3   OH250598   1.879   0.096   4.975 -0.3764 -0.2091  0.1399
 9728TIP3    H150599   1.877   0.165   4.909 -2.3080  1.0892  1.4712
 9728TIP3    H250600   1.789   0.090   5.007  0.1639 -1.9406  1.5156
 9729TIP3   OH250601   1.566   6.681  10.997  0.2973 -0.5908  0.4610
 9729TIP3    H150602   1.556   6.732  11.077  0.7447 -0.0180  0.1626
 9729TIP3    H250603   1.644   6.717  10.956 -0.3775 -0.3185 -0.6332
 9730TIP3   OH250604   5.999   0.783  13.316  0.5416 -0.4511 -0.4347
 9730TIP3    H150605   6.033   0.871  13.303 -1.8750  0.5326 -0.6561
 9730TIP3    H250606   5.994   0.772  13.411  2.9508 -1.2871 -0.3485
 9731TIP3   OH250607   2.291   2.640  12.277 -0.0228 -0.4770  0.3247
 9731TIP3    H150608   2.278   2.695  12.354 -1.3365  2.0833 -1.5784
 9731TIP3    H250609   2.204   2.604  12.258  0.4360 -1.6822  0.4248
 9732TIP3   OH250610   5.483   3.247  12.248 -0.3898  0.1017  0.4792
 9732TIP3    H150611   5.478   3.342  12.238 -0.8950  0.0346  0.0658
 9732TIP3    H250612   5.571   3.224  12.216 -0.6804  0.3035 -0.4970
 9733TIP3   OH250613   5.135   6.178   5.521 -0.1850  0.2547 -0.2255
 9733TIP3    H150614   5.162   6.140   5.605  0.1791  0.4168 -0.2653
 9733TIP3    H250615   5.052   6.136   5.501 -1.4046  1.8009  1.2919
 9734TIP3   OH250616   4.981   2.250   1.341 -1.4115  0.3120  0.3123
 9734TIP3    H150617   5.008   2.172   1.390 -0.3227  0.0896 -0.5948
 9734TIP3    H250618   4.890   2.265   1.367 -0.9185  0.1213  2.2647
 9735TIP3   OH250619   5.420   1.124  14.857 -0.1295  0.1710 -0.1358
 9735TIP3    H150620   5.355   1.063  14.822  0.6360 -0.2663 -0.8222
 9735TIP3    H250621   5.499   1.072  14.867 -0.2156  0.3476  2.0181
 9736TIP3   OH250622   4.192   2.826   1.981  0.3265  0.2395 -0.1300
 9736TIP3    H150623   4.233   2.903   2.020 -0.2568 -0.2218  1.5078
 9736TIP3    H250624   4.098   2.840   1.994  0.2293 -0.8991  0.5864
 9737TIP3   OH250625   4.993   2.264   1.080  0.6674  0.0591 -0.7590
 9737TIP3    H150626   4.984   2.269   1.175  0.7526 -0.0126 -0.7473
 9737TIP3    H250627   4.959   2.178   1.057 -0.2197  0.4340 -0.8953
 9738TIP3   OH250628   2.511   4.147  16.926 -0.2036 -0.0449 -0.3192
 9738TIP3    H150629   2.567   4.083  16.970 -1.2774 -0.6328  0.2341
 9738TIP3    H250630   2.535   4.141  16.834 -0.0310 -0.9843 -0.2228
 9739TIP3   OH250631   3.095   3.194   4.211  0.1969 -0.2839 -0.0370
 9739TIP3    H150632   3.167   3.141   4.177  1.8178  1.6582  0.1646
 9739TIP3    H250633   3.066   3.147   4.290  3.0679  0.1634  1.4159
 9740TIP3   OH250634   5.484   0.951   3.374 -0.4464 -0.0720 -0.1412
 9740TIP3    H150635   5.472   0.860   3.347  2.2131 -0.8328  0.9677
 9740TIP3    H250636   5.528   0.992   3.300 -0.3165 -0.0750 -0.0656
 9741TIP3   OH250637   5.144   6.667  11.821 -0.3385 -0.0158  0.7797
 9741TIP3    H150638   5.090   6.629  11.751 -0.7205  2.7604 -0.5744
 9741TIP3    H250639   5.081   6.696  11.887 -0.4057  1.5753  0.0508
 9742TIP3   OH250640   2.482   1.588  12.720  0.1614 -0.0288  0.5819
 9742TIP3    H150641   2.495   1.654  12.652 -3.0453  1.6085  1.3624
 9742TIP3    H250642   2.527   1.623  12.796  0.1863  0.2531  0.4401
 9743TIP3   OH250643   3.959   4.509   1.497  0.4729 -0.6184  0.0682
 9743TIP3    H150644   4.041   4.479   1.536  0.5221 -1.0715 -0.3761
 9743TIP3    H250645   3.967   4.605   1.496  0.3405 -0.5786  1.4306
 9744TIP3   OH250646   5.082   1.146  11.378 -0.2189  0.0305 -0.2285
 9744TIP3    H150647   5.081   1.188  11.464 -2.2348 -1.2107  0.4249
 9744TIP3    H250648   5.165   1.173  11.339  0.6861  0.7456  2.0334
 9745TIP3   OH250649   0.303   5.991  15.845 -0.7419 -0.0075  0.3578
 9745TIP3    H150650   0.304   5.969  15.938 -1.9787 -0.4266  0.2906
 9745TIP3    H250651   0.233   6.056  15.836 -0.7265 -0.0696 -0.2915
 9746TIP3   OH250652   3.465   4.445   4.484 -0.0574 -0.4512 -0.0512
 9746TIP3    H150653   3.412   4.465   4.561  1.0300 -1.1230  0.9041
 9746TIP3    H250654   3.555   4.447   4.516  0.5995  1.5016 -1.8174
 9747TIP3   OH250655   3.607   1.643  14.627  0.1182  0.4669  0.9885
 9747TIP3    H150656   3.636   1.554  14.643  1.7417  0.5631 -0.9077
 9747TIP3    H250657   3.634   1.692  14.705  0.2364 -0.4947  1.5603
 9748TIP3   OH250658   3.192   1.089  16.622  0.1358 -0.3481 -0.1911
 9748TIP3    H150659   3.170   1.010  16.572  0.0514 -0.2561 -0.3004
 9748TIP3    H250660   3.118   1.148  16.606 -1.1839 -1.2300  2.0718
 9749TIP3   OH250661   1.481   4.217  11.879 -0.0018 -0.0739  0.5151
 9749TIP3    H150662   1.447   4.218  11.790 -1.2962  0.1023  0.9865
 9749TIP3    H250663   1.484   4.309  11.905  0.6690 -0.1009  0.5613
 9750TIP3   OH250664   1.465   2.010  14.899 -0.4595 -0.5188 -0.0666
 9750TIP3    H150665   1.479   1.984  14.990 -0.0998 -0.4261 -0.0961
 9750TIP3    H250666   1.540   1.975  14.851 -1.0206 -1.2202 -0.4643
 9751TIP3   OH250667   1.952   0.601  10.709  0.0026 -0.0004 -0.1955
 9751TIP3    H150668   1.859   0.589  10.728 -0.1751 -0.9321 -1.5258
 9751TIP3    H250669   1.962   0.695  10.697 -1.6854 -0.1653 -4.1647
 9752TIP3   OH250670   5.442   0.713   4.281  0.1318  0.4395 -0.1159
 9752TIP3    H150671   5.364   0.710   4.336 -0.4116 -0.8152 -0.9068
 9752TIP3    H250672   5.409   0.723   4.192  0.9156  0.6800 -0.3945
 9753TIP3   OH250673   0.279   2.758  10.691 -0.1701 -0.1336  0.2779
 9753TIP3    H150674   0.212   2.690  10.688  0.0741 -0.3264 -1.4482
 9753TIP3    H250675   0.231   2.838  10.713 -0.6089 -0.6521  1.2873
 9754TIP3   OH250676   4.661   0.994   3.310 -0.6947 -0.1898  0.3693
 9754TIP3    H150677   4.604   0.934   3.263  0.3154 -0.1482 -0.9622
 9754TIP3    H250678   4.734   1.010   3.250 -0.6456  1.9089  0.9179
 9755TIP3   OH250679   5.975   3.821  15.302  0.2238 -0.1034 -0.1071
 9755TIP3    H150680   5.960   3.872  15.381 -0.0494  2.4520 -1.6836
 9755TIP3    H250681   6.070   3.814  15.294  0.2443 -0.9893  0.7766
 9756TIP3   OH250682   2.028   4.826  10.762 -0.3100 -0.4749 -0.2952
 9756TIP3    H150683   1.977   4.905  10.781  1.7051  0.8321 -0.1083
 9756TIP3    H250684   2.073   4.846  10.680  0.4486 -1.3171 -0.0963
 9757TIP3   OH250685   2.771   1.031  15.406  0.3647 -0.4451  0.2033
 9757TIP3    H150686   2.837   1.001  15.468 -0.3774 -1.5402  0.4934
 9757TIP3    H250687   2.805   1.003  15.320  0.7087 -0.2032  0.2615
 9758TIP3   OH250688   0.214   2.257   4.505  0.6489 -0.2602 -0.5562
 9758TIP3    H150689   0.251   2.277   4.591 -0.5055 -0.4206  0.0033
 9758TIP3    H250690   0.251   2.323   4.447 -0.1048  1.1292  0.4821
 9759TIP3   OH250691   4.772   0.511  14.541  0.1795 -0.3139  0.0233
 9759TIP3    H150692   4.782   0.596  14.583 -2.9638 -0.4630  1.3221
 9759TIP3    H250693   4.743   0.531  14.452 -3.6097  0.1425  1.2047
 9760TIP3   OH250694   1.417   2.158  16.919 -0.1845  0.0551 -0.4520
 9760TIP3    H150695   1.457   2.091  16.863 -0.5207  1.0505 -1.9245
 9760TIP3    H250696   1.475   2.164  16.994  0.8003 -0.6473 -1.1334
 9761TIP3   OH250697   1.776   6.020   2.230 -0.1775 -0.5460 -0.1918
 9761TIP3    H150698   1.838   5.990   2.163 -0.0254 -1.3757  0.3088
 9761TIP3    H250699   1.773   5.949   2.294 -1.5011 -0.4350 -0.0980
 9762TIP3   OH250700   0.278   3.704  12.404 -0.3704  0.2101 -0.1041
 9762TIP3    H150701   0.360   3.746  12.432 -0.1900 -0.2729  0.1016
 9762TIP3    H250702   0.210   3.750  12.453 -0.1680  0.2241  0.1676
 9763TIP3   OH250703   3.573   2.299  13.386 -0.2180  0.0042 -0.1811
 9763TIP3    H150704   3.628   2.244  13.442  2.1674  0.3123 -2.0165
 9763TIP3    H250705   3.521   2.237  13.335  0.6526 -0.4887 -0.5024
 9764TIP3   OH250706   3.306   3.333  17.143 -0.2915  0.1675  0.2171
 9764TIP3    H150707   3.310   3.315  17.049  2.5429  0.7606  0.1304
 9764TIP3    H250708   3.260   3.258  17.180 -2.2269  0.3256 -1.6785
 9765TIP3   OH250709   1.462   5.296  11.468 -0.6329 -0.4793  0.2273
 9765TIP3    H150710   1.395   5.252  11.417 -1.9804  0.1686  1.3593
 9765TIP3    H250711   1.447   5.389  11.451  2.1912 -0.3336 -2.1668
 9766TIP3   OH250712   0.906   1.969  11.470  0.2373 -0.2453  0.2599
 9766TIP3    H150713   0.979   1.974  11.408 -0.8197  0.3324 -0.9959
 9766TIP3    H250714   0.947   1.977  11.556  1.8637 -2.0555 -0.2691
 9767TIP3   OH250715   5.723   2.371   3.721  0.6111 -0.0840 -0.6951
 9767TIP3    H150716   5.719   2.352   3.627  2.6288 -3.0982 -0.3323
 9767TIP3    H250717   5.634   2.356   3.753  0.6137 -2.5969 -1.6634
 9768TIP3   OH250718   0.511   6.640  12.770 -0.0953 -0.7118  0.2946
 9768TIP3    H150719   0.433   6.607  12.816 -1.2100  0.2378 -0.8269
 9768TIP3    H250720   0.501   6.735  12.772  0.7264 -0.6044 -0.3985
 9769TIP3   OH250721   3.212   0.379   3.886  0.0341 -0.2517  0.4881
 9769TIP3    H150722   3.249   0.419   3.807 -1.0878  0.7581  0.4535
 9769TIP3    H250723   3.288   0.339   3.930  0.8444  0.1068 -0.5422
 9770TIP3   OH250724   4.912   1.336  12.663 -0.2168 -0.7112  0.3050
 9770TIP3    H150725   4.830   1.383  12.683 -0.0127 -0.4504  0.5340
 9770TIP3    H250726   4.980   1.390  12.702  0.2797  0.2199 -1.6910
 9771TIP3   OH250727   3.816   5.101   3.895  0.4807 -0.1393  0.0460
 9771TIP3    H150728   3.758   5.142   3.959 -1.4527 -1.3335 -0.8447
 9771TIP3    H250729   3.824   5.165   3.824  1.6716  0.7082  0.9127
 9772TIP3   OH250730   3.377   1.104   5.086  0.3736  0.8510  0.0966
 9772TIP3    H150731   3.302   1.099   5.027  0.1399  2.4219  0.2119
 9772TIP3    H250732   3.398   1.013   5.105 -2.0836  0.3423  0.7938
 9773TIP3   OH250733   0.420   5.789  11.599 -0.0558 -0.2734 -0.0768
 9773TIP3    H150734   0.328   5.760  11.594 -0.4864  1.1331 -1.2904
 9773TIP3    H250735   0.429   5.848  11.524  1.8790 -0.4424 -0.0062
 9774TIP3   OH250736   3.903   2.127   2.162 -0.6830 -0.0591 -0.3480
 9774TIP3    H150737   3.927   2.036   2.179  0.8547  0.5049  0.8003
 9774TIP3    H250738   3.986   2.175   2.167 -1.1213  1.1691 -3.0380
 9775TIP3   OH250739   2.361   5.639  11.223 -0.5973  0.2121 -0.2474
 9775TIP3    H150740   2.430   5.649  11.288 -0.3199 -0.3045 -0.4536
 9775TIP3    H250741   2.344   5.728  11.191 -1.8919  0.7312  1.6870
 9776TIP3   OH250742   1.688   3.404  16.673  0.0556  0.0617  0.3860
 9776TIP3    H150743   1.674   3.483  16.622  0.4555 -0.4991 -0.6165
 9776TIP3    H250744   1.611   3.397  16.729 -1.4140 -0.3919 -1.5977
 9777TIP3   OH250745   0.811   1.645  17.158 -0.2419 -0.6751 -0.3077
 9777TIP3    H150746   0.807   1.562  17.206 -1.2897 -0.1031  0.6537
 9777TIP3    H250747   0.762   1.706  17.213  1.5012  0.8856 -0.4146
 9778TIP3   OH250748   6.223   4.801  11.107 -1.0165 -0.5639  0.0564
 9778TIP3    H150749   6.297   4.742  11.122  0.9687  0.6135 -3.8065
 9778TIP3    H250750   6.259   4.888  11.121 -0.9158  0.1512 -3.7007
 9779TIP3   OH250751   1.620   6.358   0.601  0.2797 -0.2530 -0.2172
 9779TIP3    H150752   1.525   6.363   0.589  0.1324 -2.1879 -0.2306
 9779TIP3    H250753   1.633   6.368   0.696 -0.0635 -0.9894 -0.0786
 9780TIP3   OH250754   4.645   0.420  12.035  0.5051  0.4523  0.6579
 9780TIP3    H150755   4.673   0.349  12.092 -0.2188  1.1198  1.8741
 9780TIP3    H250756   4.714   0.487  12.043  1.6521 -0.4215 -1.1832
 9781TIP3   OH250757   4.581   5.757  14.055 -0.1020 -0.3997  0.7376
 9781TIP3    H150758   4.583   5.675  14.105 -0.2268  0.0143  1.4459
 9781TIP3    H250759   4.625   5.736  13.973 -1.2907 -1.5381  0.3456
 9782TIP3   OH250760   2.678   6.176   5.725  0.2638 -0.2099  0.1185
 9782TIP3    H150761   2.722   6.101   5.684  0.3270  1.5137 -3.2873
 9782TIP3    H250762   2.586   6.151   5.729  0.3942 -0.7668 -0.2564
 9783TIP3   OH250763   4.952   5.987   5.508 -0.7259 -0.0148  0.4869
 9783TIP3    H150764   4.866   5.960   5.541 -0.2121 -0.5247  1.4263
 9783TIP3    H250765   5.012   5.918   5.536 -0.1441 -0.1272 -0.9325
 9784TIP3   OH250766   4.061   1.278   2.220  0.0552  0.5646  0.0579
 9784TIP3    H150767   4.039   1.357   2.269  0.3452  0.0577  1.0421
 9784TIP3    H250768   4.156   1.282   2.210  0.3708 -0.6637  1.9902
 9785TIP3   OH250769   2.368   5.855   6.098 -0.1912 -0.5856  0.3626
 9785TIP3    H150770   2.424   5.924   6.061  0.3759 -1.0287  0.3796
 9785TIP3    H250771   2.318   5.823   6.023  1.6894 -2.1810 -0.2877
 9786TIP3   OH250772   6.410   4.505   0.499  0.1495  0.2958 -0.2670
 9786TIP3    H150773   6.380   4.433   0.555  0.5311  0.0087 -0.4278
 9786TIP3    H250774   6.442   4.571   0.561 -0.6711  0.5509 -0.0977
 9787TIP3   OH250775   1.666   0.054  16.542 -0.3291 -0.5476  0.1689
 9787TIP3    H150776   1.632   0.017  16.460  1.8580 -1.2060 -0.5036
 9787TIP3    H250777   1.676   0.148  16.522  0.0622 -0.6808 -0.2844
 9788TIP3   OH250778   2.400   2.878  12.936 -0.1554  0.2264  0.7827
 9788TIP3    H150779   2.325   2.865  12.993  0.8897  0.5227  2.2640
 9788TIP3    H250780   2.459   2.935  12.985  1.0103  0.0768 -0.3787
 9789TIP3   OH250781   0.842   1.194   6.680  0.3429 -0.1839  0.1103
 9789TIP3    H150782   0.908   1.264   6.675  1.0653 -0.8921 -0.5718
 9789TIP3    H250783   0.828   1.168   6.590 -1.3614  0.3659  0.1884
 9790TIP3   OH250784   0.971   2.767   1.728 -0.3180 -0.2384 -0.2929
 9790TIP3    H150785   1.013   2.736   1.809  0.0994  1.8774  0.3708
 9790TIP3    H250786   1.040   2.760   1.662  0.4905  1.2183  0.3324
 9791TIP3   OH250787   2.341   5.039   4.896 -0.1133 -0.0985  0.4391
 9791TIP3    H150788   2.295   5.120   4.874 -0.9989 -0.8433 -0.5903
 9791TIP3    H250789   2.430   5.066   4.919 -0.6903  1.2569  1.1841
 9792TIP3   OH250790   5.027   2.504   0.043  0.0048  0.0667  0.1875
 9792TIP3    H150791   4.975   2.423   0.038 -0.6174  0.4764 -0.1562
 9792TIP3    H250792   5.041   2.528  -0.049 -0.6542  0.8784  0.2954
 9793TIP3   OH250793   0.911   5.053  14.000  0.4681  0.1922 -0.0614
 9793TIP3    H150794   0.837   5.021  13.948  1.1247 -1.5183  0.0031
 9793TIP3    H250795   0.911   5.147  13.986 -2.1742  0.3531  0.5019
 9794TIP3   OH250796   5.888   2.411   5.258  0.0173 -0.1948 -0.0138
 9794TIP3    H150797   5.803   2.415   5.214  0.2925  1.9716 -0.4397
 9794TIP3    H250798   5.948   2.455   5.197  1.1281 -0.2928  0.9827
 9795TIP3   OH250799   3.065   4.250   1.147 -0.5186 -0.2042 -0.2052
 9795TIP3    H150800   3.036   4.217   1.232  0.6113  0.0248  0.2810
 9795TIP3    H250801   3.126   4.184   1.114 -0.3591  0.0766 -0.4825
 9796TIP3   OH250802   1.678   2.190  15.924 -0.0089  0.4709  0.0550
 9796TIP3    H150803   1.618   2.242  15.977 -0.6122 -0.2030  0.0504
 9796TIP3    H250804   1.702   2.117  15.980  0.5775  0.5827 -0.0510
 9797TIP3   OH250805   0.685   4.466  13.870  0.2366  0.0688 -0.1342
 9797TIP3    H150806   0.670   4.554  13.906  1.0205  0.6485 -1.1532
 9797TIP3    H250807   0.612   4.452  13.809 -0.4147 -0.4066  0.7264
 9798TIP3   OH250808   5.553   3.920   5.902 -0.4817 -0.0020 -0.8030
 9798TIP3    H150809   5.546   3.960   5.989  0.5450 -0.9891 -0.2263
 9798TIP3    H250810   5.616   3.848   5.915 -1.0817 -0.7960 -2.1322
 9799TIP3   OH250811   4.411   3.734   0.215  0.2234  0.4989  0.2041
 9799TIP3    H150812   4.494   3.689   0.203 -0.3758 -0.7756  0.7376
 9799TIP3    H250813   4.345   3.665   0.217 -1.0820  1.5640 -1.8703
 9800TIP3   OH250814   1.115   6.516  15.131 -0.4777 -0.2179 -0.0129
 9800TIP3    H150815   1.122   6.603  15.171  1.2453 -0.2983 -0.0604
 9800TIP3    H250816   1.177   6.518  15.058 -2.1383 -0.7366 -1.5007
 9801TIP3   OH250817   6.332   5.402  12.749  0.6516 -0.4107  0.1064
 9801TIP3    H150818   6.391   5.374  12.819  1.4861 -1.3017 -0.9263
 9801TIP3    H250819   6.383   5.462  12.696  0.4805 -0.8016 -0.5133
 9802TIP3   OH250820   4.880   0.029  15.335  0.1238  0.3904 -0.1036
 9802TIP3    H150821   4.923   0.081  15.403 -0.6873 -1.6852  2.1119
 9802TIP3    H250822   4.865   0.091  15.264  0.8195  2.7298  1.6625
 9803TIP3   OH250823   1.059   1.184   5.047 -0.1010 -0.0131  0.4194
 9803TIP3    H150824   1.015   1.121   4.991 -0.6599  0.2118  0.5974
 9803TIP3    H250825   1.122   1.227   4.990 -1.8727  1.4636 -0.5243
 9804TIP3   OH250826   3.319   6.529  12.194  0.2241  0.0509  0.1427
 9804TIP3    H150827   3.404   6.573  12.195  0.8197 -1.0600  1.3257
 9804TIP3    H250828   3.314   6.487  12.108  0.3578  1.0499 -0.3624
 9805TIP3   OH250829   3.912   1.639   4.661  0.1904 -0.4132  0.4582
 9805TIP3    H150830   3.873   1.725   4.681  3.3122  0.9579  1.2443
 9805TIP3    H250831   3.950   1.650   4.573  0.2221 -1.1747  0.3688
 9806TIP3   OH250832   0.973   1.733   4.619 -0.1626  0.0062 -0.0494
 9806TIP3    H150833   0.955   1.646   4.583  2.3216 -0.3131 -0.7277
 9806TIP3    H250834   1.008   1.716   4.707 -2.5430  0.5667  1.0889
 9807TIP3   OH250835   3.063   0.431   5.640  0.4839  0.5639 -0.0829
 9807TIP3    H150836   3.094   0.344   5.663  1.9797  0.8249 -0.9657
 9807TIP3    H250837   3.137   0.489   5.659 -0.4366  1.6411  0.3708
 9808TIP3   OH250838   5.668   0.768  15.695 -0.5865  0.5342  0.0232
 9808TIP3    H150839   5.732   0.832  15.727 -1.8888  1.9985 -0.2259
 9808TIP3    H250840   5.584   0.812  15.703 -1.3533 -0.5377 -1.7244
 9809TIP3   OH250841   0.873   4.181   5.473 -0.5972 -0.3208 -0.2537
 9809TIP3    H150842   0.850   4.274   5.472  0.1574 -0.1260 -0.3575
 9809TIP3    H250843   0.829   4.145   5.396  0.0868  0.2104 -0.9180
 9810TIP3   OH250844   2.103   2.633   2.206  0.3562  0.0421 -0.2560
 9810TIP3    H150845   2.093   2.538   2.195  1.0484 -0.0127 -0.4499
 9810TIP3    H250846   2.013   2.666   2.208  0.0898 -0.7031  0.5774
 9811TIP3   OH250847   2.907   3.070  15.167 -0.4352 -0.1502 -0.6216
 9811TIP3    H150848   2.904   3.142  15.105  1.3905  0.3688 -0.1683
 9811TIP3    H250849   2.899   3.111  15.253 -2.0658 -0.7783 -0.4334
 9812TIP3   OH250850   2.468   2.027  17.024  0.0505 -0.0525 -0.0732
 9812TIP3    H150851   2.385   1.979  17.027 -0.1546  0.3362  0.6656
 9812TIP3    H250852   2.461   2.081  16.945 -0.8270  0.7169  0.5091
 9813TIP3   OH250853   5.424   3.708   1.638 -0.2334 -0.6893  0.5164
 9813TIP3    H150854   5.479   3.668   1.570 -1.1375 -0.6545 -0.2627
 9813TIP3    H250855   5.383   3.635   1.683 -0.7681 -0.6782  0.0501
 9814TIP3   OH250856   3.381   0.810  13.753 -0.0391 -0.3495 -0.0815
 9814TIP3    H150857   3.293   0.811  13.790  0.2212 -0.8505  0.5594
 9814TIP3    H250858   3.377   0.875  13.682 -0.8941 -0.3057 -0.0096
 9815TIP3   OH250859   0.128   4.747  11.973 -0.3144  0.5349  0.7607
 9815TIP3    H150860   0.199   4.703  11.926 -2.1210 -1.1935 -0.4922
 9815TIP3    H250861   0.059   4.758  11.909 -1.6743  1.0418  2.2407
 9816TIP3   OH250862   3.227   6.125  12.071  0.0400 -0.2267 -0.3498
 9816TIP3    H150863   3.254   6.140  12.161  1.2812 -1.2005 -0.5173
 9816TIP3    H250864   3.290   6.060  12.038  0.0812  0.6561 -2.1319
 9817TIP3   OH250865   3.565   5.494   4.890  0.0882 -0.3558  0.1697
 9817TIP3    H150866   3.542   5.433   4.960  2.5089 -0.5452  0.9053
 9817TIP3    H250867   3.515   5.463   4.814 -0.9955 -1.4229  1.2622
 9818TIP3   OH250868   1.869   5.286  15.470  0.1185 -0.0491 -0.1047
 9818TIP3    H150869   1.817   5.357  15.508 -0.2572 -0.7413  0.7246
 9818TIP3    H250870   1.949   5.284  15.522  0.5004  0.2909 -0.6634
 9819TIP3   OH250871   0.342   2.459  11.828 -0.6319  0.0969  0.0271
 9819TIP3    H150872   0.316   2.505  11.748 -0.6748  0.0167 -0.0055
 9819TIP3    H250873   0.275   2.483  11.892 -2.7902 -2.7654 -0.9438
 9820TIP3   OH250874   1.649   6.460  13.462 -0.0650  0.7704  0.3458
 9820TIP3    H150875   1.741   6.485  13.456 -0.4753  2.3519  0.1732
 9820TIP3    H250876   1.639   6.391  13.396  0.8027  1.2059 -0.2744
 9821TIP3   OH250877   6.186   6.650   4.145 -0.1651  0.0379  0.4432
 9821TIP3    H150878   6.164   6.598   4.067 -0.7732 -0.7042  1.0999
 9821TIP3    H250879   6.103   6.690   4.172 -0.9282 -2.8995  3.0213
 9822TIP3   OH250880   4.929   3.759   2.117  0.3944 -0.4137 -0.0324
 9822TIP3    H150881   4.931   3.819   2.190 -0.5497  0.0540 -0.3658
 9822TIP3    H250882   4.941   3.814   2.040  0.2010 -0.7337 -0.2953
 9823TIP3   OH250883   3.837   1.537   3.458 -0.0405  0.1001  0.5171
 9823TIP3    H150884   3.755   1.487   3.459  0.5700 -1.1912 -2.5258
 9823TIP3    H250885   3.906   1.471   3.465  0.7495  0.6077 -1.5318
 9824TIP3   OH250886   0.398   6.659   5.258 -0.3614  0.3971 -0.4067
 9824TIP3    H150887   0.421   6.698   5.174  0.9523  0.5207 -0.0146
 9824TIP3    H250888   0.435   6.718   5.323 -0.1921 -0.3972  0.2352
 9825TIP3   OH250889   1.236   1.771  15.407 -0.5281 -0.2643  0.5020
 9825TIP3    H150890   1.181   1.759  15.329 -0.8563  0.8258  0.5472
 9825TIP3    H250891   1.248   1.683  15.442 -0.3579 -0.7744 -0.7987
 9826TIP3   OH250892   2.701   1.055   2.526  0.2208 -0.1992 -0.4561
 9826TIP3    H150893   2.625   1.073   2.471  0.4212  1.0564 -0.3478
 9826TIP3    H250894   2.776   1.087   2.475  0.7813 -1.9328 -0.8165
 9827TIP3   OH250895   0.184   5.537   3.452  0.1996  0.2894  0.1735
 9827TIP3    H150896   0.129   5.611   3.428 -1.4297 -0.8692  0.1982
 9827TIP3    H250897   0.137   5.493   3.522  1.3462 -0.5349  0.4692
 9828TIP3   OH250898   2.709   0.866  16.145  0.2406  0.1555 -0.1736
 9828TIP3    H150899   2.748   0.803  16.205  1.2552 -0.4273 -1.3989
 9828TIP3    H250900   2.761   0.945  16.157  1.1265 -0.2828 -1.0134
 9829TIP3   OH250901   2.109   5.869  12.174  0.2385  0.0447  0.5900
 9829TIP3    H150902   2.177   5.887  12.240  2.0664 -2.0659 -0.6041
 9829TIP3    H250903   2.148   5.804  12.116 -2.2897 -0.1207 -1.0744
 9830TIP3   OH250904   1.024   2.558   2.896 -0.7222 -0.5476 -1.0839
 9830TIP3    H150905   1.078   2.636   2.885  1.5347 -1.4081  2.3563
 9830TIP3    H250906   0.938   2.592   2.922  0.3702  0.8857  0.9205
 9831TIP3   OH250907   3.596   3.564  13.925  0.1707  0.2572  0.0614
 9831TIP3    H150908   3.564   3.530  14.008  0.4895 -1.4265 -0.4599
 9831TIP3    H250909   3.660   3.630  13.949 -0.1281  0.1755  1.1445
 9832TIP3   OH250910   1.121   3.371   3.178  0.1604  0.1962 -0.2752
 9832TIP3    H150911   1.217   3.368   3.185  0.2031  0.7322 -0.5367
 9832TIP3    H250912   1.092   3.282   3.197  0.5741  0.4643  1.8499
 9833TIP3   OH250913   3.932   3.736  11.920  0.1873 -0.5110 -0.2328
 9833TIP3    H150914   3.861   3.796  11.942  0.0985 -0.9778  0.8046
 9833TIP3    H250915   3.998   3.751  11.987  0.6176 -0.8291 -0.5793
 9834TIP3   OH250916   1.461   0.882   4.750 -0.5884  0.3779 -0.1094
 9834TIP3    H150917   1.468   0.840   4.664  0.5701  0.1866  0.0613
 9834TIP3    H250918   1.434   0.972   4.731  2.3548  1.2025 -0.9386
 9835TIP3   OH250919   1.315   5.899   3.565  0.0494 -0.0172  0.0205
 9835TIP3    H150920   1.374   5.877   3.493 -0.9320  2.7240 -1.7506
 9835TIP3    H250921   1.238   5.844   3.551  0.3069 -0.2806 -0.3774
 9836TIP3   OH250922   6.046   1.978  13.357 -0.2663  0.3342  0.1494
 9836TIP3    H150923   6.049   2.074  13.352  0.3924  0.3001 -0.2197
 9836TIP3    H250924   6.131   1.953  13.391 -0.9049 -0.0650  1.4896
 9837TIP3   OH250925   2.887   0.138  16.937 -0.7441  0.0459  0.0667
 9837TIP3    H150926   2.825   0.206  16.912 -1.5054 -0.8186 -0.4260
 9837TIP3    H250927   2.971   0.183  16.944 -1.3759  1.1832  0.5134
 9838TIP3   OH250928   5.552   3.064   0.401 -0.1472 -0.2270  0.1369
 9838TIP3    H150929   5.521   3.151   0.426 -2.1567 -0.7156 -0.5001
 9838TIP3    H250930   5.536   3.010   0.479  0.7776 -0.1140  0.4133
 9839TIP3   OH250931   4.410   1.034   5.681  0.1309  0.3641 -0.1514
 9839TIP3    H150932   4.428   0.941   5.670 -0.7672  0.2464 -0.7516
 9839TIP3    H250933   4.350   1.056   5.610  0.2551  1.3838  0.0358
 9840TIP3   OH250934   5.629   4.973  10.818  0.1237  0.0866 -0.1545
 9840TIP3    H150935   5.705   4.931  10.859 -0.1498 -1.3198 -0.9826
 9840TIP3    H250936   5.657   5.063  10.801  1.9183 -0.6110 -1.1731
 9841TIP3   OH250937   0.656   4.904  12.611  0.2420 -0.1866 -0.1286
 9841TIP3    H150938   0.648   4.944  12.524 -0.1084  3.1975  1.3290
 9841TIP3    H250939   0.743   4.865  12.611  0.4821  0.2581 -1.8085
 9842TIP3   OH250940   3.465   4.360   1.731  0.7393 -0.0215 -0.1524
 9842TIP3    H150941   3.455   4.270   1.762 -0.3422 -0.0952 -0.6673
 9842TIP3    H250942   3.535   4.355   1.665 -1.1850 -1.0750 -2.2654
 9843TIP3   OH250943   2.205   0.415  13.983 -0.4271  0.0068 -0.2116
 9843TIP3    H150944   2.241   0.482  14.040 -1.2397  0.3039 -0.0326
 9843TIP3    H250945   2.203   0.456  13.896 -0.6318  0.1089 -0.1602
 9844TIP3   OH250946   0.446   2.458  12.196  0.4444  0.0462 -0.3536
 9844TIP3    H150947   0.468   2.400  12.123 -1.0388 -0.1872 -0.6381
 9844TIP3    H250948   0.444   2.400  12.272  3.2868  0.4925  0.1949
 9845TIP3   OH250949   1.730   1.364  14.603 -0.2812 -0.0633  0.0154
 9845TIP3    H150950   1.702   1.371  14.694  1.6807 -0.1337  0.6907
 9845TIP3    H250951   1.806   1.305  14.606 -0.6239 -0.6606 -1.7777
 9846TIP3   OH250952   4.824   0.803   3.006 -0.6634 -0.4335 -0.1707
 9846TIP3    H150953   4.910   0.761   3.006  0.4679  1.7212 -0.5493
 9846TIP3    H250954   4.798   0.805   2.914  0.9918  2.7406 -0.7102
 9847TIP3   OH250955   4.069   1.433   4.905  0.3464 -0.0987 -0.3399
 9847TIP3    H150956   4.032   1.347   4.926 -0.0682  0.5536  1.8635
 9847TIP3    H250957   4.160   1.427   4.932  0.4610  0.0032 -0.6966
 9848TIP3   OH250958   6.130   3.769  13.368  0.9780  0.0006 -0.3602
 9848TIP3    H150959   6.041   3.754  13.400  0.8298 -0.6830 -1.0422
 9848TIP3    H250960   6.128   3.857  13.331 -0.6982 -1.3882 -4.2361
 9849TIP3   OH250961   1.882   0.536  13.361  0.8971 -0.0387  0.4301
 9849TIP3    H150962   1.942   0.547  13.287  1.1473  0.1099  0.6515
 9849TIP3    H250963   1.939   0.535  13.438  0.8568 -2.3614  0.4776
 9850TIP3   OH250964   4.381   2.661   2.501 -0.1563 -0.4653  0.2876
 9850TIP3    H150965   4.368   2.756   2.501 -3.9928 -0.7972  1.3528
 9850TIP3    H250966   4.376   2.636   2.408 -0.0045  0.3109  0.0643
 9851TIP3   OH250967   3.973   0.957   0.071 -0.3746  0.5768  1.0134
 9851TIP3    H150968   4.013   1.003  -0.003  1.8215 -0.7346  1.2883
 9851TIP3    H250969   4.016   0.995   0.149 -2.7013  1.9915  1.7145
 9852TIP3   OH250970   2.558   0.248   2.692  0.3503 -0.6124  0.2164
 9852TIP3    H150971   2.509   0.326   2.667  0.7039 -0.4323  0.0797
 9852TIP3    H250972   2.649   0.268   2.670  0.4909 -0.9361  0.4842
 9853TIP3   OH250973   1.556   3.736  13.615 -0.1506  0.3015  0.7334
 9853TIP3    H150974   1.632   3.685  13.643 -1.2535 -0.2714  2.8951
 9853TIP3    H250975   1.486   3.672  13.603  0.0813  0.5630 -3.1904
 9854TIP3   OH250976   5.155   1.717  11.609  0.4007 -0.1374  0.1099
 9854TIP3    H150977   5.248   1.736  11.602  0.5857 -0.9932  0.1613
 9854TIP3    H250978   5.126   1.707  11.518  0.3042  0.3875  0.0827
 9855TIP3   OH250979   3.082   1.697   0.521 -0.3912 -0.4501  0.0835
 9855TIP3    H150980   3.133   1.774   0.496 -1.6819  0.5902  0.5544
 9855TIP3    H250981   3.083   1.698   0.617 -1.6570 -0.1496  0.1054
 9856TIP3   OH250982   0.394   0.636   4.900 -0.0346 -0.4172 -0.1551
 9856TIP3    H150983   0.374   0.635   4.994  2.9095  1.4359  0.6493
 9856TIP3    H250984   0.349   0.560   4.864 -1.1001 -1.3004  2.7881
 9857TIP3   OH250985   5.628   6.679  14.851 -0.0693  0.3723  0.3686
 9857TIP3    H150986   5.638   6.655  14.943  0.7972  0.6530  0.3584
 9857TIP3    H250987   5.569   6.612  14.815 -1.1998  0.8179  1.3334
 9858TIP3   OH250988   2.838   5.360   2.504 -0.2292 -1.1064  0.6353
 9858TIP3    H150989   2.919   5.367   2.554 -0.7520  0.2747  1.3661
 9858TIP3    H250990   2.769   5.348   2.570 -0.9542  0.9521  0.3484
 9859TIP3   OH250991   3.080   6.372   2.311  0.4749 -0.0001 -0.7218
 9859TIP3    H150992   3.099   6.465   2.328 -0.2121  0.2990 -1.5364
 9859TIP3    H250993   3.078   6.332   2.398 -2.1229  1.3150 -0.0945
 9860TIP3   OH250994   3.658   2.836  10.556 -0.2797 -0.4891 -0.7028
 9860TIP3    H150995   3.591   2.857  10.623 -1.6947  1.1806 -2.5139
 9860TIP3    H250996   3.714   2.914  10.554 -0.6058 -0.2711 -1.8340
 9861TIP3   OH250997   6.222   5.581   3.670 -0.2761 -0.3408  0.4394
 9861TIP3    H150998   6.177   5.664   3.682  0.6219  0.2292 -0.0634
 9861TIP3    H250999   6.256   5.584   3.580 -1.8156 -2.0410 -0.2609
 9862TIP3   OH251000   6.530   1.193   3.598 -0.1530  0.0235  0.0373
 9862TIP3    H151001   6.556   1.129   3.532  0.3643  1.1382 -0.8836
 9862TIP3    H251002   6.611   1.213   3.645 -0.0445  0.8893 -0.4953
 9863TIP3   OH251003   2.866   1.309  11.721 -0.1188  0.8296  0.0734
 9863TIP3    H151004   2.891   1.264  11.802 -1.2629 -1.6665 -0.8745
 9863TIP3    H251005   2.776   1.338  11.737  0.3110  2.0467  0.3566
 9864TIP3   OH251006   0.958   5.857   5.741  0.5313 -0.3359 -0.1453
 9864TIP3    H151007   0.914   5.778   5.710  1.3204 -0.6196 -0.5658
 9864TIP3    H251008   0.994   5.832   5.826  1.7423 -0.8083 -0.7636
 9865TIP3   OH251009   2.423   3.851   4.623 -0.6421  0.1919  0.1619
 9865TIP3    H151010   2.509   3.865   4.582  1.8236  1.4875  4.9398
 9865TIP3    H251011   2.379   3.935   4.615 -0.1588  0.4533  0.1925
 9866TIP3   OH251012   3.816   5.497  12.997  0.0515  0.6966 -0.6005
 9866TIP3    H151013   3.894   5.549  13.017 -0.2172  0.4191  1.3735
 9866TIP3    H251014   3.840   5.408  13.021 -0.8140  0.5885 -0.1057
 9867TIP3   OH251015   0.987   3.628  15.518 -0.0683  0.1745  0.5599
 9867TIP3    H151016   0.935   3.708  15.517 -2.8824 -1.4855  2.0878
 9867TIP3    H251017   0.937   3.567  15.572  2.6589 -2.1858  0.6764
 9868TIP3   OH251018   4.435   2.605   3.197  0.0266  0.4042  0.4260
 9868TIP3    H151019   4.517   2.571   3.162 -0.2140  1.4904 -1.2976
 9868TIP3    H251020   4.406   2.538   3.260  2.0895 -0.0978  0.9178
 9869TIP3   OH251021   1.247   1.818   2.435  0.3401  0.6035 -0.3260
 9869TIP3    H151022   1.248   1.739   2.380  0.8333 -0.5888  1.3349
 9869TIP3    H251023   1.314   1.803   2.501 -1.4729  1.1448  1.7651
 9870TIP3   OH251024   0.493   2.101  16.982 -0.5502  0.0497 -0.0878
 9870TIP3    H151025   0.496   2.179  17.038 -1.2182  0.2105 -0.2647
 9870TIP3    H251026   0.532   2.032  17.036 -1.6868  0.0702  0.8154
 9871TIP3   OH251027   3.738   2.118  13.891 -0.4112 -0.1297 -0.1202
 9871TIP3    H151028   3.710   2.102  13.981 -0.5758 -0.9054 -0.3012
 9871TIP3    H251029   3.753   2.212  13.887 -3.8216  0.5406 -0.2055
 9872TIP3   OH251030   1.049   3.757   4.482  0.1142 -0.4467  0.3276
 9872TIP3    H151031   1.087   3.732   4.398  0.6496 -1.3541  0.8308
 9872TIP3    H251032   1.004   3.840   4.464 -0.7061 -1.1693 -1.1027
 9873TIP3   OH251033   6.465   2.532  11.792  0.2256 -0.0117 -0.0936
 9873TIP3    H151034   6.531   2.596  11.767  0.4411  0.3434  1.3131
 9873TIP3    H251035   6.481   2.457  11.735  1.1435  0.4829 -0.5039
 9874TIP3   OH251036   5.287   2.650  15.164  0.0784 -0.0238  0.0664
 9874TIP3    H151037   5.338   2.728  15.184  2.1499 -1.1413 -0.5821
 9874TIP3    H251038   5.352   2.582  15.147 -1.6253 -1.4348 -1.2630
 9875TIP3   OH251039   1.065   2.217   1.457 -0.3487 -0.0554  0.5457
 9875TIP3    H151040   0.998   2.225   1.524 -1.1291 -1.4802 -0.0323
 9875TIP3    H251041   1.051   2.293   1.400 -2.0592 -0.8030 -0.0710
 9876TIP3   OH251042   3.389   2.806  13.790  0.4391  0.0173 -0.6521
 9876TIP3    H151043   3.428   2.724  13.761 -0.7923 -1.3815  1.3691
 9876TIP3    H251044   3.451   2.841  13.854  0.8178  0.5432 -1.2895
 9877TIP3   OH251045   4.588   3.702   3.064 -0.0202 -0.2481 -0.3988
 9877TIP3    H151046   4.563   3.794   3.065 -0.9286 -0.4926 -0.0018
 9877TIP3    H251047   4.659   3.696   3.128 -1.3237 -0.1811  1.1017
 9878TIP3   OH251048   3.627   3.110   2.642  0.4398 -0.3031  0.5109
 9878TIP3    H151049   3.623   3.205   2.636  1.3449 -0.2812  0.1778
 9878TIP3    H251050   3.535   3.082   2.638  0.2470  0.4475 -1.0165
 9879TIP3   OH251051   3.590   5.975   1.764 -0.2450  0.4296  0.1021
 9879TIP3    H151052   3.573   5.884   1.789  0.1257  0.4448  0.4267
 9879TIP3    H251053   3.681   5.990   1.790 -0.8438  1.4527  1.7574
 9880TIP3   OH251054   0.209   4.050  16.429  0.0304  0.2156  0.6945
 9880TIP3    H151055   0.258   3.989  16.485  0.0809 -0.6977 -0.3088
 9880TIP3    H251056   0.275   4.111  16.397  0.1203  0.3225  1.0745
 9881TIP3   OH251057   1.694   6.159  11.576 -0.2854  0.6084  0.1051
 9881TIP3    H151058   1.675   6.233  11.633 -2.6083  0.6373 -0.5885
 9881TIP3    H251059   1.703   6.085  11.635  1.2865  1.2778  0.7479
 9882TIP3   OH251060   1.745   2.502  13.490 -0.0405 -0.3696  0.0986
 9882TIP3    H151061   1.835   2.532  13.488 -0.4623  0.9026 -0.8470
 9882TIP3    H251062   1.725   2.493  13.584 -0.1098  3.1344  0.5585
 9883TIP3   OH251063   4.467   4.056   4.262 -0.0859  0.2189  0.1027
 9883TIP3    H151064   4.456   4.096   4.348  0.1849  1.5688 -0.4579
 9883TIP3    H251065   4.511   3.973   4.279  1.7529  1.3390  1.1310
 9884TIP3   OH251066   4.686   2.794   2.737  0.1014  0.3997  0.4701
 9884TIP3    H151067   4.685   2.705   2.701 -2.0021  0.5812 -0.0651
 9884TIP3    H251068   4.764   2.835   2.698 -0.7109 -0.2008 -1.9915
 9885TIP3   OH251069   4.423   5.332   4.515  0.0202  0.1518 -0.3361
 9885TIP3    H151070   4.378   5.413   4.539 -0.8169 -0.4479  0.1628
 9885TIP3    H251071   4.477   5.312   4.591  0.2822  0.2647 -0.4883
 9886TIP3   OH251072   6.448   0.078   4.250 -0.5023 -0.7289  0.2439
 9886TIP3    H151073   6.466   0.096   4.158 -0.0562  0.2421  0.5030
 9886TIP3    H251074   6.515   0.128   4.298  0.1006 -2.2600  1.0671
 9887TIP3   OH251075   4.357   0.851   3.568  0.6108 -0.0041  0.5282
 9887TIP3    H151076   4.268   0.885   3.572  1.2169  1.8521 -0.4572
 9887TIP3    H251077   4.412   0.928   3.550  2.3960 -1.1163  0.9064
 9888TIP3   OH251078   3.645   1.769  14.871  0.4631 -0.0982  0.0841
 9888TIP3    H151079   3.583   1.768  14.944 -0.5620  2.0425 -0.6866
 9888TIP3    H251080   3.718   1.822  14.902  0.9681 -0.8730  0.2449
 9889TIP3   OH251081   1.430   5.250   4.802 -0.0753 -0.1101  0.3991
 9889TIP3    H151082   1.465   5.290   4.881  0.8967  0.3101 -0.2240
 9889TIP3    H251083   1.371   5.181   4.834 -1.6854  1.6597  1.4926
 9890TIP3   OH251084   5.867   0.569   0.010  0.6183 -0.5615  0.5524
 9890TIP3    H151085   5.865   0.607   0.098 -2.3773 -1.2576  0.8959
 9890TIP3    H251086   5.823   0.634  -0.045 -0.5732 -1.5422  0.2912
 9891TIP3   OH251087   1.866   4.392   2.214  0.0190  0.0615  0.0955
 9891TIP3    H151088   1.960   4.410   2.222  0.6876 -1.0820 -3.3097
 9891TIP3    H251089   1.850   4.319   2.274  1.2926  0.3490  0.8176
 9892TIP3   OH251090   6.454   5.953  16.526 -0.1251  0.1273 -0.2050
 9892TIP3    H151091   6.359   5.941  16.520 -0.2175  1.0719 -0.7768
 9892TIP3    H251092   6.465   6.040  16.564  0.5127  0.0288 -0.1510
 9893TIP3   OH251093   0.068   4.718  12.829 -0.2854 -0.3194  0.1699
 9893TIP3    H151094   0.032   4.805  12.846 -0.9587 -0.7314  0.9101
 9893TIP3    H251095   0.107   4.691  12.912 -0.1451 -0.7618 -0.0345
 9894TIP3   OH251096   5.866   1.409   4.215  1.1156 -0.2268 -0.3281
 9894TIP3    H151097   5.930   1.416   4.145  0.7748  1.2039 -0.5328
 9894TIP3    H251098   5.803   1.479   4.197  1.9041  1.2982  2.2642
 9895TIP3   OH251099   5.397   0.817   5.510 -0.0920 -1.0006  0.3193
 9895TIP3    H151100   5.339   0.770   5.571  0.7380  0.3734  2.2965
 9895TIP3    H251101   5.483   0.778   5.524 -0.1983 -1.9606 -1.4452
 9896TIP3   OH251102   1.184   6.768   5.455 -0.3729 -0.4153 -0.4685
 9896TIP3    H151103   1.090   6.749   5.460 -1.0124  2.1782 -1.0300
 9896TIP3    H251104   1.216   6.711   5.385 -1.4312 -1.6093 -0.0178
 9897TIP3   OH251105   2.837   6.540  10.427 -1.0106 -0.0472 -0.2319
 9897TIP3    H151106   2.916   6.488  10.445 -0.8892  0.5280  1.0098
 9897TIP3    H251107   2.765   6.481  10.447 -0.8737  0.0879  0.7162
 9898TIP3   OH251108   4.536   6.627  13.270 -0.5421 -0.3217  0.3076
 9898TIP3    H151109   4.442   6.645  13.279 -0.4358 -0.0010  0.7929
 9898TIP3    H251110   4.548   6.607  13.177 -1.1674 -0.7923  0.3229
 9899TIP3   OH251111   2.635   2.340  16.100 -0.3169 -0.0998 -0.0854
 9899TIP3    H151112   2.586   2.317  16.021  2.2167  0.1928 -1.8888
 9899TIP3    H251113   2.724   2.309  16.082  0.0934 -1.2283  3.2721
 9900TIP3   OH251114   2.292   1.119   2.831  0.1335 -0.1504  0.2485
 9900TIP3    H151115   2.294   1.082   2.742 -0.1212  0.2246  0.0879
 9900TIP3    H251116   2.382   1.147   2.847  0.5798 -1.7498  0.7613
 9901TIP3   OH251117   0.176   1.652   3.406  0.2056 -0.0551 -0.5695
 9901TIP3    H151118   0.081   1.651   3.396  0.2874  1.8025 -2.0896
 9901TIP3    H251119   0.209   1.615   3.324  0.7786  0.8398 -0.7608
 9902TIP3   OH251120   4.972   6.198   2.512  0.2531 -0.4964 -0.9643
 9902TIP3    H151121   4.881   6.190   2.543  0.2396  0.4963 -0.7214
 9902TIP3    H251122   4.996   6.109   2.486 -0.7193 -0.8108 -0.8322
 9903TIP3   OH251123   0.217   5.378  12.186 -0.0656 -0.1018  0.4150
 9903TIP3    H151124   0.305   5.415  12.194 -0.5726  1.2044  0.1166
 9903TIP3    H251125   0.167   5.419  12.256 -0.3714 -1.0823  0.7848
 9904TIP3   OH251126   6.403   2.807  17.073  0.7114 -0.7210  0.4267
 9904TIP3    H151127   6.431   2.824  16.983  2.4858 -1.0973  0.8742
 9904TIP3    H251128   6.366   2.719  17.071 -0.7797 -0.1147 -0.2302
 9905TIP3   OH251129   1.947   6.011  15.272 -0.1107  0.2091 -0.0845
 9905TIP3    H151130   2.003   5.986  15.198  0.3535  0.3846  0.2018
 9905TIP3    H251131   1.966   5.945  15.339  0.6089  0.9161  0.4282
 9906TIP3   OH251132   6.506   6.157   2.731  0.6785  0.0510  0.4538
 9906TIP3    H151133   6.458   6.137   2.651  0.7054 -3.3092  1.1281
 9906TIP3    H251134   6.545   6.243   2.715  1.6301 -0.9262 -3.6072
 9907TIP3   OH251135   1.627   5.963   1.927  0.6095  0.0904  0.0066
 9907TIP3    H151136   1.591   5.975   1.840  3.5557  1.7674 -1.1051
 9907TIP3    H251137   1.670   5.877   1.924  0.4120 -0.0057 -0.0636
 9908TIP3   OH251138   6.563   1.736  16.101  0.1497 -0.0687 -0.9168
 9908TIP3    H151139   6.615   1.705  16.175  0.7113  2.8696  0.0487
 9908TIP3    H251140   6.473   1.715  16.125  0.5988 -2.7590 -1.3403
 9909TIP3   OH251141   6.384   5.751  11.560  0.1393  0.7342 -0.2048
 9909TIP3    H151142   6.446   5.678  11.569  0.7539  1.1974 -0.6084
 9909TIP3    H251143   6.348   5.741  11.472 -1.5331 -0.4182  0.5427
 9910TIP3   OH251144   5.096   5.964   2.014  0.2627 -0.0214  0.1292
 9910TIP3    H151145   5.189   5.950   1.997 -0.0565 -2.9392  0.2353
 9910TIP3    H251146   5.055   5.961   1.927  0.1888  0.5650  0.1415
 9911TIP3   OH251147   4.364   5.399   0.577 -0.4065  0.1818 -0.0582
 9911TIP3    H151148   4.387   5.338   0.647 -0.0869  0.5125  0.1287
 9911TIP3    H251149   4.433   5.465   0.579 -0.3974  0.2034 -0.6774
 9912TIP3   OH251150   3.152   4.932  14.463  0.0121 -0.0175 -0.0862
 9912TIP3    H151151   3.168   4.980  14.544  1.6725  0.5346 -0.6981
 9912TIP3    H251152   3.120   4.999  14.402 -0.1538 -0.2124 -0.2139
 9913TIP3   OH251153   0.274   4.029  15.452 -0.4687 -0.1974 -0.6102
 9913TIP3    H151154   0.341   3.961  15.462 -1.1822 -1.0447 -1.4402
 9913TIP3    H251155   0.228   4.030  15.536  0.4335  0.2658 -0.0954
 9914TIP3   OH251156   2.827   5.399  14.751 -1.1819 -0.2770  0.0146
 9914TIP3    H151157   2.744   5.445  14.742 -0.7323  0.8344  1.2959
 9914TIP3    H251158   2.893   5.468  14.762 -0.1312 -1.1470 -0.5887
 9915TIP3   OH251159   2.525   2.874  16.206 -0.3856 -0.3574  0.2872
 9915TIP3    H151160   2.562   2.816  16.274 -0.8732  0.3071  1.1448
 9915TIP3    H251161   2.442   2.833  16.183 -0.7032 -0.0476  0.8516
 9916TIP3   OH251162   1.125   0.856   0.206  0.3708 -0.1110 -0.2766
 9916TIP3    H151163   1.171   0.885   0.284  0.9262 -1.1661 -0.1851
 9916TIP3    H251164   1.173   0.897   0.133 -0.6309  1.5184 -0.0694
 9917TIP3   OH251165   2.953   2.106   2.363  0.5714 -0.6422 -0.1035
 9917TIP3    H151166   3.018   2.166   2.398  0.4243 -1.3252  1.4283
 9917TIP3    H251167   2.995   2.064   2.288  0.8604  0.9419 -0.8631
 9918TIP3   OH251168   5.756   6.787  15.549  0.2363 -0.1189  0.1008
 9918TIP3    H151169   5.822   6.792  15.617  1.1541  0.4791 -0.8037
 9918TIP3    H251170   5.730   6.695  15.547  1.3256 -0.4386  0.1993
 9919TIP3   OH251171   1.875   4.859  14.444  0.2312  0.2969 -0.5950
 9919TIP3    H151172   1.813   4.791  14.418 -0.8934  0.8236  0.5990
 9919TIP3    H251173   1.961   4.817  14.434 -0.3620 -0.8636 -1.1063
 9920TIP3   OH251174   1.218   5.299   3.463  0.1027  0.3027 -0.3312
 9920TIP3    H151175   1.232   5.356   3.538  0.6342 -1.1590  0.7221
 9920TIP3    H251176   1.168   5.225   3.497  0.7394 -0.6116 -1.2950
 9921TIP3   OH251177   4.235   0.107  12.176  0.0837  0.3689  0.1096
 9921TIP3    H151178   4.202   0.156  12.101 -1.7964 -0.5525  0.2896
 9921TIP3    H251179   4.301   0.049  12.140 -0.8800 -0.1416 -0.8744
 9922TIP3   OH251180   4.284   6.343   4.096 -0.2803  0.2670  0.1871
 9922TIP3    H151181   4.327   6.326   4.012  0.7498 -2.6789  1.1876
 9922TIP3    H251182   4.232   6.422   4.081  0.8750  0.5829 -2.8131
 9923TIP3   OH251183   1.727   0.181   4.513  0.1511  0.5036  0.4183
 9923TIP3    H151184   1.640   0.160   4.547  0.4375 -2.5546 -0.4006
 9923TIP3    H251185   1.713   0.256   4.455 -1.6739  0.9091  1.3266
 9924TIP3   OH251186   2.068   3.736   4.474 -0.6185 -0.3135 -0.5199
 9924TIP3    H151187   2.160   3.711   4.483 -0.1762  1.8686  2.6971
 9924TIP3    H251188   2.056   3.749   4.380  2.2116 -1.1164 -1.0910
 9925TIP3   OH251189   3.597   2.604   4.477 -0.1136 -0.3150  0.0664
 9925TIP3    H151190   3.659   2.675   4.462  1.7937 -1.7091  0.9300
 9925TIP3    H251191   3.607   2.581   4.569  1.0062 -3.1241 -0.6443
 9926TIP3   OH251192   0.319   4.485   1.311  0.0267 -0.8350 -0.7973
 9926TIP3    H151193   0.400   4.523   1.278  0.1684 -0.3790  0.0534
 9926TIP3    H251194   0.280   4.442   1.235  0.6853 -0.4040 -1.3890
 9927TIP3   OH251195   1.736   3.320  14.982  0.2989 -0.0718  0.2274
 9927TIP3    H151196   1.701   3.399  14.943 -0.6235  0.9010  2.7993
 9927TIP3    H251197   1.660   3.277  15.022  0.8524 -2.0773 -0.7391
 9928TIP3   OH251198   5.169   0.198   1.253  0.8435  0.3130  0.2603
 9928TIP3    H151199   5.167   0.151   1.336  0.5767 -1.1918 -0.5576
 9928TIP3    H251200   5.081   0.236   1.245  0.6663 -0.0653  0.3879
 9929TIP3   OH251201   6.316   3.345   0.023  0.4087 -0.1230  0.2354
 9929TIP3    H151202   6.351   3.256   0.033  2.4409  0.5556 -0.3712
 9929TIP3    H251203   6.338   3.389   0.105  1.9631  0.6070 -0.5463
 9930TIP3   OH251204   1.794   3.760   2.632  0.5189  0.0213  0.4564
 9930TIP3    H151205   1.805   3.671   2.598 -0.4659  0.0357  0.0734
 9930TIP3    H251206   1.702   3.780   2.617  0.2410  0.3599  2.3434
 9931TIP3   OH251207   2.717   2.243  14.994  0.5470  0.3976  0.7216
 9931TIP3    H151208   2.758   2.309  14.939 -0.9594 -0.8360 -2.0615
 9931TIP3    H251209   2.777   2.169  14.993  0.8928  0.6599  1.4478
 9932TIP3   OH251210   4.535   5.918  14.255 -0.0762  0.3665 -0.4522
 9932TIP3    H151211   4.555   5.874  14.172  0.0469 -2.4519  0.9513
 9932TIP3    H251212   4.571   5.860  14.322 -2.0376  1.4354  1.6673
 9933TIP3   OH251213   5.965   6.348  16.012 -0.0059 -0.0585  0.4632
 9933TIP3    H151214   5.904   6.320  15.943  2.6304 -1.9178 -1.2936
 9933TIP3    H251215   5.908   6.381  16.082 -2.9257 -0.2151 -1.6379
 9934TIP3   OH251216   5.495   6.557   5.586 -0.2783 -0.5358 -0.1202
 9934TIP3    H151217   5.561   6.527   5.649 -2.4146 -0.9710  2.0430
 9934TIP3    H251218   5.455   6.633   5.629  0.5251  1.4180 -2.5744
 9935TIP3   OH251219   3.847   6.105   5.919  0.4563  0.0241 -0.0549
 9935TIP3    H151220   3.919   6.160   5.950 -1.3482  1.5686  1.7659
 9935TIP3    H251221   3.851   6.026   5.973  1.4054 -0.4026 -0.7305
 9936TIP3   OH251222   4.254   3.337  11.198  0.3706  0.4443  0.3200
 9936TIP3    H151223   4.181   3.275  11.200 -0.4798  1.4070 -0.2693
 9936TIP3    H251224   4.241   3.393  11.274 -0.4192  1.6068 -0.6327
 9937TIP3   OH251225   3.836   1.547   4.040  0.2211 -0.2977  0.4428
 9937TIP3    H151226   3.918   1.558   4.090 -0.4180  0.2781  1.4002
 9937TIP3    H251227   3.861   1.495   3.964  1.9197  1.5890 -0.3857
 9938TIP3   OH251228   4.317   4.730   1.646 -0.4527  0.6614  0.8686
 9938TIP3    H151229   4.304   4.814   1.601 -0.1560 -0.0144 -0.5528
 9938TIP3    H251230   4.303   4.749   1.738 -0.2745  2.2960  0.5814
 9939TIP3   OH251231   1.949   3.144  15.830 -0.1725  0.7464  0.0704
 9939TIP3    H151232   1.894   3.132  15.907  0.3399  1.0871  0.4949
 9939TIP3    H251233   2.036   3.117  15.859 -0.4189 -1.6270 -1.1141
 9940TIP3   OH251234   1.619   2.314  13.353 -0.2605 -0.1632  0.1532
 9940TIP3    H151235   1.668   2.388  13.389 -0.0842 -0.4171  0.4485
 9940TIP3    H251236   1.599   2.260  13.430 -2.1202  0.5629  0.2352
 9941TIP3   OH251237   1.158   5.554   4.060  0.1274  0.7653  0.5183
 9941TIP3    H151238   1.197   5.631   4.019  0.2239  0.5482  0.1920
 9941TIP3    H251239   1.066   5.578   4.073 -0.2440  0.3889 -1.0651
 9942TIP3   OH251240   3.324   0.916  15.521 -0.3368  0.3450  0.2654
 9942TIP3    H151241   3.279   0.922  15.606  1.6013  0.0348  1.3872
 9942TIP3    H251242   3.337   0.822  15.508 -0.2216  0.4165 -0.1526
 9943TIP3   OH251243   6.421   4.031   1.282 -0.0751 -0.1316 -0.1068
 9943TIP3    H151244   6.363   4.103   1.256 -0.4541 -0.9829 -1.7754
 9943TIP3    H251245   6.508   4.060   1.255 -0.3129 -0.5294 -1.3529
 9944TIP3   OH251246   3.132   3.535   3.215 -0.1094  0.0041 -0.2665
 9944TIP3    H151247   3.125   3.607   3.278 -1.7365  0.8721 -1.3996
 9944TIP3    H251248   3.226   3.525   3.201  0.1531  2.5290 -0.7513
 9945TIP3   OH251249   6.253   5.703  13.553  0.2842  0.1584  0.1840
 9945TIP3    H151250   6.257   5.614  13.590 -1.2590  0.6320  1.6026
 9945TIP3    H251251   6.267   5.761  13.627 -0.8004  1.1261 -0.3330
 9946TIP3   OH251252   4.218   0.536   0.930 -0.2567  0.3214  0.1803
 9946TIP3    H151253   4.151   0.575   0.875 -0.3474  1.1298  0.8502
 9946TIP3    H251254   4.255   0.609   0.979  0.9865 -0.1446 -0.0369
 9947TIP3   OH251255   1.176   1.971   0.850 -0.0540  0.7345  0.1114
 9947TIP3    H151256   1.088   1.940   0.871  0.1849 -0.0014  0.0841
 9947TIP3    H251257   1.218   1.983   0.935  0.2908 -0.3687  0.1140
 9948TIP3   OH251258   6.426   1.523   0.078  0.8949 -0.0211  0.5060
 9948TIP3    H151259   6.442   1.617   0.088  0.4536  0.1037  0.0772
 9948TIP3    H251260   6.492   1.481   0.134  1.0757  0.5426  0.7193
 9949TIP3   OH251261   6.551   3.838   1.542  0.5759  0.1441 -0.0541
 9949TIP3    H151262   6.605   3.857   1.619  0.9540 -1.6597  0.1644
 9949TIP3    H251263   6.586   3.896   1.474  1.4409  0.4614  0.6388
 9950TIP3   OH251264   0.024   4.366   0.499 -0.5538 -0.2407  0.4307
 9950TIP3    H151265   0.052   4.300   0.436 -0.1794  0.2982  0.0221
 9950TIP3    H251266   0.105   4.398   0.538 -0.5422  1.4472 -0.8766
 9951TIP3   OH251267   4.677   6.461   4.108  0.2126  0.3769  0.5759
 9951TIP3    H151268   4.770   6.464   4.130  0.3725  0.7525 -0.1298
 9951TIP3    H251269   4.645   6.380   4.149  0.8821  0.1628  0.6813
 9952TIP3   OH251270   4.938   5.139   4.069 -0.4940  0.0773  0.4657
 9952TIP3    H151271   4.992   5.217   4.055 -0.5815  0.0953  0.2207
 9952TIP3    H251272   4.870   5.145   4.001  0.1093 -0.7502 -0.2244
 9953TIP3   OH251273   2.768   2.252  14.654 -0.2448 -0.1139  0.3911
 9953TIP3    H151274   2.679   2.226  14.677  0.3160 -0.3070  2.5574
 9953TIP3    H251275   2.781   2.335  14.700  0.7568 -0.2147  0.3141
 9954TIP3   OH251276   6.155   4.747   4.521  0.2928 -0.7820 -0.2144
 9954TIP3    H151277   6.160   4.808   4.595  0.9648 -1.7845  0.6060
 9954TIP3    H251278   6.067   4.761   4.485  0.2389  0.2785  0.2783
 9955TIP3   OH251279   1.149   1.638   4.217  0.3582 -0.0961 -0.5199
 9955TIP3    H151280   1.205   1.607   4.145  0.9889  0.9967 -0.5107
 9955TIP3    H251281   1.147   1.733   4.206  0.8301  0.1310  1.1734
 9956TIP3   OH251282   1.158   3.951  11.640 -0.5639  0.1319  0.2316
 9956TIP3    H151283   1.125   3.968  11.728  0.0062 -0.8900  0.6613
 9956TIP3    H251284   1.088   3.978  11.581 -0.6921  1.4745  0.9593
 9957TIP3   OH251285   2.397   5.331  15.730 -0.0004  0.4766  0.0941
 9957TIP3    H151286   2.310   5.293  15.732 -0.7454  2.0456 -0.5780
 9957TIP3    H251287   2.447   5.275  15.670 -1.0600  0.5601 -0.8916
 9958TIP3   OH251288   0.659   0.711   0.277 -0.0126 -0.5721  0.4932
 9958TIP3    H151289   0.731   0.660   0.240 -1.1354 -1.8202 -0.0611
 9958TIP3    H251290   0.582   0.686   0.225 -1.0566 -0.0788  1.7386
 9959TIP3   OH251291   6.480   1.537  13.526  0.4751  0.2765  0.5952
 9959TIP3    H151292   6.574   1.548  13.541  0.7085  0.6335 -0.9360
 9959TIP3    H251293   6.463   1.585  13.445 -0.7762 -0.9351  0.0956
 9960TIP3   OH251294   4.842   6.379  14.344  0.2163 -0.4119 -0.4462
 9960TIP3    H151295   4.746   6.386  14.345  0.3476  1.8550 -0.3731
 9960TIP3    H251296   4.868   6.396  14.434  0.7660  0.8094 -0.8189
 9961TIP3   OH251297   0.632   3.147  12.418  0.3807  0.4546  0.0214
 9961TIP3    H151298   0.593   3.077  12.365  1.6849 -1.2916  1.2694
 9961TIP3    H251299   0.711   3.172  12.370 -0.8344  2.2077 -1.1929
 9962TIP3   OH251300   3.471   0.423   5.548 -0.2491  0.2383  0.2139
 9962TIP3    H151301   3.563   0.395   5.554 -0.0099  1.0266  0.3336
 9962TIP3    H251302   3.421   0.342   5.553  0.3288 -0.0381  2.5805
 9963TIP3   OH251303   3.092   6.576   1.052 -0.3170  0.2190  0.0869
 9963TIP3    H151304   3.069   6.669   1.053 -2.2982 -0.1786 -1.5337
 9963TIP3    H251305   3.023   6.534   1.103 -0.0437 -0.4619 -0.0901
 9964TIP3   OH251306   0.936   4.128   0.274  0.1330 -0.1485  0.3293
 9964TIP3    H151307   0.921   4.107   0.367 -0.0123 -0.5357  0.2209
 9964TIP3    H251308   0.921   4.045   0.229  1.9916 -0.4435  0.1424
 9965TIP3   OH251309   5.508   1.001   0.740 -0.3280  0.5983  0.0598
 9965TIP3    H151310   5.471   0.958   0.817  2.5715  0.1600  1.3471
 9965TIP3    H251311   5.503   1.095   0.760  3.2119  0.4870  2.4475
 9966TIP3   OH251312   4.757   2.924  14.684 -0.1503 -0.2542  0.3842
 9966TIP3    H151313   4.717   2.968  14.609  3.1676  0.4543 -1.1628
 9966TIP3    H251314   4.837   2.974  14.701  0.7644 -2.2483  2.4170
 9967TIP3   OH251315   5.514   3.340  15.739  0.6015  0.0946  0.2222
 9967TIP3    H151316   5.566   3.265  15.708 -0.7121 -0.5877 -0.4339
 9967TIP3    H251317   5.470   3.308  15.817  0.5928  0.4241  0.3538
 9968TIP3   OH251318   4.849   6.787   5.572  0.5203 -0.0084 -0.6530
 9968TIP3    H151319   4.821   6.766   5.661 -0.1963 -1.4153 -1.1830
 9968TIP3    H251320   4.936   6.749   5.564  0.8334  0.6335 -0.3787
 9969TIP3   OH251321   5.057   3.832  15.112  0.5146 -0.0724 -0.0544
 9969TIP3    H151322   5.116   3.793  15.048 -1.5420 -0.1881 -1.9904
 9969TIP3    H251323   5.032   3.916  15.074  1.0107  0.9468  1.7282
 9970TIP3   OH251324   4.619   4.098  15.075 -0.4081 -1.0100 -0.4640
 9970TIP3    H151325   4.658   4.143  15.000  0.0594 -1.3691 -0.4420
 9970TIP3    H251326   4.599   4.169  15.137  2.6450 -0.9552  0.6443
 9971TIP3   OH251327   3.406   1.992   3.028  0.3108 -0.2942  0.0573
 9971TIP3    H151328   3.339   2.027   3.087 -0.7295  0.2369 -1.4011
 9971TIP3    H251329   3.393   1.897   3.030  0.5057 -0.3141  0.9101
 9972TIP3   OH251330   0.069   0.635  15.130  0.5722  0.2594 -0.1239
 9972TIP3    H151331   0.131   0.681  15.186  1.2467 -0.0448 -0.6035
 9972TIP3    H251332  -0.002   0.609  15.188  1.2164  0.0277  0.5725
 9973TIP3   OH251333   5.751   5.816   3.885  0.1027 -0.1973  0.0622
 9973TIP3    H151334   5.820   5.751   3.879 -0.6298 -0.9115 -0.9936
 9973TIP3    H251335   5.789   5.895   3.848  0.9624 -0.0244  1.2559
 9974TIP3   OH251336   6.037   4.178  16.510 -0.4338  0.0959  0.0801
 9974TIP3    H151337   6.066   4.145  16.595  0.4266  1.0316  0.1753
 9974TIP3    H251338   5.968   4.118  16.483 -0.4564 -0.4391  1.2640
 9975TIP3   OH251339   3.699   2.936  12.999  0.5902  0.6985 -0.5458
 9975TIP3    H151340   3.617   2.976  13.028 -0.2027 -1.7685  0.9498
 9975TIP3    H251341   3.688   2.921  12.905 -0.4645  0.8422 -0.4477
 9976TIP3   OH251342   5.552   5.048   0.479 -1.0130  0.1589 -0.2455
 9976TIP3    H151343   5.484   5.111   0.456 -0.1172  0.4892 -2.2341
 9976TIP3    H251344   5.626   5.102   0.506 -1.1819 -0.1603  0.8814
 9977TIP3   OH251345   5.774   3.334   2.386  0.1852 -0.3421 -0.3143
 9977TIP3    H151346   5.853   3.290   2.354 -0.1043 -0.3845 -0.9808
 9977TIP3    H251347   5.716   3.337   2.310 -0.9507 -1.3929  0.4885
 9978TIP3   OH251348   2.878   4.224  12.240  0.1734  0.3033  0.2014
 9978TIP3    H151349   2.811   4.268  12.293 -1.2151 -0.8836 -0.4754
 9978TIP3    H251350   2.904   4.289  12.175 -0.7546  0.6214  0.1347
 9979TIP3   OH251351   0.171   1.543   4.637 -0.0909 -0.8968  0.5146
 9979TIP3    H151352   0.190   1.628   4.677 -2.7668 -0.9856  2.2672
 9979TIP3    H251353   0.237   1.484   4.673 -1.8538 -0.7825  4.4363
 9980TIP3   OH251354   1.930   0.111   1.557 -0.0846  0.6029  0.0650
 9980TIP3    H151355   1.933   0.126   1.462  1.0503 -1.6137 -0.3286
 9980TIP3    H251356   2.004   0.053   1.574 -0.0454  1.2504  2.4041
 9981TIP3   OH251357   6.041   1.281   0.396  0.3187  0.1664  0.5508
 9981TIP3    H151358   5.967   1.316   0.345  1.0243  1.0600  0.1238
 9981TIP3    H251359   6.001   1.213   0.451 -0.9639  1.1437  0.8796
 9982TIP3   OH251360   6.081   4.023  13.228 -0.2078 -0.3317 -0.0309
 9982TIP3    H151361   6.087   4.079  13.151  3.1181 -0.9195 -0.3598
 9982TIP3    H251362   6.073   4.083  13.302 -3.2936  0.2445 -0.6873
 9983TIP3   OH251363   3.110   2.312   2.499 -0.3489 -0.0533 -1.1662
 9983TIP3    H151364   3.135   2.349   2.583 -1.7167 -1.0119 -0.2783
 9983TIP3    H251365   3.028   2.355   2.477 -2.1439 -2.5906  0.0454
 9984TIP3   OH251366   2.019   5.735  10.994 -0.2895 -0.4763 -0.1356
 9984TIP3    H151367   2.074   5.800  10.951 -0.9314 -0.2852 -0.6798
 9984TIP3    H251368   1.957   5.786  11.046  0.6241 -0.7074  1.2319
 9985TIP3   OH251369   0.508   1.414  11.570  0.2147  0.8745 -0.0846
 9985TIP3    H151370   0.509   1.453  11.657 -2.7543  0.2465  0.3302
 9985TIP3    H251371   0.432   1.453  11.526  1.0906  0.4905 -2.0885
 9986TIP3   OH251372   1.196   4.539  11.848 -0.0672 -0.0835 -0.2700
 9986TIP3    H151373   1.256   4.474  11.814 -1.0739 -1.0531 -0.2689
 9986TIP3    H251374   1.193   4.607  11.781 -1.5685 -1.6715 -1.9447
 9987TIP3   OH251375   5.561   6.012  16.073  0.3590  0.1881  0.0819
 9987TIP3    H151376   5.477   5.967  16.062 -0.0696  0.6499  1.3162
 9987TIP3    H251377   5.611   5.955  16.132  0.3386  0.6361  0.5402
 9988TIP3   OH251378   6.508   1.372   3.182 -0.0149 -0.0588  0.0382
 9988TIP3    H151379   6.423   1.328   3.171  0.5592 -1.3715  0.6865
 9988TIP3    H251380   6.491   1.440   3.247 -0.7874  0.3342 -0.5547
 9989TIP3   OH251381   5.026   5.183   0.416  0.6490  0.0749  0.0048
 9989TIP3    H151382   5.056   5.217   0.332  2.6716  0.5713  0.8794
 9989TIP3    H251383   5.011   5.089   0.401 -1.2604  0.5525 -1.4426
 9990TIP3   OH251384   3.472   0.381   2.764 -0.9572 -0.4694  0.5665
 9990TIP3    H151385   3.393   0.380   2.711 -1.5064  0.9335  1.3135
 9990TIP3    H251386   3.448   0.334   2.844  0.0257 -3.0594 -0.5411
 9991TIP3   OH251387   3.782   0.559  12.797 -0.1759  0.3632  0.5135
 9991TIP3    H151388   3.745   0.471  12.802  0.7423  0.0118  1.3738
 9991TIP3    H251389   3.836   0.558  12.718 -2.7605  1.2319 -1.4466
 9992TIP3   OH251390   5.780   6.300  15.791 -0.5204  0.4948  0.4689
 9992TIP3    H151391   5.817   6.255  15.715 -1.7106  1.1191 -0.5180
 9992TIP3    H251392   5.726   6.234  15.834 -0.6557  0.4176  0.1838
 9993TIP3   OH251393   1.659   0.667  10.906 -0.1462 -0.2020  0.5133
 9993TIP3    H151394   1.671   0.756  10.873  0.9810 -0.3031  0.5910
 9993TIP3    H251395   1.602   0.625  10.842  1.5009 -0.2115 -1.0454
 9994TIP3   OH251396   3.345   1.668   6.536  0.0640  0.4341  0.0235
 9994TIP3    H151397   3.379   1.582   6.561  0.6717 -0.3517 -3.0314
 9994TIP3    H251398   3.254   1.652   6.513 -0.0235  0.7718  0.1332
 9995TIP3   OH251399   4.036   3.290   2.639 -0.1295 -0.0672  0.2319
 9995TIP3    H151400   3.999   3.347   2.571 -0.1597 -1.8717 -1.3641
 9995TIP3    H251401   3.964   3.233   2.664 -0.0105  0.3336  1.5515
 9996TIP3   OH251402   5.470   6.585   3.287  0.4130  0.4764  0.2209
 9996TIP3    H151403   5.546   6.542   3.327  0.2418  0.1991  0.2539
 9996TIP3    H251404   5.408   6.594   3.359 -0.6673 -1.7566 -0.3241
 9997TIP3   OH251405   3.369   3.838   4.932 -0.3203 -0.0319 -0.1563
 9997TIP3    H151406   3.323   3.907   4.980  0.1015  0.6700 -0.7295
 9997TIP3    H251407   3.340   3.849   4.841  0.1220 -0.2904 -0.3308
 9998TIP3   OH251408   2.368   3.794  11.459 -0.1791  0.2025 -0.4265
 9998TIP3    H151409   2.334   3.860  11.519 -0.5685 -1.2850  1.0446
 9998TIP3    H251410   2.290   3.765  11.410 -0.5723 -1.1368  0.9170
 9999TIP3   OH251411   2.552   5.650   6.017 -0.0326 -0.0848  0.3053
 9999TIP3    H151412   2.477   5.705   6.041  1.1508  1.2852  1.0771
 9999TIP3    H251413   2.598   5.635   6.100  0.1654 -1.5005 -0.0468
10000TIP3   OH251414   5.445   1.817   3.323 -0.2204 -0.5419  0.1399
10000TIP3    H151415   5.468   1.753   3.255  1.4236 -1.0005  1.0649
10000TIP3    H251416   5.378   1.872   3.282  2.3773  0.7703 -2.8208
10001TIP3   OH251417   1.261   0.644   2.409 -0.2429  0.2708  0.1184
10001TIP3    H151418   1.182   0.597   2.435  0.1905 -0.1064  0.7716
10001TIP3    H251419   1.311   0.654   2.490  1.2685 -1.1648 -0.5965
10002TIP3   OH251420   3.812   4.094  12.676 -0.0129 -0.4891 -0.1428
10002TIP3    H151421   3.821   4.155  12.748  1.0046  0.4102 -0.9921
10002TIP3    H251422   3.885   4.033  12.687  1.5617  1.0024 -1.6101
10003TIP3   OH251423   4.259   5.136   5.494  0.0247 -0.3766  0.9016
10003TIP3    H151424   4.189   5.072   5.510 -0.4793  0.3444  1.6351
10003TIP3    H251425   4.338   5.092   5.527 -0.2379 -0.8020  0.9824
10004TIP3   OH251426   6.021   5.934  16.694 -0.1166 -0.6042  0.7072
10004TIP3    H151427   6.102   5.901  16.657  0.3386 -0.4417  1.5289
10004TIP3    H251428   5.956   5.866  16.677  0.2753 -0.8935  0.3697
10005TIP3   OH251429   4.130   5.369   4.736 -0.1669  0.2454  0.3875
10005TIP3    H151430   4.197   5.313   4.777  0.5989  0.3041 -0.7615
10005TIP3    H251431   4.147   5.456   4.773 -0.3596  0.0425  0.9770
10006TIP3   OH251432   0.501   2.970   1.143 -0.5739  0.0493  0.1119
10006TIP3    H151433   0.416   2.997   1.177  0.9037  3.0828  1.8047
10006TIP3    H251434   0.535   3.048   1.100  2.4852 -0.1353  1.9447
10007TIP3   OH251435   2.674   0.373   4.489  0.6017 -0.0512 -0.2794
10007TIP3    H151436   2.594   0.326   4.514 -0.4182  1.2584 -0.9495
10007TIP3    H251437   2.711   0.402   4.573  0.0343 -0.1434  0.0105
10008TIP3   OH251438   5.351   6.731   5.766 -0.2989 -0.1915 -0.3756
10008TIP3    H151439   5.334   6.822   5.742 -0.6769  0.4132  1.8961
10008TIP3    H251440   5.373   6.735   5.859  1.8497 -2.1870 -0.7012
10009TIP3   OH251441   0.425   1.573  13.406 -0.0732  0.0515  0.2401
10009TIP3    H151442   0.427   1.637  13.478  1.6738  2.0014 -1.4260
10009TIP3    H251443   0.484   1.503  13.435  0.2482  0.5883  0.9104
10010TIP3   OH251444   6.644   5.858  11.485  0.4926 -0.7749  0.1828
10010TIP3    H151445   6.696   5.812  11.550 -0.1303 -2.5955 -0.5317
10010TIP3    H251446   6.557   5.820  11.492  0.2206 -0.4741 -1.1829
10011TIP3   OH251447   6.564   4.924  13.589 -0.8166 -0.7107  0.0439
10011TIP3    H151448   6.524   5.003  13.553  0.4095 -0.2884 -0.4348
10011TIP3    H251449   6.499   4.855  13.575 -3.1994  0.6652  3.0163
10012TIP3   OH251450   3.062   2.341  11.323  0.2235 -0.5180  0.0001
10012TIP3    H151451   3.147   2.313  11.290  0.6356 -1.1120  1.4738
10012TIP3    H251452   2.999   2.305  11.261  0.9310 -2.0189  0.1120
10013TIP3   OH251453   3.289   0.935  11.891 -0.3167  0.1075 -0.1655
10013TIP3    H151454   3.345   1.008  11.863 -1.1551  1.5798  1.7553
10013TIP3    H251455   3.312   0.922  11.983 -0.3634 -1.9552 -0.4018
10014TIP3   OH251456   5.364   2.009   2.274 -0.2530  0.3578 -0.1472
10014TIP3    H151457   5.285   2.029   2.325  0.1553  1.0855  0.2278
10014TIP3    H251458   5.436   2.043   2.328  0.3480 -0.5649 -0.3452
10015TIP3   OH251459   5.310   1.104   0.103 -0.0116 -0.4848 -0.6567
10015TIP3    H151460   5.319   1.188   0.057  3.0239 -1.4596 -2.1550
10015TIP3    H251461   5.326   1.126   0.195  0.0900  0.6815 -0.9307
10016TIP3   OH251462   0.354   0.400   4.260  0.2509  0.7281  0.0522
10016TIP3    H151463   0.316   0.404   4.172  0.1086  0.8474  0.1211
10016TIP3    H251464   0.433   0.347   4.248  0.6140  1.3349 -0.2851
10017TIP3   OH251465   1.743   0.417  12.485 -0.2848  0.2618 -0.3016
10017TIP3    H151466   1.821   0.393  12.434  0.1832  0.2085  0.4192
10017TIP3    H251467   1.778   0.442  12.571 -0.9009  1.9729 -0.5240
10018TIP3   OH251468   3.940   6.369   1.642 -0.0597  0.2678  0.6284
10018TIP3    H151469   3.887   6.304   1.596 -1.2248  0.7251  1.2712
10018TIP3    H251470   3.954   6.439   1.577  0.2064 -0.0967  0.2920
10019TIP3   OH251471   1.004   1.276   5.564 -0.4395 -0.1492  1.3146
10019TIP3    H151472   0.976   1.257   5.653 -1.4715 -1.0372  0.8220
10019TIP3    H251473   1.054   1.199   5.537 -0.0449  0.1587  1.1556
10020TIP3   OH251474   5.614   2.411  15.801 -0.1051 -0.4998 -0.2121
10020TIP3    H151475   5.614   2.420  15.706 -0.4207 -0.9091 -0.2525
10020TIP3    H251476   5.535   2.456  15.830  0.0977 -0.1974 -0.1243
10021TIP3   OH251477   6.593   2.947   4.844  0.8254  0.2349  0.0971
10021TIP3    H151478   6.564   2.912   4.929  1.6419 -1.4151 -0.2724
10021TIP3    H251479   6.683   2.975   4.859  0.5977  1.0310  0.0462
10022TIP3   OH251480   0.397   5.260  16.859 -0.1475  0.6098 -0.0546
10022TIP3    H151481   0.453   5.211  16.920  1.2740  2.1353 -0.0770
10022TIP3    H251482   0.356   5.192  16.805  1.2369 -0.6043  0.3569
10023TIP3   OH251483   4.049   1.699   1.563  0.3782 -0.2271  0.2376
10023TIP3    H151484   4.022   1.742   1.482  1.7981  1.6279  0.6766
10023TIP3    H251485   3.991   1.737   1.630  0.2322 -0.6013  0.3264
10024TIP3   OH251486   5.648   3.451   0.336  0.2641 -0.5427 -0.2499
10024TIP3    H151487   5.718   3.432   0.274 -1.2562 -1.6741 -1.7257
10024TIP3    H251488   5.693   3.483   0.414  2.2802  0.7373 -1.8300
10025TIP3   OH251489   6.265   4.807  15.144  0.0612  0.4833  0.0935
10025TIP3    H151490   6.173   4.794  15.166  0.0216  1.4225  0.5090
10025TIP3    H251491   6.268   4.889  15.096  0.6638  0.3744 -0.0750
10026TIP3   OH251492   2.337   5.633   5.457  0.0363  0.1202 -0.1066
10026TIP3    H151493   2.359   5.639   5.550 -0.9306  0.4826  0.1114
10026TIP3    H251494   2.421   5.628   5.412  0.4983 -1.4539  0.8711
10027TIP3   OH251495   2.440   6.730   4.554 -0.4794 -0.0699  0.1146
10027TIP3    H151496   2.472   6.678   4.628  0.8766  0.3719 -0.1341
10027TIP3    H251497   2.447   6.671   4.479  0.4745  0.2654 -0.0646
10028TIP3   OH251498   5.640   5.098  16.617 -0.0443  0.3114  0.5555
10028TIP3    H151499   5.632   5.145  16.700 -0.5968  0.1141  0.6185
10028TIP3    H251500   5.579   5.142  16.558  1.9852  1.9398 -0.4741
10029TIP3   OH251501   2.115   2.224   1.346  0.2737 -0.0260 -0.4455
10029TIP3    H151502   2.202   2.243   1.381  0.4783 -0.1198 -0.8897
10029TIP3    H251503   2.118   2.130   1.325  0.0222 -0.0573 -0.3399
10030TIP3   OH251504   5.922   0.472  13.274  0.4311 -0.1915 -0.3874
10030TIP3    H151505   5.843   0.430  13.310  0.4041  0.3479  0.2120
10030TIP3    H251506   5.889   0.552  13.233  0.6519 -0.0465 -0.2794
10031TIP3   OH251507   6.351   4.788  17.007 -0.0833 -0.1383  0.6703
10031TIP3    H151508   6.343   4.808  16.914 -1.0819 -2.4958  0.1552
10031TIP3    H251509   6.279   4.836  17.048 -0.7815 -0.5036 -0.0873
10032TIP3   OH251510   1.178   4.893   2.937  0.1795  0.0187 -0.3337
10032TIP3    H151511   1.205   4.834   2.866  0.6359  0.8403 -0.8635
10032TIP3    H251512   1.125   4.959   2.893 -2.0784 -1.0943  0.5608
10033TIP3   OH251513   5.868   0.381   3.221  0.9006  0.0886 -0.2918
10033TIP3    H151514   5.942   0.369   3.280  0.8667 -0.4111 -0.3453
10033TIP3    H251515   5.795   0.404   3.279  0.8211 -0.5914 -0.1058
10034TIP3   OH251516   2.839   2.328  11.993  0.3642  0.8165 -0.3498
10034TIP3    H151517   2.876   2.306  12.078  0.2175 -0.0571 -0.5004
10034TIP3    H251518   2.914   2.332  11.934  0.3046 -0.3807 -0.5373
10035TIP3   OH251519   4.842   4.298   3.960  0.1572  0.3749 -0.3692
10035TIP3    H151520   4.846   4.373   3.900  0.4501  1.2608  0.7098
10035TIP3    H251521   4.839   4.338   4.047  2.1775 -0.8822  0.3483
10036TIP3   OH251522   1.115   2.867  13.878 -0.3331  0.0541 -0.5567
10036TIP3    H151523   1.057   2.839  13.807 -0.2805  1.8789 -1.3702
10036TIP3    H251524   1.119   2.962  13.870  2.4387  0.0448 -0.2821
10037TIP3   OH251525   6.443   2.834   0.978 -0.1475  0.2779 -0.2207
10037TIP3    H151526   6.451   2.752   0.929 -0.4397  0.3641 -0.4152
10037TIP3    H251527   6.407   2.808   1.063 -0.4847  0.2376 -0.3770
10038TIP3   OH251528   6.691   5.776  14.308 -0.1220 -0.1837 -0.0342
10038TIP3    H151529   6.766   5.732  14.269 -0.8829  0.0040 -1.7709
10038TIP3    H251530   6.662   5.716  14.377  1.1066 -0.6392  0.1125
10039TIP3   OH251531   6.316   2.021   6.305  0.3795 -0.0598 -0.3523
10039TIP3    H151532   6.224   2.020   6.279  0.4959 -1.5851 -0.7948
10039TIP3    H251533   6.320   2.086   6.375 -0.4136  2.3188 -2.3817
10040TIP3   OH251534   3.095   3.127  13.102 -0.2492 -0.3613 -0.2075
10040TIP3    H151535   3.027   3.132  13.034  0.2383  0.5295 -0.6547
10040TIP3    H251536   3.177   3.135  13.054  0.1257 -0.2905  0.4356
10041TIP3   OH251537   1.016   5.706  14.203  0.0430  0.3148 -0.2070
10041TIP3    H151538   0.937   5.666  14.166  0.9357  0.3162 -2.2364
10041TIP3    H251539   1.059   5.634  14.249 -1.5198  0.5154  1.7074
10042TIP3   OH251540   0.763   6.489  15.585 -0.4224  0.0914 -0.2716
10042TIP3    H151541   0.714   6.424  15.534 -0.6274  0.6049 -0.7412
10042TIP3    H251542   0.853   6.479  15.555 -0.2089 -0.9174  0.6589
10043TIP3   OH251543   4.767   2.520   4.353 -0.0850 -0.3742  0.0350
10043TIP3    H151544   4.709   2.475   4.414 -0.6871  2.5124  1.8337
10043TIP3    H251545   4.851   2.523   4.399 -0.2620  0.9183  0.3126
10044TIP3   OH251546   3.348   4.571   6.230  0.1272 -0.4693 -0.2954
10044TIP3    H151547   3.424   4.623   6.202  0.2358  0.2897  1.2842
10044TIP3    H251548   3.385   4.486   6.254  0.4486 -0.1967  0.1993
10045TIP3   OH251549   0.974   0.097   3.007  0.3124  0.3635  0.2196
10045TIP3    H151550   1.033   0.026   2.980  0.0103  0.3781 -0.4967
10045TIP3    H251551   0.910   0.054   3.064 -0.2266 -0.0798 -0.6869
10046TIP3   OH251552   6.130   5.270   3.410 -0.1625  0.2911 -0.9083
10046TIP3    H151553   6.068   5.201   3.387 -1.6272  0.5475  1.7689
10046TIP3    H251554   6.208   5.224   3.441 -1.0338 -0.2536  0.6199
10047TIP3   OH251555   5.190   1.336   1.482 -0.8948 -0.5442 -0.0845
10047TIP3    H151556   5.283   1.357   1.473 -0.7391  0.1752  2.5085
10047TIP3    H251557   5.156   1.338   1.392  1.2081  0.9192 -0.9162
10048TIP3   OH251558   4.526   2.879   5.749  0.0135 -0.1728  0.3783
10048TIP3    H151559   4.443   2.832   5.753 -0.2154  0.2676  1.0526
10048TIP3    H251560   4.583   2.824   5.695  0.2536 -2.0142  2.3611
10049TIP3   OH251561   1.565   2.056  14.190  0.1884  0.2274 -0.1717
10049TIP3    H151562   1.658   2.078  14.191  0.5247 -1.0777 -1.2307
10049TIP3    H251563   1.539   2.061  14.098 -0.8247  0.6507  0.1167
10050TIP3   OH251564   1.929   5.251   1.107  0.0118  0.6778  0.2212
10050TIP3    H151565   1.889   5.190   1.044 -0.7074  0.1623  1.1347
10050TIP3    H251566   1.979   5.194   1.165 -0.0637  1.0372  0.6404
10051TIP3   OH251567   1.498   0.901  15.078  0.2483  0.0915  0.1837
10051TIP3    H151568   1.475   0.971  15.017 -0.1112  1.8175  2.1927
10051TIP3    H251569   1.589   0.879  15.056  0.0923  0.5485 -1.0229
10052TIP3   OH251570   2.521   1.027   1.936 -0.7406 -0.0635  0.3077
10052TIP3    H151571   2.447   1.069   1.978 -0.8550  0.7639 -0.6849
10052TIP3    H251572   2.564   1.097   1.886 -0.8832 -1.0655 -1.3063
10053TIP3   OH251573   0.148   2.694   0.063  0.6418  0.1532 -0.0747
10053TIP3    H151574   0.177   2.783   0.084  0.2656  0.3752 -0.4862
10053TIP3    H251575   0.054   2.702   0.048 -0.3288 -1.0000  3.9759
10054TIP3   OH251576   6.395   2.846  14.543  0.3051 -0.3739 -0.6220
10054TIP3    H151577   6.397   2.936  14.577 -1.6239  0.6709 -2.9994
10054TIP3    H251578   6.487   2.824  14.527  0.8476  0.9609  0.4755
10055TIP3   OH251579   3.353   6.699  13.608  0.2401  0.3577  0.0715
10055TIP3    H151580   3.342   6.609  13.639  0.1391 -0.2659 -1.6639
10055TIP3    H251581   3.447   6.715  13.613  0.5294 -0.6184 -1.5403
10056TIP3   OH251582   6.486   1.630  11.559 -0.0808 -0.0161  0.1521
10056TIP3    H151583   6.545   1.567  11.519 -0.5384 -1.5367  1.7591
10056TIP3    H251584   6.522   1.716  11.535  2.2938 -0.8856  0.3813
10057TIP3   OH251585   5.502   6.474   3.718  0.3166 -0.3802 -0.3713
10057TIP3    H151586   5.467   6.493   3.805  0.4604 -0.7272 -0.2395
10057TIP3    H251587   5.470   6.547   3.664  0.5635  0.0513  0.0544
10058TIP3   OH251588   3.324   1.934   6.541 -0.0290  0.7607 -0.3068
10058TIP3    H151589   3.414   1.944   6.570 -0.3971  1.1308  0.7656
10058TIP3    H251590   3.313   1.839   6.529  0.4436  0.6987 -0.2755
10059TIP3   OH251591   0.197   1.164   0.673  1.0036  0.4782  0.0423
10059TIP3    H151592   0.200   1.224   0.747  0.7028 -0.5522  0.9043
10059TIP3    H251593   0.275   1.109   0.682  0.2478 -0.5697  0.4049
10060TIP3   OH251594   4.954   6.237   1.984  0.2771 -0.0939 -0.1481
10060TIP3    H151595   5.019   6.190   2.037  0.7437  0.8493  0.1372
10060TIP3    H251596   4.940   6.181   1.908  1.3621 -0.3507 -0.1738
10061TIP3   OH251597   0.582   1.951   5.138  0.3344  0.1209 -0.4814
10061TIP3    H151598   0.590   1.980   5.229 -0.3740 -0.8406 -0.0920
10061TIP3    H251599   0.661   1.899   5.122  0.9190  1.0623 -0.7324
10062TIP3   OH251600   1.607   2.234  11.212  0.5430 -0.1291  0.2711
10062TIP3    H151601   1.655   2.246  11.294  0.1763 -1.5726  0.7129
10062TIP3    H251602   1.550   2.159  11.227 -0.4746  0.3647 -0.8884
10063TIP3   OH251603   4.058   1.672   2.572 -0.6137  0.5856 -0.0700
10063TIP3    H151604   4.048   1.603   2.638 -0.4060  0.0433 -0.5993
10063TIP3    H251605   3.982   1.729   2.585 -1.2313 -0.2045 -0.1740
10064TIP3   OH251606   4.068   1.010   0.321 -0.4624  0.6213 -0.6313
10064TIP3    H151607   4.154   1.043   0.345 -0.5796  0.1971  0.4536
10064TIP3    H251608   4.027   0.989   0.405 -1.2247 -0.1715 -1.1898
10065TIP3   OH251609   1.638   4.146   6.074  0.6410  0.0488  0.1630
10065TIP3    H151610   1.646   4.242   6.068  1.4255 -0.0947 -1.5592
10065TIP3    H251611   1.695   4.123   6.148  1.0270  0.8459  0.1341
10066TIP3   OH251612   0.651   4.727   3.239 -0.0213  0.2553 -0.0337
10066TIP3    H151613   0.581   4.690   3.293 -0.0729  0.4482  0.0333
10066TIP3    H251614   0.703   4.780   3.300  0.7077 -0.5933  0.1056
10067TIP3   OH251615   4.594   1.444  14.575 -0.2387  0.4342  0.2553
10067TIP3    H151616   4.661   1.509  14.554  1.4075 -1.2380  0.1855
10067TIP3    H251617   4.547   1.431  14.493  2.6071 -2.0025 -1.1583
10068TIP3   OH251618   1.848   5.536  13.157  0.5694  0.2793 -0.1114
10068TIP3    H151619   1.925   5.562  13.207 -0.0854 -1.0021  1.6725
10068TIP3    H251620   1.839   5.603  13.089  3.2794  0.4038 -0.4263
10069TIP3   OH251621   4.505   0.295   0.854 -0.5515  0.1422  0.0833
10069TIP3    H151622   4.420   0.291   0.899 -0.8134  0.6072 -0.3572
10069TIP3    H251623   4.504   0.379   0.808  0.6260  0.6986  1.0076
10070TIP3   OH251624   6.661   0.745   2.931 -0.2707  0.2666  0.5799
10070TIP3    H151625   6.628   0.698   2.855  0.1851  1.8702 -0.6550
10070TIP3    H251626   6.590   0.740   2.995  0.1575 -3.0032  0.9796
10071TIP3   OH251627   0.054   0.529   2.328 -0.4174  0.4176  0.0125
10071TIP3    H151628   0.136   0.529   2.278 -0.6413 -0.8069 -0.4043
10071TIP3    H251629   0.002   0.599   2.289 -0.3468 -0.1206 -1.1119
10072TIP3   OH251630   4.126   6.777  14.718  0.0898  0.4069 -0.5482
10072TIP3    H151631   4.134   6.690  14.680  0.7780  0.8737 -1.5329
10072TIP3    H251632   4.100   6.833  14.645 -0.3235  1.0311  0.0619
10073TIP3   OH251633   5.146   1.743   5.901 -0.1266 -0.3708 -0.6466
10073TIP3    H151634   5.106   1.796   5.832 -1.2324  0.6281  0.7056
10073TIP3    H251635   5.083   1.674   5.919 -0.6645  0.3986  0.5383
10074TIP3   OH251636   1.412   1.638   3.001 -0.3465 -0.2196  1.1494
10074TIP3    H151637   1.472   1.713   3.001 -0.4421 -0.1238 -0.3748
10074TIP3    H251638   1.331   1.671   2.964 -1.5156 -0.2683  3.4955
10075TIP3   OH251639   3.598   0.541   4.786  0.3744  0.0874  0.3606
10075TIP3    H151640   3.644   0.575   4.862 -0.3896  1.3977  0.2560
10075TIP3    H251641   3.530   0.606   4.767 -0.6273 -1.1075 -0.3258
10076TIP3   OH251642   1.366   3.917   2.189  0.9300  0.0570  0.2841
10076TIP3    H151643   1.431   3.926   2.120 -0.8430  0.2794 -1.4389
10076TIP3    H251644   1.281   3.921   2.144 -0.3133 -2.1163  2.1487
10077TIP3   OH251645   5.685   3.356   0.654  0.0581  0.2012  0.5397
10077TIP3    H151646   5.646   3.343   0.567  0.6976 -4.4966  0.6768
10077TIP3    H251647   5.615   3.397   0.705 -1.3540  0.5068 -1.4911
10078TIP3   OH251648   4.990   1.523   3.382  0.1808  0.4402  0.3816
10078TIP3    H151649   5.075   1.548   3.346  0.1930  1.3083  0.9775
10078TIP3    H251650   4.970   1.439   3.340  1.9030 -0.4293  1.2060
10079TIP3   OH251651   4.702   3.348   0.308  0.7781  0.0535 -0.0019
10079TIP3    H151652   4.708   3.381   0.398 -0.1276  2.1861 -0.6794
10079TIP3    H251653   4.772   3.282   0.303  0.3590 -0.7124  2.4685
10080TIP3   OH251654   5.405   6.055  10.836 -0.0405 -0.3642  0.6854
10080TIP3    H151655   5.363   6.121  10.781  0.0328  0.7859  1.9658
10080TIP3    H251656   5.499   6.069  10.821 -0.0368 -0.7933  0.2767
10081TIP3   OH251657   3.194   3.006  12.708 -0.0623  0.9120 -0.2541
10081TIP3    H151658   3.184   3.016  12.613  0.1202  0.5511 -0.3160
10081TIP3    H251659   3.105   3.012  12.743 -0.6596 -2.5791 -0.8126
10082TIP3   OH251660   3.453   0.143   3.002 -0.4262  0.4224 -0.2793
10082TIP3    H151661   3.434   0.075   2.937 -1.1370  0.5339 -0.1905
10082TIP3    H251662   3.388   0.211   2.985  0.1835  1.0189 -0.2684
10083TIP3   OH251663   2.428   0.367  15.047  0.1774  0.2222 -0.2154
10083TIP3    H151664   2.389   0.283  15.023 -0.9955  0.3210  1.2152
10083TIP3    H251665   2.502   0.344  15.103  0.1334  0.1260 -0.1968
10084TIP3   OH251666   2.081   1.895   3.458  0.2959  0.5489 -0.3732
10084TIP3    H151667   2.131   1.910   3.377 -1.8764  0.8542 -1.7374
10084TIP3    H251668   2.047   1.982   3.481 -0.3414  0.2014  0.0083
10085TIP3   OH251669   1.640   2.505   1.234 -0.7796  0.4611  0.1425
10085TIP3    H151670   1.701   2.433   1.220 -1.9282 -0.6254  0.5402
10085TIP3    H251671   1.637   2.552   1.151  0.3647  0.3620  0.0356
10086TIP3   OH251672   4.460   4.022   2.565  0.6896  0.6287  0.1539
10086TIP3    H151673   4.488   3.959   2.632 -0.1293  0.2389  0.1466
10086TIP3    H251674   4.440   3.969   2.489 -1.5621  0.6718  0.6424
10087TIP3   OH251675   5.185   1.288  11.891  0.7543  0.0282 -0.0610
10087TIP3    H151676   5.115   1.341  11.929  1.1136  0.7739 -0.4023
10087TIP3    H251677   5.230   1.348  11.831  1.3148 -0.6078 -0.2904
10088TIP3   OH251678   3.592   2.572  10.983  0.2391  0.0841  0.1011
10088TIP3    H151679   3.587   2.645  11.044 -1.0174 -0.0678  0.2253
10088TIP3    H251680   3.516   2.518  11.006  0.2552 -0.4316 -1.0253
10089TIP3   OH251681   4.124   2.816  16.082 -0.1678  0.1091  0.1895
10089TIP3    H151682   4.193   2.830  16.147  0.3283 -3.1953  0.5613
10089TIP3    H251683   4.046   2.798  16.135 -0.5275  0.4867 -0.2049
10090TIP3   OH251684   4.173   5.652   1.351 -0.2539 -0.1590 -0.2330
10090TIP3    H151685   4.155   5.690   1.265 -1.6449 -0.7189 -0.2234
10090TIP3    H251686   4.088   5.616   1.379  0.0065  0.6182  1.6759
10091TIP3   OH251687   2.980   3.330  10.873  0.0029  0.6584  0.1425
10091TIP3    H151688   2.900   3.330  10.926  1.1445 -1.1905  2.0281
10091TIP3    H251689   2.983   3.418  10.835 -2.2096  1.2250  1.0963
10092TIP3   OH251690   2.216   0.515  14.745  0.0336  0.0911  0.4816
10092TIP3    H151691   2.186   0.427  14.723  0.8771 -0.4871  1.5358
10092TIP3    H251692   2.158   0.543  14.816 -0.7247  0.7090 -0.3654
10093TIP3   OH251693   2.460   4.788  16.321  0.0422  0.6335  0.0109
10093TIP3    H151694   2.501   4.836  16.394 -0.9088  1.2549  0.1535
10093TIP3    H251695   2.445   4.700  16.356  1.5086  0.2919 -0.1472
10094TIP3   OH251696   1.181   3.736   0.726 -0.3842  0.0141 -0.4305
10094TIP3    H151697   1.094   3.712   0.696 -1.6835  2.2744  1.2195
10094TIP3    H251698   1.187   3.701   0.815  0.9754 -1.2749 -0.9793
10095TIP3   OH251699   1.459   6.751  16.328 -0.3772  0.5460  0.8516
10095TIP3    H151700   1.507   6.833  16.317  3.3210 -1.0135  3.3101
10095TIP3    H251701   1.440   6.722  16.239 -0.1845  3.1683 -0.1150
10096TIP3   OH251702   3.385   0.068   4.193  0.2875 -0.1725  0.2578
10096TIP3    H151703   3.351   0.158   4.197 -1.9125 -0.9312  0.2606
10096TIP3    H251704   3.475   0.075   4.226  0.2011  2.0199  0.2102
10097TIP3   OH251705   3.278   2.328  12.977 -0.1582  0.2403 -0.2006
10097TIP3    H151706   3.246   2.278  12.901 -1.5989  0.2002  0.3976
10097TIP3    H251707   3.230   2.410  12.974 -1.7660 -0.5421  1.7394
10098TIP3   OH251708   0.108   1.304  16.449  0.0316  0.0890 -0.3741
10098TIP3    H151709   0.190   1.285  16.404 -1.6159 -0.2237 -3.5598
10098TIP3    H251710   0.065   1.370  16.394 -1.9529  0.0838  1.0499
10099TIP3   OH251711   0.504   5.640  14.134 -0.3569  0.1666  0.4664
10099TIP3    H151712   0.465   5.727  14.137 -1.9424 -0.5129  0.9785
10099TIP3    H251713   0.429   5.581  14.124  0.5897 -1.1974  1.0953
10100TIP3   OH251714   0.911   4.123  14.777 -0.4098 -0.2166  0.5530
10100TIP3    H151715   0.946   4.155  14.860  0.2474 -0.5243  0.4032
10100TIP3    H251716   0.816   4.127  14.787 -0.3478 -1.2593  1.7161
10101TIP3   OH251717   3.675   1.926   5.373  0.6555  0.2097 -0.2216
10101TIP3    H151718   3.640   1.852   5.325  1.5253 -0.7582  0.5730
10101TIP3    H251719   3.763   1.898   5.400  2.0354  2.4632 -2.0099
10102TIP3   OH251720   1.526   2.440  11.645 -0.0895  0.2148  0.3739
10102TIP3    H151721   1.535   2.521  11.595  0.2312  0.6226  1.0774
10102TIP3    H251722   1.515   2.469  11.736 -0.7768 -0.5075  0.5261
10103TIP3   OH251723   6.444   3.139   4.282  0.1408  0.0514 -0.0593
10103TIP3    H151724   6.410   3.072   4.223  0.3659  0.0515 -0.1919
10103TIP3    H251725   6.411   3.222   4.246  0.9623  0.1242 -0.6761
10104TIP3   OH251726   3.587   1.211  16.255  0.1506  0.3046 -0.0719
10104TIP3    H151727   3.555   1.198  16.166  1.3147 -1.3500 -0.2818
10104TIP3    H251728   3.570   1.303  16.273  0.0970  0.7318 -2.0834
10105TIP3   OH251729   2.997   1.097  14.687  0.1942  0.2826  0.0757
10105TIP3    H151730   2.964   1.177  14.727 -0.0011  0.4273 -0.3689
10105TIP3    H251731   3.029   1.044  14.761  1.1506  1.1417  0.3019
10106TIP3   OH251732   2.694   0.570   0.338 -0.7427 -0.1310 -0.2027
10106TIP3    H151733   2.728   0.486   0.308 -3.0379 -1.8349  1.5453
10106TIP3    H251734   2.748   0.593   0.413 -2.6181 -2.2999  1.9422
10107TIP3   OH251735   4.845   4.508  14.553 -0.5337  0.1760 -0.4956
10107TIP3    H151736   4.895   4.531  14.632 -0.4369  1.8469 -0.9941
10107TIP3    H251737   4.756   4.538  14.572 -0.4803  0.7157 -1.0471
10108TIP3   OH251738   3.166   5.493  15.860 -0.0028  0.4767 -0.0199
10108TIP3    H151739   3.077   5.527  15.870  0.0084  0.3925  0.3898
10108TIP3    H251740   3.166   5.410  15.908  0.9401  1.6031  2.0486
10109TIP3   OH251741   4.918   3.130   5.751 -0.7432 -0.3153 -0.0676
10109TIP3    H151742   5.013   3.116   5.740 -0.3199  2.4820 -0.6433
10109TIP3    H251743   4.890   3.058   5.808  1.9382 -0.6443  0.9990
10110TIP3   OH251744   5.774   1.082  14.578  0.3917 -0.2235 -0.7675
10110TIP3    H151745   5.793   1.151  14.642 -1.1371  0.6597 -1.2138
10110TIP3    H251746   5.835   1.099  14.506 -0.7609  1.4525 -1.4093
10111TIP3   OH251747   3.193   1.534  12.540  0.7833 -0.0545 -0.5772
10111TIP3    H151748   3.113   1.484  12.522  0.0621  0.9559 -0.2784
10111TIP3    H251749   3.165   1.626  12.537  1.0435  0.2986  3.2644
10112TIP3   OH251750   1.155   2.361  12.481 -0.1461  0.2239 -0.2419
10112TIP3    H151751   1.122   2.402  12.561 -2.2931  0.9780 -1.4400
10112TIP3    H251752   1.162   2.433  12.418  1.4791 -0.3655 -0.7878
10113TIP3   OH251753   4.158   3.915  14.307 -0.4050  0.1062 -0.4467
10113TIP3    H151754   4.099   3.990  14.312 -0.3341  0.1159  0.3094
10113TIP3    H251755   4.136   3.862  14.383  2.1957  1.3123  1.2875
10114TIP3   OH251756   4.374   3.077   5.897  0.1849 -0.5443 -0.2940
10114TIP3    H151757   4.305   3.097   5.834  0.3487  0.7572 -0.0902
10114TIP3    H251758   4.407   2.991   5.871 -2.0599 -1.6124  0.0979
10115TIP3   OH251759   2.931   0.527  14.820 -0.2991 -0.4311 -0.1430
10115TIP3    H151760   2.869   0.504  14.751  0.7681 -2.0583 -0.6295
10115TIP3    H251761   2.983   0.599  14.783  0.7360 -1.7518 -1.3903
10116TIP3   OH251762   2.850   2.133   4.339  0.0354 -0.4241  0.1361
10116TIP3    H151763   2.840   2.162   4.429 -3.4208  0.3674 -0.3397
10116TIP3    H251764   2.895   2.049   4.345  2.0509  0.7032  2.3109
10117TIP3   OH251765   4.953   2.897   5.385  0.3837  0.3269  0.2334
10117TIP3    H151766   4.883   2.837   5.357  0.3703  0.1089  0.7235
10117TIP3    H251767   5.021   2.839   5.419  0.7887  0.5411 -0.1956
10118TIP3   OH251768   2.121   1.571   6.111  0.3952  0.1080 -0.5827
10118TIP3    H151769   2.189   1.528   6.163  1.2306  1.4291 -0.5393
10118TIP3    H251770   2.039   1.541   6.151  0.9907 -0.0896  0.5408
10119TIP3   OH251771   5.542   3.588  12.395 -0.4894 -0.4906 -0.6696
10119TIP3    H151772   5.448   3.608  12.399 -0.4516 -0.4091 -0.0225
10119TIP3    H251773   5.561   3.546  12.479 -0.0754 -1.0814 -1.0592
10120TIP3   OH251774   6.368   5.190   3.565  0.0903 -0.5265 -0.0539
10120TIP3    H151775   6.398   5.278   3.543 -0.9894 -0.1158  0.0475
10120TIP3    H251776   6.411   5.133   3.501 -1.5537  0.4422 -2.1399
10121TIP3   OH251777   5.233   2.839   3.704  0.2593 -0.1446  0.2106
10121TIP3    H151778   5.226   2.808   3.613 -2.6407  0.4325  0.1273
10121TIP3    H251779   5.189   2.924   3.703  0.2906 -0.0811  2.1439
10122TIP3   OH251780   5.741   5.940  13.079  0.2319  0.0579 -0.0697
10122TIP3    H151781   5.832   5.910  13.075  0.8038  1.7305 -0.5790
10122TIP3    H251782   5.746   6.022  13.127 -1.1966 -0.3972  0.9049
10123TIP3   OH251783   0.267   4.480  15.942 -0.3842  0.0529 -0.2476
10123TIP3    H151784   0.286   4.486  16.036 -1.4505 -1.4699  0.0936
10123TIP3    H251785   0.187   4.428  15.936  1.1509 -2.3488 -2.1080
10124TIP3   OH251786   4.711   3.380  12.600 -0.1697  0.2863  0.0133
10124TIP3    H151787   4.757   3.464  12.605  2.3048 -1.0215  1.5058
10124TIP3    H251788   4.781   3.315  12.601 -1.8669 -1.8658 -3.0461
10125TIP3   OH251789   4.789   3.453   2.166 -0.0524 -0.1822  0.3151
10125TIP3    H151790   4.819   3.364   2.184  1.0538  0.2784  0.8518
10125TIP3    H251791   4.840   3.508   2.226  0.8817  1.0305 -1.5005
10126TIP3   OH251792   3.495   4.929   2.272 -0.8675 -0.6126  0.3665
10126TIP3    H151793   3.578   4.975   2.287 -0.6400 -1.4915  1.9718
10126TIP3    H251794   3.521   4.841   2.245 -1.2539 -1.0825  1.4822
10127TIP3   OH251795   2.983   3.920   2.321 -0.1318 -0.0937  0.6186
10127TIP3    H151796   2.969   3.900   2.229 -1.1956 -0.7940  0.9187
10127TIP3    H251797   2.909   3.880   2.367  0.7263 -0.3368  1.8504
10128TIP3   OH251798   2.016   1.549   3.231  0.7489  0.4405 -0.1566
10128TIP3    H151799   1.933   1.513   3.262  1.5484 -1.6454 -0.2753
10128TIP3    H251800   2.015   1.531   3.137  0.7015  1.8261 -0.4476
10129TIP3   OH251801   4.276   2.252  16.729  0.1891 -0.0572  0.0299
10129TIP3    H151802   4.303   2.329  16.778  1.2400  0.0714 -0.7112
10129TIP3    H251803   4.299   2.272  16.638  0.8244 -1.3809 -0.1286
10130TIP3   OH251804   2.713   1.747   0.409 -0.0049 -0.5686  0.7641
10130TIP3    H151805   2.747   1.836   0.423 -0.2911 -0.6678  2.2509
10130TIP3    H251806   2.790   1.697   0.384  0.1501  0.0995 -0.1654
10131TIP3   OH251807   1.808   6.446  15.341 -0.3100 -0.0224 -0.0118
10131TIP3    H151808   1.713   6.461  15.346 -0.5522 -1.6083  0.8262
10131TIP3    H251809   1.839   6.511  15.278 -2.1842 -0.5310 -1.5659
10132TIP3   OH251810   1.951   1.913   0.471 -0.2778 -0.3409  0.2616
10132TIP3    H151811   2.019   1.850   0.493 -1.2127 -1.4436  0.0828
10132TIP3    H251812   1.869   1.864   0.477 -1.2723  1.4129  2.3384
10133TIP3   OH251813   2.826   3.568   5.030 -0.5093 -0.0038 -0.0972
10133TIP3    H151814   2.856   3.516   5.105 -0.1544  0.5257  0.1316
10133TIP3    H251815   2.903   3.576   4.974 -1.2783 -2.2072 -1.6051
10134TIP3   OH251816   4.521   3.467  11.143 -0.5022 -0.0777 -0.5046
10134TIP3    H151817   4.455   3.418  11.192  0.7097 -1.5103 -0.2126
10134TIP3    H251818   4.499   3.559  11.158 -1.6308 -0.5029  0.6714
10135TIP3   OH251819   3.261   5.233  12.234  0.4746 -0.1427  0.1644
10135TIP3    H151820   3.277   5.151  12.281 -0.1108  0.5631  1.6537
10135TIP3    H251821   3.344   5.252  12.190  0.4927 -1.7277 -0.5558
10136TIP3   OH251822   3.005   3.774  15.486  0.6220 -0.4972 -0.7020
10136TIP3    H151823   2.976   3.718  15.413 -2.8605  0.2670 -0.0906
10136TIP3    H251824   2.942   3.847  15.487  1.7414  0.5568  1.8471
10137TIP3   OH251825   5.382   4.975  16.030 -0.2556  0.2136 -0.3919
10137TIP3    H151826   5.391   4.901  16.090 -0.7345  0.0620 -0.4992
10137TIP3    H251827   5.350   4.936  15.949  0.7195  0.3677 -0.8677
10138TIP3   OH251828   5.107   3.126  12.869  0.0689  0.1266  0.1125
10138TIP3    H151829   5.072   3.046  12.830  0.4321 -1.0043  1.9800
10138TIP3    H251830   5.029   3.178  12.890 -0.1832  0.1582 -0.8259
10139TIP3   OH251831   4.251   2.439   4.584 -0.1434 -0.2395 -0.2620
10139TIP3    H151832   4.215   2.410   4.668 -0.0540  2.3103  0.7325
10139TIP3    H251833   4.206   2.521   4.565  0.1074 -0.5588 -2.5827
10140TIP3   OH251834   6.338   4.458   5.114 -0.1881  0.3123  0.1525
10140TIP3    H151835   6.294   4.372   5.120  0.8323 -0.1463  1.5204
10140TIP3    H251836   6.419   4.440   5.067  0.9893  0.0707  2.1522
10141TIP3   OH251837   5.314   5.405   6.462 -0.2641 -0.0274 -0.4273
10141TIP3    H151838   5.265   5.396   6.381  0.4185  0.1720 -0.8693
10141TIP3    H251839   5.316   5.316   6.498  1.9457 -0.7725 -2.1385
10142TIP3   OH251840   1.726   6.695   5.332  0.3326  0.9664  0.1519
10142TIP3    H151841   1.772   6.731   5.408 -0.0013  0.7008  0.4783
10142TIP3    H251842   1.634   6.715   5.348 -0.0679 -1.3702  1.0958
10143TIP3   OH251843   0.751   2.318  13.182 -0.3442  0.2725 -0.3123
10143TIP3    H151844   0.818   2.261  13.218  2.5149  3.1177 -0.6356
10143TIP3    H251845   0.735   2.284  13.093  1.8162  0.3186 -0.7678
10144TIP3   OH251846   1.437   2.847   0.341  0.0552  0.7947 -0.3810
10144TIP3    H151847   1.505   2.909   0.367  0.2165  0.3247  0.3689
10144TIP3    H251848   1.485   2.768   0.314 -0.1815  0.0123  1.3382
10145TIP3   OH251849   5.475   4.991   1.272 -0.0841 -0.6543  0.4984
10145TIP3    H151850   5.477   4.945   1.356 -0.7157  0.0435  0.9140
10145TIP3    H251851   5.391   4.969   1.234 -0.9346  1.0638  1.2653
10146TIP3   OH251852   5.662   0.607   5.147  0.5838 -0.2963 -0.0275
10146TIP3    H151853   5.580   0.585   5.192  0.6650 -0.6237 -0.0375
10146TIP3    H251854   5.700   0.677   5.199  0.1690  0.0383 -0.1666
10147TIP3   OH251855   0.653   2.076   5.390  0.3795  0.0128 -0.3627
10147TIP3    H151856   0.618   2.163   5.409  0.6758 -0.0465  0.4871
10147TIP3    H251857   0.748   2.090   5.382  0.4945 -0.3218  0.3658
10148TIP3   OH251858   1.140   6.405   1.935  0.1116  0.2004  0.5154
10148TIP3    H151859   1.098   6.471   1.990 -0.9311  0.4065 -0.4701
10148TIP3    H251860   1.078   6.392   1.863 -0.1431 -2.5212  1.1273
10149TIP3   OH251861   0.564   5.606   4.654  0.4258  0.1273 -0.3431
10149TIP3    H151862   0.630   5.658   4.700  0.8944 -0.1011 -0.7533
10149TIP3    H251863   0.605   5.582   4.571 -0.3202  0.3116 -0.7770
10150TIP3   OH251864   1.560   3.796   2.473  0.1744  0.5402  0.2370
10150TIP3    H151865   1.583   3.766   2.385 -1.3960 -1.9680  0.5801
10150TIP3    H251866   1.496   3.866   2.458  2.0576  2.1679 -0.5860
10151TIP3   OH251867   3.653   1.119  14.235 -0.0498  0.0602 -0.0853
10151TIP3    H151868   3.585   1.148  14.175  0.5350 -0.7922 -1.2160
10151TIP3    H251869   3.674   1.030  14.205  0.2648 -0.3866  1.3941
10152TIP3   OH251870   0.084   1.821   3.876 -0.1789  1.0234 -0.0850
10152TIP3    H151871   0.148   1.887   3.904  0.3395 -0.3940  2.4074
10152TIP3    H251872  -0.000   1.866   3.880  0.3345  2.0294 -0.1878
10153TIP3   OH251873   2.065   3.556   0.405 -0.1339  0.6638  0.2355
10153TIP3    H151874   2.096   3.601   0.483  0.9408  1.5577 -0.6642
10153TIP3    H251875   2.065   3.623   0.337 -0.1723 -0.2969 -0.7430
10154TIP3   OH251876   2.872   5.535   0.786 -0.6556  0.1737 -0.5985
10154TIP3    H151877   2.950   5.563   0.738 -1.7762  0.3448 -2.4215
10154TIP3    H251878   2.800   5.582   0.744 -1.8294 -0.5230  0.5654
10155TIP3   OH251879   1.308   2.659   5.928  0.2777 -0.1298  0.6239
10155TIP3    H151880   1.382   2.719   5.932  0.0910  0.0859  0.8963
10155TIP3    H251881   1.266   2.666   6.014 -0.7017  0.5806  0.1168
10156TIP3   OH251882   4.673   1.732   4.996  0.2546  0.0495  0.0163
10156TIP3    H151883   4.709   1.645   4.975  1.0547  0.4811 -0.4480
10156TIP3    H251884   4.581   1.726   4.970  0.1891 -0.7957  0.3961
10157TIP3   OH251885   1.453   4.756  12.156 -0.0587 -0.2559  0.4527
10157TIP3    H151886   1.460   4.731  12.249 -0.1599  1.2662  0.8896
10157TIP3    H251887   1.363   4.788  12.147  0.6545  1.8945  0.4456
10158TIP3   OH251888   4.344   6.171   1.672 -0.2035 -0.3867  0.0491
10158TIP3    H151889   4.320   6.259   1.701 -0.1117  0.3005 -1.8528
10158TIP3    H251890   4.265   6.136   1.631  0.5256 -0.0881 -1.6753
10159TIP3   OH251891   0.419   6.513   5.705 -0.4128 -0.3846 -0.5507
10159TIP3    H151892   0.425   6.568   5.627  0.9206 -0.9648 -0.8919
10159TIP3    H251893   0.457   6.429   5.678  0.5621 -0.4274  0.8367
10160TIP3   OH251894   0.546   5.235   4.945  0.0178 -0.5199 -0.9060
10160TIP3    H151895   0.595   5.287   5.009  2.4137 -2.0506 -1.3442
10160TIP3    H251896   0.513   5.299   4.883  0.9785  0.6769 -0.2315
10161TIP3   OH251897   6.154   0.442  16.023 -0.0291 -0.3416 -0.2519
10161TIP3    H151898   6.118   0.392  16.096 -0.4315  1.7296  1.0605
10161TIP3    H251899   6.079   0.460  15.966 -0.1822  0.0412  0.0671
10162TIP3   OH251900   2.032   4.694   2.477  0.1954  0.1338 -0.6365
10162TIP3    H151901   2.024   4.775   2.426 -1.1196 -0.2788 -1.1307
10162TIP3    H251902   1.942   4.663   2.488  0.5546 -0.5116  0.7969
10163TIP3   OH251903   3.158   0.755  15.344  0.0637 -0.6406 -0.0949
10163TIP3    H151904   3.214   0.826  15.313  0.8137 -0.5341  1.4197
10163TIP3    H251905   3.136   0.705  15.265  1.8032 -0.3311 -0.8225
10164TIP3   OH251906   1.562   5.856  13.775 -0.7386 -0.7297 -0.2559
10164TIP3    H151907   1.639   5.799  13.790  0.1118  0.6558  0.9137
10164TIP3    H251908   1.599   5.943  13.761 -2.1190  0.3143  2.0586
10165TIP3   OH251909   5.731   5.486  13.538  0.0617  0.0993 -0.5619
10165TIP3    H151910   5.794   5.416  13.556  2.1764  1.9747 -0.1316
10165TIP3    H251911   5.689   5.503  13.622 -1.7447 -1.7394 -1.0327
10166TIP3   OH251912   4.877   1.076   6.473 -0.0242 -0.0656 -0.1887
10166TIP3    H151913   4.805   1.080   6.410 -0.6611  0.9638  0.5491
10166TIP3    H251914   4.837   1.106   6.555  0.7668 -1.3859  0.7174
10167TIP3   OH251915   3.883   3.743  15.363 -0.4275 -0.2184  0.3725
10167TIP3    H151916   3.922   3.656  15.365 -1.3346 -0.6756 -0.7763
10167TIP3    H251917   3.902   3.780  15.449  1.6548 -0.7774  0.2098
10168TIP3   OH251918   4.314   1.836   5.069  0.0667  0.4621  0.0010
10168TIP3    H151919   4.248   1.777   5.104  1.0697  0.0803  1.3407
10168TIP3    H251920   4.351   1.789   4.994 -2.1185  1.2938 -1.7030
10169TIP3   OH251921   2.812   4.478  16.313 -0.6533 -0.7523  0.3458
10169TIP3    H151922   2.795   4.568  16.339  1.2644 -0.2285 -0.0803
10169TIP3    H251923   2.777   4.425  16.384 -2.8474  0.2330  0.0863
10170TIP3   OH251924   6.577   6.211   2.352 -0.0960  0.2041 -0.6672
10170TIP3    H151925   6.481   6.219   2.355 -0.0288  0.9558  0.5297
10170TIP3    H251926   6.607   6.293   2.313  0.0803  0.3617 -0.2166
10171TIP3   OH251927   1.858   4.724   4.760 -0.5129 -0.1791 -0.0284
10171TIP3    H151928   1.851   4.801   4.816 -1.1745  0.3536 -0.8157
10171TIP3    H251929   1.814   4.750   4.679  0.6991 -0.8114 -0.9204
10172TIP3   OH251930   1.205   5.764  11.610  0.6405  0.3137 -0.7979
10172TIP3    H151931   1.233   5.830  11.675 -0.0445 -0.9045  0.7984
10172TIP3    H251932   1.278   5.760  11.549  1.1436  1.8182 -0.3635
10173TIP3   OH251933   1.869   5.716  11.763  0.2926  0.2474 -0.7405
10173TIP3    H151934   1.853   5.629  11.728  0.6353 -0.4105  0.6703
10173TIP3    H251935   1.869   5.705  11.858  0.3763  1.7793 -0.5285
10174TIP3   OH251936   6.629   2.994  16.602  0.5608  0.2153 -0.1353
10174TIP3    H151937   6.574   2.974  16.527  0.9166  0.1702 -0.3865
10174TIP3    H251938   6.599   3.079  16.632  1.3968  0.9347 -1.2494
10175TIP3   OH251939   0.083   5.607  14.555 -0.3072 -0.1181  0.0899
10175TIP3    H151940   0.064   5.615  14.462  1.0493 -1.5731 -0.3737
10175TIP3    H251941   0.097   5.513  14.569  0.1527  0.1357  1.6166
10176TIP3   OH251942   1.233   6.687  16.166  0.2212 -0.2344  0.0275
10176TIP3    H151943   1.286   6.630  16.109  1.1396 -1.1477  1.7160
10176TIP3    H251944   1.192   6.749  16.106  1.7378 -0.6760 -1.5595
10177TIP3   OH251945   5.904   3.580  12.473 -0.1178  0.4933 -0.1169
10177TIP3    H151946   5.860   3.596  12.557 -0.0131 -2.5883  0.6474
10177TIP3    H251947   5.984   3.632  12.478  0.6201 -0.7171  2.4109
10178TIP3   OH251948   5.517   0.568   0.015  0.3370 -0.5467 -0.4143
10178TIP3    H151949   5.542   0.511  -0.057 -0.0456  1.1141 -1.9461
10178TIP3    H251950   5.530   0.657  -0.019 -0.4404  0.3033  1.3512
10179TIP3   OH251951   2.178   6.353  14.590  0.1129  0.3659 -0.0457
10179TIP3    H151952   2.097   6.302  14.597  0.3909 -0.2241 -0.9960
10179TIP3    H251953   2.161   6.416  14.521 -0.8789  2.8748  2.2813
10180TIP3   OH251954   0.036   5.942  14.507 -0.5421  0.1245 -0.0203
10180TIP3    H151955   0.088   6.001  14.453 -0.2778 -0.1467 -0.0618
10180TIP3    H251956  -0.038   5.918  14.451 -0.1653 -0.3121 -0.3384
10181TIP3   OH251957   5.796   6.425  12.022  0.4729  0.9745  0.0646
10181TIP3    H151958   5.879   6.448  12.066  0.9508  0.0479 -0.3095
10181TIP3    H251959   5.795   6.477  11.942  0.9959  0.5568 -0.2226
10182TIP3   OH251960   6.502   5.647  12.003 -0.0270 -0.1311 -0.1218
10182TIP3    H151961   6.593   5.651  11.976  1.0505  1.6228  3.2792
10182TIP3    H251962   6.460   5.722  11.961  0.1826 -0.5931 -1.1961
10183TIP3   OH251963   0.347   2.681   2.863  0.2373 -0.5368 -0.2374
10183TIP3    H151964   0.411   2.613   2.843  1.6569  0.9817 -1.0939
10183TIP3    H251965   0.293   2.687   2.784  1.6885  0.9756 -1.1646
10184TIP3   OH251966   3.081   4.832   5.562 -0.1759  0.3335  0.4665
10184TIP3    H151967   3.116   4.769   5.626 -2.1958  0.5004  1.8023
10184TIP3    H251968   3.136   4.819   5.484  1.9793 -0.2982  1.9916
10185TIP3   OH251969   3.573   5.403   5.322 -0.3529 -0.2587  0.1979
10185TIP3    H151970   3.539   5.382   5.409 -0.4620  0.2379  0.2768
10185TIP3    H251971   3.529   5.484   5.297 -1.2300 -1.0150 -0.8366
10186TIP3   OH251972   4.188   5.484   3.799 -0.2256 -0.2231  0.2042
10186TIP3    H151973   4.177   5.492   3.894  0.9391 -1.5301  0.4796
10186TIP3    H251974   4.247   5.556   3.775 -2.6024  1.8079 -0.0251
10187TIP3   OH251975   0.509   5.328  11.792  0.5641  0.1427  0.3110
10187TIP3    H151976   0.435   5.316  11.733  0.1162 -1.1122  1.0746
10187TIP3    H251977   0.526   5.422  11.791  0.1414  0.2234 -1.2751
10188TIP3   OH251978   1.324   2.316  11.510 -0.2214  0.5557 -0.5289
10188TIP3    H151979   1.405   2.335  11.558 -0.8847  1.3758  0.2937
10188TIP3    H251980   1.273   2.397  11.515  0.0393  1.0353 -3.4324
10189TIP3   OH251981   5.317   2.003  17.049 -0.0006  0.1953  0.2036
10189TIP3    H151982   5.293   1.918  17.013  1.3536  0.7865 -2.3094
10189TIP3    H251983   5.233   2.045  17.068 -0.8055 -0.4561 -1.6403
10190TIP3   OH251984   3.696   4.680   1.713  0.6275  0.1917  0.7129
10190TIP3    H151985   3.760   4.611   1.696 -0.9683 -0.8737 -1.1986
10190TIP3    H251986   3.661   4.703   1.627 -2.3193 -0.0061  1.7531
10191TIP3   OH251987   3.114   6.660   2.788  0.0398  0.4251  0.1277
10191TIP3    H151988   3.089   6.623   2.873 -0.0819  0.1337 -0.0329
10191TIP3    H251989   3.209   6.673   2.795  0.4989 -2.0364 -0.5886
10192TIP3   OH251990   3.497   2.060   5.546  0.2972 -0.4476  0.4249
10192TIP3    H151991   3.561   2.000   5.508  1.2819  0.7087  0.2054
10192TIP3    H251992   3.475   2.023   5.631  1.7487 -0.5265  0.7747
10193TIP3   OH251993   3.490   1.629  13.773  0.0890 -0.6558  0.7716
10193TIP3    H151994   3.513   1.714  13.736 -0.9703 -0.0086  1.5293
10193TIP3    H251995   3.562   1.571  13.748  0.3734  0.2267 -0.5589
10194TIP3   OH251996   0.743   4.750  10.782 -0.4570 -0.4788  0.0289
10194TIP3    H151997   0.699   4.828  10.814 -0.1698 -0.4392  0.3370
10194TIP3    H251998   0.677   4.681  10.787 -0.8407 -0.1646 -0.6610
10195TIP3   OH251999   6.437   4.299   6.522  0.0724  0.0489 -0.5478
10195TIP3    H152000   6.501   4.364   6.551 -0.5006 -0.1362  1.2793
10195TIP3    H252001   6.470   4.216   6.556  0.1486 -0.4387 -1.7831
10196TIP3   OH252002   3.932   3.490   4.321 -0.1870  0.5595  0.2734
10196TIP3    H152003   4.020   3.485   4.359 -0.3188 -1.0087  0.4467
10196TIP3    H252004   3.916   3.402   4.288 -2.4468  0.2302  1.9877
10197TIP3   OH252005   6.533   1.983  12.182  0.3326  0.3014  0.1133
10197TIP3    H152006   6.582   2.065  12.187  1.2091 -0.1760 -0.4389
10197TIP3    H252007   6.594   1.916  12.211 -1.0135  0.0331  2.5640
10198TIP3   OH252008   2.093   1.537   4.645 -0.2850 -0.2269  0.0835
10198TIP3    H152009   2.072   1.595   4.718 -2.4557 -0.0588 -0.6058
10198TIP3    H252010   2.080   1.449   4.680 -0.4322 -0.1800  0.1483
10199TIP3   OH252011   3.374   5.736   1.116 -0.3379 -0.5881 -0.4973
10199TIP3    H152012   3.284   5.738   1.085  0.2077  2.4200 -2.2443
10199TIP3    H252013   3.391   5.643   1.135 -3.7786 -1.2322  0.0381
10200TIP3   OH252014   1.671   0.738  13.451  0.5049 -0.0601 -0.4454
10200TIP3    H152015   1.601   0.680  13.483  0.4960 -0.0694 -0.4808
10200TIP3    H252016   1.752   0.699  13.484  0.4650  0.1722 -0.0662
10201TIP3   OH252017   6.602   5.588   0.144 -0.1942 -0.0649  0.4921
10201TIP3    H152018   6.528   5.530   0.162 -0.9578  0.4907 -0.7249
10201TIP3    H252019   6.571   5.675   0.169 -0.3144  0.3092 -0.8518
10202TIP3   OH252020   2.478   4.419  10.746 -0.5112  0.3831 -0.1229
10202TIP3    H152021   2.411   4.401  10.680 -0.6358 -0.2605  0.1794
10202TIP3    H252022   2.561   4.401  10.701 -0.4923  1.7887 -0.6971
10203TIP3   OH252023   5.431   4.962   2.576  0.1135  0.2917  0.0918
10203TIP3    H152024   5.443   5.052   2.609 -0.8684  0.0195  1.3085
10203TIP3    H252025   5.505   4.913   2.612 -0.3703  0.2306  1.0359
10204TIP3   OH252026   2.891   2.664   3.380  0.5042 -0.2608 -0.1320
10204TIP3    H152027   2.852   2.743   3.417  1.1474 -0.3639  0.7868
10204TIP3    H252028   2.985   2.682   3.379  0.5145 -0.1795 -1.9284
10205TIP3   OH252029   6.658   2.343  12.560 -0.2629  0.2902  0.0034
10205TIP3    H152030   6.597   2.397  12.509 -1.5248  0.0756  1.2076
10205TIP3    H252031   6.741   2.391  12.557  0.3493 -0.7134 -3.8726
10206TIP3   OH252032   5.895   1.788  12.417 -0.2089  0.3706  0.4643
10206TIP3    H152033   5.843   1.838  12.354  0.0232 -1.1075 -0.9898
10206TIP3    H252034   5.885   1.835  12.500 -1.7363  1.5663 -0.3428
10207TIP3   OH252035   5.162   4.560   1.043 -0.4044 -0.2942 -0.1215
10207TIP3    H152036   5.211   4.566   1.125 -2.3976  0.9993  1.0682
10207TIP3    H252037   5.081   4.516   1.067 -0.8664 -0.2198 -1.4794
10208TIP3   OH252038   6.528   0.013  12.961  0.2273 -0.5146 -0.0975
10208TIP3    H152039   6.496   0.043  12.875 -0.2362 -0.4809  0.0854
10208TIP3    H252040   6.599   0.074  12.982  0.7775 -0.9148 -0.7508
10209TIP3   OH252041   1.190   6.648  13.868  0.7623 -0.6951  0.1489
10209TIP3    H152042   1.147   6.728  13.897  2.5408 -0.0513  1.1380
10209TIP3    H252043   1.151   6.629  13.782  0.3977  1.2968 -0.1544
10210TIP3   OH252044   5.797   0.049   2.543 -0.2378 -0.0790 -0.2212
10210TIP3    H152045   5.701   0.053   2.538 -0.1929  2.5696 -0.1781
10210TIP3    H252046   5.827   0.080   2.458  0.5470  0.9030  0.3900
10211TIP3   OH252047   5.830   2.305   4.391 -0.0002  0.1715  0.2347
10211TIP3    H152048   5.759   2.371   4.391 -0.4965 -0.3557  0.0082
10211TIP3    H252049   5.890   2.335   4.459 -0.0484  1.0475 -0.0948
10212TIP3   OH252050   6.507   2.084   3.694  0.9446  0.3935  0.1010
10212TIP3    H152051   6.464   2.000   3.682 -1.2022  1.3749  0.3058
10212TIP3    H252052   6.435   2.148   3.695  1.9091  1.7944  4.5274
10213TIP3   OH252053   2.276   2.615   6.086 -0.0538  0.1263  0.3913
10213TIP3    H152054   2.349   2.557   6.064  0.0942  0.1936  0.6950
10213TIP3    H252055   2.307   2.664   6.162 -0.0613  0.8274 -0.0461
10214TIP3   OH252056   3.889   0.973  13.527 -0.4155  0.0309  0.1158
10214TIP3    H152057   3.940   0.970  13.445 -0.0220  0.7674  0.3177
10214TIP3    H252058   3.904   1.062  13.560 -1.4310  0.0872  0.4476
10215TIP3   OH252059   3.963   2.559  11.985 -0.2205 -0.0509  0.5619
10215TIP3    H152060   4.030   2.627  11.988  0.6533 -0.8020 -0.8953
10215TIP3    H252061   3.998   2.488  12.038  0.0216 -0.3323  0.0325
10216TIP3   OH252062   2.838   5.538   4.699  0.4145  0.6270 -0.2430
10216TIP3    H152063   2.863   5.564   4.787 -1.4287  0.2086  0.4489
10216TIP3    H252064   2.879   5.452   4.687 -1.2220 -0.4092  1.1651
10217TIP3   OH252065   3.198   0.749  13.118  0.3090 -0.2709  0.4064
10217TIP3    H152066   3.123   0.719  13.066  0.9223 -0.7386 -0.2210
10217TIP3    H252067   3.239   0.669  13.149 -0.5538  0.0085  2.3812
10218TIP3   OH252068   0.898   4.160  12.895  0.4599  0.6216 -0.2612
10218TIP3    H152069   0.937   4.099  12.833  1.7208  0.7675  0.3601
10218TIP3    H252070   0.885   4.108  12.974  0.9055  0.9767  0.0512
10219TIP3   OH252071   0.051   3.374  15.603 -0.3242 -0.7989  0.0141
10219TIP3    H152072   0.059   3.427  15.682 -0.5281  1.1494 -1.2024
10219TIP3    H252073   0.107   3.418  15.539 -1.7169 -1.1417 -1.5058
10220TIP3   OH252074   6.039   2.953   3.449 -0.1875 -0.0396 -0.1175
10220TIP3    H152075   6.047   3.044   3.419  1.6696  0.1832  0.8945
10220TIP3    H252076   5.961   2.953   3.505  0.6743  1.3508  1.1693
10221TIP3   OH252077   5.724   2.571   4.929 -0.3232 -0.0060  0.0758
10221TIP3    H152078   5.777   2.551   4.851 -0.3034 -1.0301  0.3338
10221TIP3    H252079   5.696   2.661   4.916  2.2535  0.9353  0.3528
10222TIP3   OH252080   3.372   6.727  16.563  0.5850  0.1436 -0.1377
10222TIP3    H152081   3.391   6.780  16.485 -0.1362  0.0477 -0.3832
10222TIP3    H252082   3.402   6.781  16.636 -0.6926  1.1673 -0.3461
10223TIP3   OH252083   5.268   0.292  14.586  0.1050 -0.1005  0.8780
10223TIP3    H152084   5.175   0.315  14.579 -0.1313 -0.8072  1.5667
10223TIP3    H252085   5.268   0.197  14.600  1.0743 -0.7074 -2.4902
10224TIP3   OH252086   1.014   2.076  10.526  0.6187 -0.2523 -0.1553
10224TIP3    H152087   1.095   2.037  10.557 -0.7516 -2.3047  1.0562
10224TIP3    H252088   0.999   2.150  10.584  0.7016 -0.9758  0.8061
10225TIP3   OH252089   6.076   6.581   0.005 -0.0726  0.0949 -0.3850
10225TIP3    H152090   6.155   6.572  -0.047  1.0127 -0.3610  1.2572
10225TIP3    H252091   6.009   6.533  -0.043  0.5859  0.6055 -1.8772
10226TIP3   OH252092   6.749   3.452  13.662 -0.3019 -0.0531  0.4602
10226TIP3    H152093   6.816   3.496  13.609  0.3574  1.2491  2.2783
10226TIP3    H252094   6.677   3.515  13.667 -1.3412 -1.0800 -0.7052
10227TIP3   OH252095   4.015   6.582  16.879 -0.3520 -0.3955  0.1850
10227TIP3    H152096   4.012   6.678  16.869 -0.3366 -0.2077  1.7640
10227TIP3    H252097   4.107   6.562  16.893 -0.5558 -0.4236  1.6064
10228TIP3   OH252098   6.451   4.853   1.343 -0.1128  0.2930 -0.0738
10228TIP3    H152099   6.533   4.811   1.370 -0.8035 -1.5595 -0.6945
10228TIP3    H252100   6.406   4.873   1.425  0.4002  0.1375  0.2488
10229TIP3   OH252101   5.409   0.521   4.631  0.2578  0.3635 -0.5805
10229TIP3    H152102   5.431   0.614   4.626 -1.9038  1.0193  0.8839
10229TIP3    H252103   5.478   0.484   4.686  0.8939  1.1887 -0.7986
10230TIP3   OH252104   3.169   3.688   5.272 -0.3322 -0.4872 -0.0978
10230TIP3    H152105   3.250   3.734   5.292 -1.1522  1.3279 -0.7645
10230TIP3    H252106   3.165   3.618   5.337  1.1320  0.1442  0.7285
10231TIP3   OH252107   3.254   0.479  11.640  0.3557 -0.0155 -0.7031
10231TIP3    H152108   3.348   0.499  11.634  0.3638  0.7793  1.2416
10231TIP3    H252109   3.250   0.405  11.702 -0.3714  1.1954  0.7661
10232TIP3   OH252110   6.597   3.334   0.630  0.2876  0.1801  0.1701
10232TIP3    H152111   6.590   3.391   0.707 -0.3820 -0.6363  0.7378
10232TIP3    H252112   6.573   3.389   0.556 -1.4583  0.3592  0.8347
10233TIP3   OH252113   0.045   0.409   4.006  0.4175  0.1221 -0.1835
10233TIP3    H152114   0.015   0.375   4.090  0.0755 -0.5111 -0.5517
10233TIP3    H252115  -0.007   0.488   3.991 -1.5961 -1.2902 -1.1021
10234TIP3   OH252116   5.439   5.990  13.460  0.5192  0.1219 -0.3809
10234TIP3    H152117   5.435   5.908  13.509  1.7420 -0.5110 -1.2650
10234TIP3    H252118   5.504   5.973  13.392  0.5025  1.7094 -0.8235
10235TIP3   OH252119   3.844   4.532  11.379  0.7290 -0.1984  0.2814
10235TIP3    H152120   3.851   4.621  11.345 -0.2737 -0.0201  0.5219
10235TIP3    H252121   3.927   4.517  11.425  0.3521  1.1303  1.4540
10236TIP3   OH252122   0.170   1.523  13.838 -0.2400  0.3338  0.0388
10236TIP3    H152123   0.107   1.594  13.832 -0.9297 -0.2015  0.6588
10236TIP3    H252124   0.179   1.491  13.748  0.0871  1.2017 -0.2430
10237TIP3   OH252125   4.660   0.071   0.975  0.6678 -0.2119 -0.0242
10237TIP3    H152126   4.604   0.125   0.919  1.6407  0.1326 -0.6759
10237TIP3    H252127   4.613  -0.012   0.982  0.9292 -0.5636 -2.0509
10238TIP3   OH252128   6.664   0.011  15.665  0.4127 -0.1820  0.6966
10238TIP3    H152129   6.582   0.053  15.690 -0.0586 -0.4915 -0.2909
10238TIP3    H252130   6.707  -0.009  15.748  0.3218  1.5788  1.2049
10239TIP3   OH252131   5.646   6.536  11.332  0.0018 -0.6188 -0.2655
10239TIP3    H152132   5.662   6.553  11.239  1.9823 -2.7156 -0.3880
10239TIP3    H252133   5.551   6.536  11.340 -0.2132  1.2788 -1.9052
10240TIP3   OH252134   2.895   6.672   0.520 -0.4006 -0.0180 -0.4533
10240TIP3    H152135   2.927   6.586   0.495 -0.6746 -0.7885  1.6442
10240TIP3    H252136   2.882   6.666   0.615  0.7606  2.7003 -0.0185
10241TIP3   OH252137   3.842   5.496  11.013  0.0857 -0.1655 -0.3781
10241TIP3    H152138   3.845   5.487  10.918  0.1735 -1.4385 -0.2784
10241TIP3    H252139   3.930   5.471  11.042 -0.0179 -0.0344  0.0503
10242TIP3   OH252140   3.061   4.046  11.035 -0.6083 -0.3439  0.3600
10242TIP3    H152141   3.053   3.954  11.008  0.6954 -0.2400 -0.5016
10242TIP3    H252142   3.095   4.091  10.957  1.4615  0.3257  1.5720
10243TIP3   OH252143   4.065   3.244   0.921 -0.0690 -0.3410 -0.4635
10243TIP3    H152144   4.069   3.171   0.859 -0.5903  1.0407 -2.1948
10243TIP3    H252145   4.149   3.288   0.911 -0.3000  0.1001 -0.4650
10244TIP3   OH252146   5.668   0.146   3.341 -0.0446  0.3795 -0.8179
10244TIP3    H152147   5.710   0.067   3.308 -0.9036  0.2821 -1.7491
10244TIP3    H252148   5.723   0.175   3.413  0.6007 -0.7420 -0.8433
10245TIP3   OH252149   2.768   1.513   2.116 -0.0125  0.0888 -0.2185
10245TIP3    H152150   2.836   1.458   2.155  0.1824  0.0618 -0.5929
10245TIP3    H252151   2.737   1.463   2.040 -0.5850  0.0143  0.0535
10246TIP3   OH252152   3.578   4.348  14.456  0.2616  0.0839  0.2057
10246TIP3    H152153   3.617   4.411  14.517  0.3801  0.2338 -0.0212
10246TIP3    H252154   3.484   4.369  14.457  0.1292 -0.4788  0.9862
10247TIP3   OH252155   4.848   1.566  14.526 -0.2300 -0.5938  0.0637
10247TIP3    H152156   4.876   1.565  14.618  1.2658  1.3120 -0.3066
10247TIP3    H252157   4.889   1.489  14.488 -0.8221 -1.3783  0.9717
10248TIP3   OH252158   0.799   4.955  14.443 -0.4167  0.4561 -0.1069
10248TIP3    H152159   0.797   5.043  14.478 -1.8094  0.1439  0.6563
10248TIP3    H252160   0.793   4.898  14.520 -2.8712 -0.2521 -0.7468
10249TIP3   OH252161   2.803   3.925  13.001 -0.0861  0.9201  0.2727
10249TIP3    H152162   2.862   3.990  12.963 -0.6269  1.2089 -0.0975
10249TIP3    H252163   2.813   3.848  12.945 -0.0549  0.9692  0.2105
10250TIP3   OH252164   3.936   2.468  16.210 -0.1549 -0.1707  0.4869
10250TIP3    H152165   4.019   2.461  16.161 -0.1424 -3.5681  0.7612
10250TIP3    H252166   3.952   2.537  16.274  1.7911  0.5318 -0.6547
10251TIP3   OH252167   3.937   3.969   1.915 -0.1312 -0.1591  0.4738
10251TIP3    H152168   4.003   3.934   1.855 -0.9381  0.1404 -0.6302
10251TIP3    H252169   3.854   3.931   1.884 -0.9087  1.9607 -0.1964
10252TIP3   OH252170   5.650   0.582  12.589  0.2564  0.8792  0.0908
10252TIP3    H152171   5.629   0.600  12.680  0.9604 -0.8642  0.6420
10252TIP3    H252172   5.721   0.642  12.568  2.5371 -1.0327  1.8503
10253TIP3   OH252173   4.510   5.225   3.038 -0.4373 -0.1998  0.9249
10253TIP3    H152174   4.469   5.179   2.965 -1.1173  0.4863  0.8523
10253TIP3    H252175   4.602   5.201   3.034 -0.6883 -1.1316  0.5875
10254TIP3   OH252176   5.193   4.130   1.868  0.0069 -0.4123  0.0194
10254TIP3    H152177   5.233   4.180   1.939  0.1438 -0.5125  0.0130
10254TIP3    H252178   5.186   4.193   1.796  3.0605 -1.1494 -1.0770
10255TIP3   OH252179   6.258   3.537  13.325 -0.2452 -0.1530  0.6845
10255TIP3    H152180   6.233   3.629  13.330 -0.8714 -0.3017  0.3559
10255TIP3    H252181   6.187   3.495  13.277  0.1805 -0.7587  0.5722
10256TIP3   OH252182   2.618   0.774   1.966 -0.1441  0.3225 -0.0225
10256TIP3    H152183   2.570   0.856   1.954 -0.0812  0.8263  2.5468
10256TIP3    H252184   2.633   0.769   2.061 -1.2468 -3.2945  0.1075
10257TIP3   OH252185   5.093   4.233   3.852  0.1728  0.4222 -0.3016
10257TIP3    H152186   5.013   4.208   3.898 -0.4095 -0.8478 -1.8994
10257TIP3    H252187   5.064   4.297   3.787  0.9008  1.8216  0.6928
10258TIP3   OH252188   6.247   3.850   2.084 -0.3396  0.0601 -0.2035
10258TIP3    H152189   6.152   3.862   2.075 -0.2756  0.4174 -0.4120
10258TIP3    H252190   6.283   3.875   1.999 -0.1974 -1.7483 -0.7245
10259TIP3   OH252191   1.680   1.421   0.081 -0.0281  0.3379  0.6424
10259TIP3    H152192   1.642   1.465   0.157  1.7285  1.1693  1.0800
10259TIP3    H252193   1.723   1.344   0.116  3.0479  2.0669  0.9753
10260TIP3   OH252194   1.075   2.786  16.230  0.3528 -0.5682  0.2874
10260TIP3    H152195   1.056   2.844  16.157  0.6221 -1.3156 -0.3800
10260TIP3    H252196   1.062   2.841  16.308 -1.1173 -0.1103 -0.2624
10261TIP3   OH252197   5.250   0.447  14.366  1.1087 -0.1733 -0.4753
10261TIP3    H152198   5.156   0.458  14.377  1.2284 -0.7744  1.4491
10261TIP3    H252199   5.279   0.402  14.445  3.0388  0.0734 -0.9825
10262TIP3   OH252200   6.560   4.727  15.676  0.4507  0.4481 -0.2208
10262TIP3    H152201   6.651   4.745  15.700  1.2835 -2.1264 -1.1072
10262TIP3    H252202   6.508   4.768  15.746  2.4234 -0.1821  1.7319
10263TIP3   OH252203   3.647   3.623   2.743  0.1857 -0.7640  0.3123
10263TIP3    H152204   3.581   3.609   2.675  0.9379  1.9776 -1.1549
10263TIP3    H252205   3.730   3.620   2.697  0.7193  1.0358  1.0556
10264TIP3   OH252206   1.699   1.434  11.213  0.1935  0.4693  0.3778
10264TIP3    H152207   1.723   1.369  11.280 -1.3732 -0.3340  0.2178
10264TIP3    H252208   1.681   1.513  11.263 -1.4556 -0.2607  1.0351
10265TIP3   OH252209   5.338   6.411   5.113 -0.2883 -0.1946 -0.2145
10265TIP3    H152210   5.321   6.494   5.069  1.2732  1.0635  1.3998
10265TIP3    H252211   5.359   6.435   5.203  0.5978 -2.3101  0.2155
10266TIP3   OH252212   1.626   4.874   0.169  0.1033 -0.7842 -0.1014
10266TIP3    H152213   1.634   4.910   0.257  0.4364  0.2950 -0.5540
10266TIP3    H252214   1.538   4.898   0.141  0.5171  0.2136 -0.6126
10267TIP3   OH252215   3.317   0.748  17.168 -0.2254 -0.0359 -0.3322
10267TIP3    H152216   3.409   0.756  17.143 -0.0115 -1.8920 -0.2917
10267TIP3    H252217   3.319   0.731  17.263 -0.7342  1.5182 -0.0039
10268TIP3   OH252218   6.010   3.019   3.873 -0.3618  0.4677  0.4937
10268TIP3    H152219   6.101   3.025   3.902 -0.1942 -0.0451  0.0857
10268TIP3    H252220   6.001   2.929   3.840 -1.3222  0.1586  1.5586
10269TIP3   OH252221   6.010   2.348  14.110 -0.5313  0.0373  0.5356
10269TIP3    H152222   5.921   2.320  14.129 -0.6800  0.1110 -0.0395
10269TIP3    H252223   6.009   2.443  14.123 -0.5223  0.0327  0.5704
10270TIP3   OH252224   2.770   0.554  12.459  0.1433  0.3603 -0.0097
10270TIP3    H152225   2.754   0.617  12.389 -0.7789  0.5786  0.3836
10270TIP3    H252226   2.857   0.519  12.441  0.3431  1.1824 -0.6658
10271TIP3   OH252227   6.348   5.626   3.426 -0.1750 -0.0889 -0.2233
10271TIP3    H152228   6.425   5.571   3.414  0.5423  0.7730  0.2632
10271TIP3    H252229   6.286   5.596   3.360  0.8970 -0.2499 -1.1920
10272TIP3   OH252230   0.340   5.516   4.419 -0.0897  0.4168  0.1436
10272TIP3    H152231   0.411   5.458   4.445  0.4434  1.0008  0.0030
10272TIP3    H252232   0.349   5.593   4.475 -0.6757  0.4518  0.1987
10273TIP3   OH252233   0.799   0.458  12.818 -0.3670  0.2729  0.0160
10273TIP3    H152234   0.732   0.453  12.887  0.6889  0.0764  1.0540
10273TIP3    H252235   0.859   0.527  12.848 -0.9777  1.6495 -1.7282
10274TIP3   OH252236   3.211   3.014  13.436 -0.3884  0.7249 -0.2147
10274TIP3    H152237   3.262   2.977  13.364  0.8672  0.4153  0.7844
10274TIP3    H252238   3.128   2.966  13.434 -0.3704  0.7214 -1.4391
10275TIP3   OH252239   1.260   2.070   1.573  0.0090 -0.2146 -0.5032
10275TIP3    H152240   1.342   2.119   1.571 -0.1656  0.1655  0.8620
10275TIP3    H252241   1.195   2.130   1.536 -0.1700  0.5724  1.0029
10276TIP3   OH252242   0.676   2.484   0.011  0.3334  0.0522  0.4470
10276TIP3    H152243   0.722   2.551   0.062 -0.6575 -0.8842  2.7129
10276TIP3    H252244   0.587   2.517   0.003 -0.3412 -1.1858  2.1568
10277TIP3   OH252245   4.718   3.452   3.851  0.1560  0.1484 -0.1769
10277TIP3    H152246   4.639   3.482   3.806  0.6079 -0.1028 -1.1630
10277TIP3    H252247   4.745   3.374   3.803 -0.1605 -1.0146  1.4440
10278TIP3   OH252248   1.862   5.103   2.659  0.0149  0.0288 -0.3232
10278TIP3    H152249   1.949   5.124   2.691 -0.2448 -0.4490  0.7521
10278TIP3    H252250   1.833   5.181   2.613  0.7188  0.4532 -0.0475
10279TIP3   OH252251   1.234   1.890   5.364 -0.3846  0.4572 -0.2099
10279TIP3    H152252   1.279   1.871   5.281 -0.5225  1.2358 -0.4754
10279TIP3    H252253   1.194   1.976   5.350 -1.2282  0.1626  0.3300
10280TIP3   OH252254   5.365   2.356   0.960  0.8427  0.6913 -0.0861
10280TIP3    H152255   5.393   2.285   0.902  2.9995 -0.2733  1.9817
10280TIP3    H252256   5.428   2.426   0.943  0.5500  0.9762  0.0043
10281TIP3   OH252257   1.459   6.064   4.835  0.0080 -0.8595  0.0427
10281TIP3    H152258   1.527   6.017   4.883 -0.0640 -1.0866 -0.0772
10281TIP3    H252259   1.499   6.150   4.817  0.3780 -1.0948 -0.2857
10282TIP3   OH252260   1.635   4.731  15.938  0.4909  0.8818 -0.4068
10282TIP3    H152261   1.589   4.720  15.855  1.1142  3.3563 -1.1684
10282TIP3    H252262   1.719   4.688  15.924 -0.3557 -0.9579 -0.0951
10283TIP3   OH252263   5.142   5.980   4.642  0.1460 -0.0176 -0.2916
10283TIP3    H152264   5.128   5.897   4.596  1.0777 -0.6332  0.4909
10283TIP3    H252265   5.230   5.972   4.678  0.1987  1.2738 -0.0925
10284TIP3   OH252266   0.531   3.281   1.765  0.8408  0.3034  0.1010
10284TIP3    H152267   0.448   3.233   1.764 -0.7291  2.8411  0.8907
10284TIP3    H252268   0.588   3.230   1.707 -0.5218 -2.6921  1.1906
10285TIP3   OH252269   2.227   2.677   0.629  0.1269  0.7060  0.1356
10285TIP3    H152270   2.246   2.586   0.609  0.3248  0.5945  0.8329
10285TIP3    H252271   2.139   2.692   0.595  0.3095  0.4160 -0.4786
10286TIP3   OH252272   4.374   4.853  16.915 -0.1818  0.1495  0.0075
10286TIP3    H152273   4.288   4.852  16.956 -0.2635 -1.2648 -0.1439
10286TIP3    H252274   4.421   4.779  16.955  1.6779  2.0296  1.5411
10287TIP3   OH252275   1.086   5.798  15.164  0.5451  1.0144  0.0541
10287TIP3    H152276   1.068   5.758  15.079  0.9897  2.1664 -0.5938
10287TIP3    H252277   1.122   5.727  15.217 -2.1901 -0.4377  0.1840
10288TIP3   OH252278   1.328   3.692  16.035  1.3698 -0.5091  0.1362
10288TIP3    H152279   1.405   3.743  16.010  1.2823 -0.1232  0.6455
10288TIP3    H252280   1.292   3.660  15.952  1.2833  0.4586 -0.2050
10289TIP3   OH252281   0.459   2.324  12.424 -0.5547  0.4212 -0.6682
10289TIP3    H152282   0.532   2.272  12.459 -0.4124  0.1283 -1.3822
10289TIP3    H252283   0.390   2.316  12.490  0.6557  2.1970  0.9131
10290TIP3   OH252284   2.372   3.155   2.177  0.1517 -0.2689 -0.3658
10290TIP3    H152285   2.355   3.063   2.158 -2.5596  0.3567 -1.5372
10290TIP3    H252286   2.364   3.162   2.273 -0.8914 -1.0643 -0.3801
10291TIP3   OH252287   3.192   3.299   4.655 -0.4752  0.0167 -0.1558
10291TIP3    H152288   3.182   3.321   4.562 -0.6770  0.0276 -0.1333
10291TIP3    H252289   3.274   3.341   4.682  0.2660 -1.0748 -0.6504
10292TIP3   OH252290   0.354   0.859   5.528  0.0095 -0.1963 -0.3966
10292TIP3    H152291   0.261   0.836   5.520 -0.2920  0.2198  1.3440
10292TIP3    H252292   0.354   0.944   5.571  1.1365 -1.7139  2.9952
10293TIP3   OH252293   6.612   3.945   3.758  0.5110  0.2480 -0.0714
10293TIP3    H152294   6.552   3.972   3.688  0.1294  0.5185  0.3501
10293TIP3    H252295   6.564   3.965   3.839  1.3952  1.0141  0.2841
10294TIP3   OH252296   1.746   0.309  16.437  0.1667  0.1134  0.3775
10294TIP3    H152297   1.674   0.315  16.374 -0.1438 -1.2856  0.5564
10294TIP3    H252298   1.821   0.347  16.392 -0.4174  0.5731 -0.2322
10295TIP3   OH252299   4.742   3.874   1.356 -0.0344 -0.3775 -0.0846
10295TIP3    H152300   4.792   3.901   1.278 -0.9163  1.6310 -0.0151
10295TIP3    H252301   4.653   3.860   1.324  0.2061 -2.4861  0.0659
10296TIP3   OH252302   1.002   2.419  15.561  0.2618 -0.1074  0.0216
10296TIP3    H152303   0.955   2.465  15.492  1.8265 -0.7496 -1.5639
10296TIP3    H252304   1.058   2.487  15.600  0.6718 -0.0898 -0.5712
10297TIP3   OH252305   0.656   4.321  14.716 -0.3894 -0.5005 -0.5434
10297TIP3    H152306   0.693   4.283  14.636 -0.4042  0.0023 -0.7962
10297TIP3    H252307   0.562   4.317  14.704 -0.3884 -0.2335 -0.6439
10298TIP3   OH252308   4.135   2.691   1.589  0.0486 -0.4546  0.6242
10298TIP3    H152309   4.063   2.690   1.526  1.5474 -2.4329 -1.1888
10298TIP3    H252310   4.178   2.776   1.575  0.3381 -0.8398 -1.0728
10299TIP3   OH252311   2.829   1.039   3.489  0.0095  0.3758  0.5201
10299TIP3    H152312   2.916   1.012   3.458  0.9909 -0.3251  3.5854
10299TIP3    H252313   2.771   1.021   3.415  2.1059 -1.2543 -0.8517
10300TIP3   OH252314   1.002   6.706   4.841  0.7930 -0.2673  0.3511
10300TIP3    H152315   1.075   6.768   4.850  1.5360 -1.3419  2.2867
10300TIP3    H252316   1.028   6.647   4.771  1.3631 -0.0753  0.3979
10301TIP3   OH252317   5.699   4.251   5.234 -0.1507 -0.2722 -0.3550
10301TIP3    H152318   5.702   4.201   5.316 -0.7015  0.2266 -0.0311
10301TIP3    H252319   5.617   4.300   5.237 -0.8010 -1.1856 -1.7662
10302TIP3   OH252320   3.116   6.182  15.836  0.0381 -0.2733  0.4935
10302TIP3    H152321   3.116   6.201  15.930  0.5354 -1.8760  0.8489
10302TIP3    H252322   3.177   6.109  15.827  0.4449  0.2459 -1.1750
10303TIP3   OH252323   0.226   3.987   5.463 -0.3053  0.1789  0.3780
10303TIP3    H152324   0.256   3.978   5.554  1.5985  0.4737 -0.1716
10303TIP3    H252325   0.295   4.038   5.421  0.5514 -2.6608 -1.9914
10304TIP3   OH252326   4.355   6.293   0.779  0.4272 -0.1413 -0.5760
10304TIP3    H152327   4.323   6.380   0.805 -0.7469 -0.3996 -1.0781
10304TIP3    H252328   4.433   6.279   0.832  0.1174  0.8480  0.1651
10305TIP3   OH252329   1.757   4.232  16.284  0.5271  0.5884 -0.0747
10305TIP3    H152330   1.733   4.325  16.286 -0.0355  0.4391  0.4173
10305TIP3    H252331   1.770   4.209  16.376  2.2492  0.5719 -0.2915
10306TIP3   OH252332   3.745   4.959  12.930 -0.2330 -0.6020  0.0149
10306TIP3    H152333   3.671   4.951  12.869  0.7926 -0.6897 -1.2650
10306TIP3    H252334   3.731   5.043  12.973 -0.9456 -0.4932 -0.4052
10307TIP3   OH252335   6.659   3.474  12.593 -0.4443  0.3850 -0.6264
10307TIP3    H152336   6.621   3.396  12.633 -0.5441  0.3935 -0.7036
10307TIP3    H252337   6.737   3.492  12.645 -1.0589  0.9238  0.1293
10308TIP3   OH252338   0.351   6.024  11.890  0.2676 -0.2504 -0.4079
10308TIP3    H152339   0.271   6.056  11.848  0.3504  0.1151 -0.2862
10308TIP3    H252340   0.418   6.087  11.867  0.3751 -0.1959  0.0396
10309TIP3   OH252341   1.707   4.281   2.939 -0.0155  0.6605 -0.3026
10309TIP3    H152342   1.696   4.289   3.034  1.8193 -0.4633  0.0478
10309TIP3    H252343   1.768   4.350   2.915  0.9596 -0.1882 -0.3407
10310TIP3   OH252344   4.892   6.427   5.544 -0.1086  0.4514 -0.0029
10310TIP3    H152345   4.984   6.452   5.539 -0.1164  0.2851 -1.9127
10310TIP3    H252346   4.872   6.393   5.456 -1.6357 -0.7787  0.7725
10311TIP3   OH252347   6.134   0.401  10.787  0.4129 -0.2263 -0.4897
10311TIP3    H152348   6.096   0.407  10.700  0.2567 -1.7395 -0.5486
10311TIP3    H252349   6.098   0.321  10.824 -0.4327  0.9601  1.4407
10312TIP3   OH252350   0.213   0.717   6.155 -0.3061  0.2804  0.5309
10312TIP3    H152351   0.252   0.630   6.144 -0.1770  0.3798  0.1872
10312TIP3    H252352   0.200   0.726   6.249  0.3230  0.1659  0.6350
10313TIP3   OH252353   5.347   6.111   3.896 -0.1459 -0.0400  0.4121
10313TIP3    H152354   5.289   6.062   3.954 -2.2742  1.2238 -0.5008
10313TIP3    H252355   5.368   6.191   3.945  0.7438 -0.4264  0.6804
10314TIP3   OH252356   1.357   5.159  14.019 -0.1636  0.2439  0.0403
10314TIP3    H152357   1.414   5.121  14.085  0.1009  1.3024  0.4257
10314TIP3    H252358   1.321   5.083  13.972 -0.8882 -0.5521  1.8133
10315TIP3   OH252359   2.979   3.796   5.424  0.4617  0.2455  0.5371
10315TIP3    H152360   3.033   3.765   5.351 -0.0191  1.4531 -0.3841
10315TIP3    H252361   2.891   3.768   5.401  0.4168 -0.0468  1.0637
10316TIP3   OH252362   0.389   4.798   0.065  0.4820  0.5180  0.4106
10316TIP3    H152363   0.402   4.736   0.137 -1.7299 -2.2644 -1.3627
10316TIP3    H252364   0.330   4.864   0.099 -1.4578 -1.3820  0.9475
10317TIP3   OH252365   3.875   1.806  15.983 -0.2763  0.2071  0.5946
10317TIP3    H152366   3.914   1.782  15.898 -0.7861  0.8204  0.1781
10317TIP3    H252367   3.871   1.902  15.981 -0.2596  0.2289  1.3352
10318TIP3   OH252368   6.332   5.872  14.445  0.7948  0.1265 -0.0852
10318TIP3    H152369   6.305   5.959  14.475 -0.6078 -1.1487  2.7476
10318TIP3    H252370   6.369   5.831  14.523  0.3573 -2.2253 -1.0384
10319TIP3   OH252371   6.072   3.340   5.170  0.0975 -0.1230 -0.0310
10319TIP3    H152372   6.070   3.261   5.224  2.3521  0.4137  0.9559
10319TIP3    H252373   6.154   3.334   5.122  1.0116  2.1760  1.0694
10320TIP3   OH252374   6.772   5.861   3.765  0.0813 -0.0208 -0.0223
10320TIP3    H152375   6.734   5.944   3.737 -0.8120 -0.2994  0.3377
10320TIP3    H252376   6.790   5.873   3.859  0.2146 -0.1396 -0.0313
10321TIP3   OH252377   4.000   0.821  13.016 -0.0595  0.1122  0.0156
10321TIP3    H152378   4.053   0.768  12.957 -0.7093 -0.7726  0.2023
10321TIP3    H252379   3.984   0.764  13.091 -1.7377  0.1414 -0.2835
10322TIP3   OH252380   2.854   0.705   1.450  0.2832 -0.3251  0.1571
10322TIP3    H152381   2.923   0.751   1.498  0.2996  0.9901 -1.0487
10322TIP3    H252382   2.779   0.707   1.509  0.2132  1.5080  0.0812
10323TIP3   OH252383   1.084   1.117   5.307  0.2393 -0.6384  0.1020
10323TIP3    H152384   1.120   1.038   5.346 -0.1036 -1.3676 -1.0154
10323TIP3    H252385   1.050   1.089   5.222  1.9932  1.1201 -1.2612
10324TIP3   OH252386   1.789   3.028  16.030  0.2775  0.1067 -0.4756
10324TIP3    H152387   1.801   2.985  16.115 -0.6254 -0.9337 -0.8594
10324TIP3    H252388   1.703   3.069  16.036 -0.6941 -1.6629 -1.5589
10325TIP3   OH252389   2.200   6.068   5.066 -0.3860 -0.1857 -0.2055
10325TIP3    H152390   2.149   6.080   4.987 -0.1541  0.0072 -0.3278
10325TIP3    H252391   2.287   6.043   5.034 -0.2230  0.1383 -0.0204
10326TIP3   OH252392   2.877   2.196  13.367  0.4785 -0.1142  0.0802
10326TIP3    H152393   2.849   2.256  13.298  2.8574  0.9285 -0.0677
10326TIP3    H252394   2.870   2.109  13.328  0.5957  0.3582 -1.0212
10327TIP3   OH252395   2.467   4.574   1.415 -0.5082 -0.1984  0.1204
10327TIP3    H152396   2.514   4.629   1.353  0.3684  0.2401  1.1475
10327TIP3    H252397   2.408   4.521   1.361 -0.4795  0.8654 -0.9889
10328TIP3   OH252398   1.892   0.458  12.757  0.1213 -0.3561 -0.0664
10328TIP3    H152399   1.984   0.470  12.734  0.7936 -2.3893  1.3143
10328TIP3    H252400   1.873   0.527  12.820  0.6903  0.0682 -0.3556
10329TIP3   OH252401   6.078   1.512   0.914  0.0215 -0.0317 -0.0051
10329TIP3    H152402   6.133   1.575   0.866 -0.2882  1.1410  1.1126
10329TIP3    H252403   6.133   1.484   0.987 -1.1032  1.8486  1.6571
10330TIP3   OH252404   4.043   2.876  14.586 -0.0264 -0.6018  0.1839
10330TIP3    H152405   4.099   2.813  14.541  0.4620 -0.3234  0.3932
10330TIP3    H252406   4.100   2.951  14.602 -0.0431 -0.8797  1.6923
10331TIP3   OH252407   4.262   3.758  15.269  0.4574  0.1193  0.1394
10331TIP3    H152408   4.189   3.736  15.211 -0.3080  0.7444  0.8350
10331TIP3    H252409   4.310   3.825  15.222 -1.3764  2.1985  1.0535
10332TIP3   OH252410   6.080   6.723  15.118 -0.1191  0.2096  0.2628
10332TIP3    H152411   6.149   6.773  15.161 -0.2667 -0.2857  1.0923
10332TIP3    H252412   6.000   6.772  15.136 -0.4127 -0.8172  1.9447
10333TIP3   OH252413   0.195   5.110  15.583 -0.1147 -0.2424  0.4520
10333TIP3    H152414   0.253   5.163  15.528 -1.4487 -1.3360 -2.2196
10333TIP3    H252415   0.134   5.173  15.621  0.8971  0.5625  0.7838
10334TIP3   OH252416   5.830   3.011  14.073  0.0384 -0.1130 -0.2917
10334TIP3    H152417   5.753   3.067  14.081  0.2029 -0.0532  1.0626
10334TIP3    H252418   5.859   2.997  14.163  1.0504 -0.9178 -0.7254
10335TIP3   OH252419   2.198   6.112   0.275 -0.0523  0.1313  0.6729
10335TIP3    H152420   2.139   6.182   0.302  0.1547  0.1431  1.1122
10335TIP3    H252421   2.258   6.154   0.213 -0.8500 -0.0184 -0.2248
10336TIP3   OH252422   0.383   3.876   0.383  0.0300  0.1807  0.0967
10336TIP3    H152423   0.430   3.954   0.353 -0.9243  0.6953 -0.0786
10336TIP3    H252424   0.391   3.814   0.310  2.2005 -0.5484  0.8584
10337TIP3   OH252425   2.385   0.827  14.477 -0.2074  0.2704 -0.8513
10337TIP3    H152426   2.327   0.902  14.461 -2.0295 -1.4845 -3.4080
10337TIP3    H252427   2.458   0.840  14.416  0.7313  1.1051  0.4140
10338TIP3   OH252428   5.936   1.045  12.779 -0.3264  0.0426 -0.2486
10338TIP3    H152429   5.922   1.131  12.739  0.0117  0.3792  0.3463
10338TIP3    H252430   6.025   1.021  12.755 -0.3092  0.0003 -0.1423
10339TIP3   OH252431   5.942   2.364  15.487  0.2152 -0.0477  0.1554
10339TIP3    H152432   6.022   2.416  15.472 -0.2225  0.1017 -2.0055
10339TIP3    H252433   5.874   2.430  15.500  0.1076 -0.1208 -0.0318
10340TIP3   OH252434   0.460   0.383  14.810 -0.0530  0.0738  0.1114
10340TIP3    H152435   0.407   0.331  14.749  2.1238 -0.9478 -1.0048
10340TIP3    H252436   0.475   0.325  14.885  0.7702 -0.2343 -0.2798
10341TIP3   OH252437   0.585   0.427  13.070 -0.0113  0.3195 -1.0715
10341TIP3    H152438   0.497   0.411  13.037 -1.1819  0.8640  1.5652
10341TIP3    H252439   0.597   0.363  13.140  0.7760  1.6711  0.0836
10342TIP3   OH252440   2.155   5.491   5.251 -0.2753 -0.1633  0.5271
10342TIP3    H152441   2.130   5.557   5.186 -0.3106 -1.1517 -0.4841
10342TIP3    H252442   2.215   5.537   5.309  0.0216  0.6621 -0.4001
10343TIP3   OH252443   0.485   4.555  13.006 -0.0620  0.3672  0.3353
10343TIP3    H152444   0.541   4.490  12.963 -0.7446 -0.6787  0.9862
10343TIP3    H252445   0.525   4.640  12.984  1.1222 -0.2927 -0.1277
10344TIP3   OH252446   1.186   6.158   3.557  0.5744  0.2770 -0.5222
10344TIP3    H152447   1.215   6.091   3.619  0.2560  0.8100  0.2208
10344TIP3    H252448   1.124   6.212   3.607  0.0572  0.5230 -1.4014
10345TIP3   OH252449   0.461   0.754   6.775 -1.0037  0.4570  0.4861
10345TIP3    H152450   0.457   0.664   6.743  0.4139  0.5963 -0.1514
10345TIP3    H252451   0.522   0.798   6.717  0.5526  1.0961  2.4771
10346TIP3   OH252452   0.354   6.180  14.992  0.4116 -0.1558  0.1506
10346TIP3    H152453   0.313   6.229  15.063  0.1175 -1.5634  0.9954
10346TIP3    H252454   0.281   6.147  14.940  0.5777 -0.3666  0.0484
10347TIP3   OH252455   6.690   6.587  13.346 -0.1473  0.2464  0.7622
10347TIP3    H152456   6.742   6.548  13.276 -0.9016  0.8262 -0.1457
10347TIP3    H252457   6.615   6.528  13.355 -0.1886  0.3193  0.8974
10348TIP3   OH252458   0.983   3.060   4.493  0.1630  0.4706  0.5218
10348TIP3    H152459   1.067   3.023   4.521 -0.2380 -0.1036  0.9900
10348TIP3    H252460   1.005   3.114   4.417  0.7868 -0.6752 -0.1414
10349TIP3   OH252461   3.705   5.165   5.675  0.0915 -0.0911  0.0396
10349TIP3    H152462   3.650   5.243   5.673 -1.8702 -1.4022  0.3356
10349TIP3    H252463   3.764   5.175   5.600 -0.7804  1.2210 -0.4971
10350TIP3   OH252464   6.717   3.310  14.261 -0.6954 -0.0534  0.0143
10350TIP3    H152465   6.752   3.371  14.196 -0.8512 -0.1008 -0.1156
10350TIP3    H252466   6.651   3.361  14.309  0.8889  0.6346  1.5577
10351TIP3   OH252467   1.953   3.740  13.764 -0.3047  0.4062  0.1753
10351TIP3    H152468   1.990   3.801  13.700 -0.4022  2.3916  1.8884
10351TIP3    H252469   2.018   3.737  13.834  0.0869 -2.2031 -0.2193
10352TIP3   OH252470   5.163   0.985   1.189 -0.2471  0.4331  0.0580
10352TIP3    H152471   5.111   0.904   1.179 -0.5417  0.6530 -0.2133
10352TIP3    H252472   5.193   0.983   1.280 -0.1101 -0.0670  0.0074
10353TIP3   OH252473   1.263   3.821   4.889 -0.4330 -0.2485 -0.2332
10353TIP3    H152474   1.345   3.772   4.893  0.2609  0.6706 -2.2435
10353TIP3    H252475   1.196   3.754   4.872  0.0684 -0.8460  0.0870
10354TIP3   OH252476   2.650   5.573  13.416  1.0225 -0.0449  0.1350
10354TIP3    H152477   2.631   5.646  13.356  0.6923 -1.7871 -1.9990
10354TIP3    H252478   2.709   5.611  13.481 -0.8868  2.6927  0.4694
10355TIP3   OH252479   1.826   0.265  10.608  0.0166 -0.1693  0.4511
10355TIP3    H152480   1.761   0.217  10.660 -1.0534 -0.7644 -1.3447
10355TIP3    H252481   1.791   0.354  10.604 -0.4980 -0.3920 -0.1690
10356TIP3   OH252482   5.550   1.126  13.869 -0.5369  0.2207 -0.6940
10356TIP3    H152483   5.608   1.123  13.945 -0.0451  0.5207 -1.0562
10356TIP3    H252484   5.477   1.181  13.897 -0.0091  0.9176 -0.6739
10357TIP3   OH252485   2.780   1.514  14.714  0.3428  0.0397  0.3854
10357TIP3    H152486   2.685   1.525  14.721  0.5838  3.8698 -0.0098
10357TIP3    H252487   2.800   1.532  14.622  1.4826 -0.5143  0.5000
10358TIP3   OH252488   3.938   3.805   1.330 -0.2381  0.2830  0.1281
10358TIP3    H152489   3.849   3.840   1.326  0.1627  1.3785  0.4208
10358TIP3    H252490   3.947   3.773   1.419 -0.1902  0.5981  0.2386
10359TIP3   OH252491   5.543   6.330   4.926 -0.1348 -0.0687  0.1072
10359TIP3    H152492   5.473   6.365   4.981 -2.0021  0.0808 -2.1658
10359TIP3    H252493   5.602   6.286   4.987  0.2809  3.6359  2.6650
10360TIP3   OH252494   5.563   0.314  14.694  0.0479  0.4048 -0.2371
10360TIP3    H152495   5.528   0.309  14.606 -2.6530  0.3255  0.7412
10360TIP3    H252496   5.526   0.238  14.739  1.1980  0.5527  1.0309
10361TIP3   OH252497   0.360   3.853  14.925 -0.0788 -0.1151  0.3550
10361TIP3    H152498   0.421   3.813  14.987 -0.0932 -1.0702 -0.2279
10361TIP3    H252499   0.275   3.814  14.947 -0.0207 -0.7204 -0.4870
10362TIP3   OH252500   0.345   1.360   1.908 -0.0682 -0.3194 -0.3638
10362TIP3    H152501   0.327   1.450   1.880  0.8814  0.0844  0.2705
10362TIP3    H252502   0.325   1.359   2.002 -0.3464 -0.8560 -0.4214
10363TIP3   OH252503   5.546   2.656   5.215  0.0148  0.0893 -0.6010
10363TIP3    H152504   5.520   2.720   5.148  0.2589  0.5157 -0.2983
10363TIP3    H252505   5.559   2.709   5.294  1.2049 -0.1824 -0.6001
10364TIP3   OH252506   0.246   5.136   0.557 -0.0098 -0.4943  0.5334
10364TIP3    H152507   0.211   5.195   0.490  0.9927 -1.0109 -0.4765
10364TIP3    H252508   0.290   5.194   0.619 -0.2982 -0.0694  0.3495
10365TIP3   OH252509   5.485   4.946  16.394  0.5748  0.2189  0.3428
10365TIP3    H152510   5.529   5.022  16.356  1.4850 -1.0247 -1.1926
10365TIP3    H252511   5.459   4.975  16.482  0.9736  2.2568 -0.1635
10366TIP3   OH252512   3.439   6.409  12.804  0.1287  0.7707 -0.2052
10366TIP3    H152513   3.367   6.461  12.767 -0.5477  0.7078  0.9845
10366TIP3    H252514   3.450   6.443  12.893  0.0172 -0.7914  0.4229
10367TIP3   OH252515   6.480   4.866  13.997 -1.2830  0.4276 -0.5215
10367TIP3    H152516   6.427   4.816  14.059 -3.2739 -0.2540 -2.6306
10367TIP3    H252517   6.517   4.801  13.937  1.5829  0.9493  0.5078
10368TIP3   OH252518   0.026   5.158  14.860 -0.3442  0.2350 -0.0907
10368TIP3    H152519  -0.058   5.148  14.905 -1.3030 -0.6776 -1.9607
10368TIP3    H252520   0.069   5.073  14.872 -0.9222 -0.2772 -1.4168
10369TIP3   OH252521   1.090   0.008  15.157 -0.2644 -0.1377  0.1838
10369TIP3    H152522   1.036   0.047  15.089  1.6657 -1.2306 -2.1405
10369TIP3    H252523   1.160   0.071  15.173 -0.7440  0.1501  1.2896
10370TIP3   OH252524   5.845   2.654   2.397  0.5891  0.0736 -0.2762
10370TIP3    H152525   5.856   2.733   2.344 -0.1139  1.4684  1.5603
10370TIP3    H252526   5.758   2.621   2.375  0.8935 -0.2232 -1.0636
10371TIP3   OH252527   1.686   0.348  14.418  0.0827 -0.3828 -0.3850
10371TIP3    H152528   1.598   0.347  14.456 -1.5411 -0.9095 -3.7694
10371TIP3    H252529   1.745   0.334  14.492 -2.5241  1.5523  2.2836
10372TIP3   OH252530   2.608   5.462   1.632 -0.5921 -0.5122 -0.0487
10372TIP3    H152531   2.627   5.480   1.540  0.5227 -0.2155  0.2282
10372TIP3    H252532   2.654   5.380   1.651 -1.2841 -0.8710  0.1011
10373TIP3   OH252533   4.975   6.664   3.985 -0.5922 -0.3712  0.2882
10373TIP3    H152534   4.960   6.588   4.043  0.1268  0.0321  1.0281
10373TIP3    H252535   5.026   6.629   3.912  0.6098 -0.4339  1.1249
10374TIP3   OH252536   5.175   3.812   2.500 -0.2491  0.8251  0.3437
10374TIP3    H152537   5.112   3.862   2.447 -0.4430 -0.1861 -0.4170
10374TIP3    H252538   5.260   3.845   2.474 -0.3229  0.1138 -0.8791
10375TIP3   OH252539   4.577   4.284  16.520  0.0617  0.3054  0.1729
10375TIP3    H152540   4.550   4.355  16.577  1.8069  0.8435  0.3823
10375TIP3    H252541   4.648   4.241  16.567 -1.0332 -1.7016  0.1194
10376TIP3   OH252542   4.735   0.986   4.892 -0.3051  0.0992  0.2633
10376TIP3    H152543   4.774   1.044   4.827  0.0266  0.0630  0.4288
10376TIP3    H252544   4.664   0.941   4.844  1.1980 -1.4049 -0.6636
10377TIP3   OH252545   5.685   1.553   3.628  0.4343 -0.5395 -0.4023
10377TIP3    H152546   5.645   1.624   3.578 -2.1931 -0.8679  1.0567
10377TIP3    H252547   5.665   1.573   3.719  1.4641 -2.0995  0.2177
10378TIP3   OH252548   4.758   0.275  17.007 -0.0381  0.0399 -0.1170
10378TIP3    H152549   4.801   0.352  16.971 -0.2589  1.3401  2.2450
10378TIP3    H252550   4.802   0.259  17.091 -1.3927 -1.1377  0.4170
10379TIP3   OH252551   4.537   2.308   2.374  0.1735 -0.2942 -0.0925
10379TIP3    H152552   4.606   2.321   2.309 -0.3574  1.3799 -0.3655
10379TIP3    H252553   4.533   2.213   2.386  0.3154 -0.6597 -2.4842
10380TIP3   OH252554   4.687   4.202   5.652  0.4663  0.2125 -0.5323
10380TIP3    H152555   4.685   4.181   5.558 -0.6892  0.6041 -0.6146
10380TIP3    H252556   4.690   4.298   5.654  1.7821  0.1787 -0.1592
10381TIP3   OH252557   5.226   5.451   4.953  0.4036  0.2953  0.0094
10381TIP3    H152558   5.244   5.544   4.937 -1.8226  0.7456 -0.1853
10381TIP3    H252559   5.194   5.448   5.043  0.4972 -0.2863  0.0248
10382TIP3   OH252560   3.515   0.089   3.736  0.2416 -0.6020  0.1497
10382TIP3    H152561   3.545   0.174   3.703 -0.6181 -0.1878  0.4125
10382TIP3    H252562   3.594   0.034   3.736  1.5117  1.0584  2.8447
10383TIP3   OH252563   3.770   1.095  17.097 -0.5919  0.1764  0.4627
10383TIP3    H152564   3.831   1.088  17.023 -0.3956  0.6765  0.5750
10383TIP3    H252565   3.688   1.125  17.058 -0.2252  1.3605  0.5662
10384TIP3   OH252566   2.666   4.030  17.125  0.1224  0.5302 -0.4076
10384TIP3    H152567   2.598   3.971  17.160 -0.7990  1.6300 -0.2916
10384TIP3    H252568   2.748   3.989  17.152 -0.5160 -0.0597  0.7495
10385TIP3   OH252569   6.521   2.596  16.402 -0.2784  0.4844  0.3741
10385TIP3    H152570   6.491   2.672  16.352  0.1667 -0.0805 -0.7721
10385TIP3    H252571   6.449   2.533  16.395  0.5457 -0.3285 -1.1946
10386TIP3   OH252572   1.852   1.907   1.235 -0.1287  0.2284 -0.5262
10386TIP3    H152573   1.921   1.971   1.222 -1.5350  2.2198  1.1733
10386TIP3    H252574   1.897   1.823   1.239  1.7857  1.0659 -2.7563
10387TIP3   OH252575   4.454   3.156  13.737  0.3360  0.5536 -0.3491
10387TIP3    H152576   4.367   3.175  13.773  1.2294  0.6993  1.8924
10387TIP3    H252577   4.508   3.137  13.814  2.3723  0.7467 -1.6603
10388TIP3   OH252578   0.585   0.285  11.712 -0.4404  0.1583 -0.3920
10388TIP3    H152579   0.520   0.315  11.775 -1.0217 -1.5650 -0.1256
10388TIP3    H252580   0.623   0.206  11.751 -0.2272 -0.4752 -1.8061
10389TIP3   OH252581   1.928   3.341   1.001  0.5785 -0.0791  0.6559
10389TIP3    H152582   1.846   3.381   1.029 -0.9863 -1.7760 -1.1405
10389TIP3    H252583   1.996   3.393   1.042 -1.3854  1.8296  1.6765
10390TIP3   OH252584   4.521   4.277   0.644  0.2212 -0.0221  0.1803
10390TIP3    H152585   4.509   4.257   0.551  1.0702 -1.3713  0.3391
10390TIP3    H252586   4.609   4.313   0.649 -0.4030  1.5512  0.2596
10391TIP3   OH252587   3.102   5.310  13.968  0.0062 -0.4903 -0.5020
10391TIP3    H152588   3.090   5.270  13.882 -0.0218  0.6536 -1.0522
10391TIP3    H252589   3.066   5.246  14.029  2.0856 -2.3462 -1.1000
10392TIP3   OH252590   1.722   5.471  13.570 -0.5268  0.1187 -0.4212
10392TIP3    H152591   1.709   5.551  13.519  2.4628  0.2995 -1.1032
10392TIP3    H252592   1.738   5.501  13.659 -0.6382  0.1773 -0.4209
10393TIP3   OH252593   2.032   6.638  16.809 -0.1037  0.3477 -0.2284
10393TIP3    H152594   1.944   6.677  16.803  0.3908  1.4943 -0.2969
10393TIP3    H252595   2.059   6.655  16.900 -0.3795 -0.9926  0.1300
10394TIP3   OH252596   4.754   6.188  17.182 -0.1851 -0.3502  0.0198
10394TIP3    H152597   4.768   6.270  17.229  1.6962 -1.4567  1.5359
10394TIP3    H252598   4.809   6.195  17.104 -1.9876  0.7904 -1.2235
10395TIP3   OH252599   2.342   1.225   5.317 -0.0583  0.4301 -0.0218
10395TIP3    H152600   2.372   1.306   5.358 -1.5557  1.4785 -0.8942
10395TIP3    H252601   2.260   1.204   5.362 -0.2972  0.0711 -0.6143
10396TIP3   OH252602   0.849   0.253   2.312 -0.4394  0.2258 -0.0507
10396TIP3    H152603   0.916   0.279   2.375 -0.5553  0.8352 -0.1715
10396TIP3    H252604   0.887   0.180   2.264  0.3756  0.9448 -0.5169
10397TIP3   OH252605   5.351   4.295   2.478  0.1950  0.0858 -0.1208
10397TIP3    H152606   5.285   4.278   2.546  0.6322  1.3889  0.6612
10397TIP3    H252607   5.332   4.383   2.448 -0.6303 -0.8213 -2.4809
10398TIP3   OH252608   3.226   0.878   5.347 -0.0874 -0.0321 -0.9842
10398TIP3    H152609   3.227   0.831   5.430  3.7573 -1.3781 -1.5628
10398TIP3    H252610   3.263   0.964   5.367  0.9840 -0.4105 -1.2526
10399TIP3   OH252611   2.569   1.591   3.288  0.1277  0.3864  0.1656
10399TIP3    H152612   2.517   1.649   3.344 -1.5271 -0.3911 -0.5384
10399TIP3    H252613   2.604   1.525   3.348 -0.0924  0.6323  0.5673
10400TIP3   OH252614   3.632   2.088  15.598 -0.5113 -0.0647 -0.1494
10400TIP3    H152615   3.720   2.066  15.628  0.7597  3.0086 -1.2511
10400TIP3    H252616   3.584   2.108  15.679  0.3545 -0.0301  0.3744
10401TIP3   OH252617   5.787   0.143  14.054  0.2505 -0.3065  0.0329
10401TIP3    H152618   5.708   0.104  14.018 -1.7651  2.0620  1.5375
10401TIP3    H252619   5.795   0.105  14.142  0.7852 -0.5102 -0.0972
10402TIP3   OH252620   3.779   2.811   3.268  0.1120 -0.7357  0.2234
10402TIP3    H152621   3.830   2.731   3.282  0.0622 -0.8794 -0.3740
10402TIP3    H252622   3.688   2.783   3.272  0.0559 -0.4080  1.6905
10403TIP3   OH252623   3.770   2.388   2.407  1.0193  0.1557 -0.0032
10403TIP3    H152624   3.780   2.293   2.412  0.9703  0.0454 -1.6663
10403TIP3    H252625   3.780   2.409   2.314  0.7278  1.7446  0.2950
10404TIP3   OH252626   6.143   1.419  13.379 -0.2475  0.0141 -0.1185
10404TIP3    H152627   6.170   1.508  13.357 -2.9245  0.7959 -0.5772
10404TIP3    H252628   6.158   1.412  13.474  0.7661  0.6201 -0.2184
10405TIP3   OH252629   0.469   4.512   3.628 -0.3608  0.4423 -0.1624
10405TIP3    H152630   0.400   4.578   3.632 -0.8412  0.0067 -1.1655
10405TIP3    H252631   0.483   4.487   3.719 -1.9814  0.0516 -0.0014
10406TIP3   OH252632   0.109   2.122  16.465 -0.2551 -0.1034  0.3970
10406TIP3    H152633   0.014   2.112  16.471 -0.4270  1.7296  3.2451
10406TIP3    H252634   0.143   2.083  16.546  1.4654 -0.9379 -0.6657
10407TIP3   OH252635   6.377   2.871   2.720  0.0172  0.2905 -0.4791
10407TIP3    H152636   6.415   2.948   2.676  0.2429  0.6941  0.4055
10407TIP3    H252637   6.336   2.906   2.799  0.5760 -0.5545  0.2083
10408TIP3   OH252638   6.164   3.224   3.397 -0.3496  0.0009  0.7955
10408TIP3    H152639   6.213   3.172   3.333 -1.1167  0.7426 -0.4286
10408TIP3    H252640   6.220   3.223   3.475  1.0844 -0.1129 -0.1776
10409TIP3   OH252641   5.296   5.483   2.114 -0.0896 -0.5887  0.1270
10409TIP3    H152642   5.208   5.506   2.083 -0.4005 -0.5811  0.9718
10409TIP3    H252643   5.346   5.565   2.105  0.0590 -0.7884 -1.0688
10410TIP3   OH252644   3.500   3.520  15.592 -0.1479  0.0943  0.1900
10410TIP3    H152645   3.578   3.479  15.631 -0.0272  0.6535  0.5452
10410TIP3    H252646   3.499   3.608  15.628  1.0114  1.3188 -2.4345
10411TIP3   OH252647   1.694   2.329  16.826  0.0611  0.2081 -0.0258
10411TIP3    H152648   1.749   2.264  16.869  2.1168  0.9140 -1.3919
10411TIP3    H252649   1.614   2.283  16.803  0.4524 -1.1491  1.2105
10412TIP3   OH252650   4.406   6.620  11.287 -0.0881 -0.7965  0.3302
10412TIP3    H152651   4.397   6.709  11.321 -1.9756 -1.0914  0.7368
10412TIP3    H252652   4.416   6.566  11.365  2.0868 -0.8820  0.0376
10413TIP3   OH252653   4.198   4.486   2.753 -0.2213 -0.0214 -0.0337
10413TIP3    H152654   4.177   4.428   2.826  2.9945 -0.6706  0.5145
10413TIP3    H252655   4.221   4.569   2.795 -0.3725  0.2464 -0.4815
10414TIP3   OH252656   1.777   4.806  12.589 -0.2169  0.1388  0.5058
10414TIP3    H152657   1.829   4.734  12.624  1.8732  1.8865  1.2387
10414TIP3    H252658   1.830   4.839  12.516 -0.7118  1.4226  0.7086
10415TIP3   OH252659   2.726   3.703   5.468  0.4230  0.5281  0.7058
10415TIP3    H152660   2.703   3.696   5.375  0.7353  0.3685  0.6398
10415TIP3    H252661   2.644   3.729   5.511  0.6657  2.4161  0.1421
10416TIP3   OH252662   1.649   3.816  11.659  0.1294 -0.3300  0.2558
10416TIP3    H152663   1.553   3.819  11.665 -0.3241  1.9398 -4.4913
10416TIP3    H252664   1.678   3.901  11.691  0.8248 -1.3771  2.6664
10417TIP3   OH252665   1.625   2.997   1.808  0.0279 -0.4145  0.1454
10417TIP3    H152666   1.560   3.054   1.850  0.1402 -0.4321  0.3419
10417TIP3    H252667   1.573   2.944   1.747 -0.1484 -0.4365  0.3096
10418TIP3   OH252668   6.762   5.640   1.774 -0.2228  0.4747 -0.4914
10418TIP3    H152669   6.789   5.600   1.856 -0.0893  1.0570 -0.2479
10418TIP3    H252670   6.736   5.566   1.718  1.3502 -0.0690 -0.5415
10419TIP3   OH252671   4.889   2.257   0.660  0.0690 -0.7572 -0.1565
10419TIP3    H152672   4.960   2.234   0.720 -0.0211 -0.5815  0.0198
10419TIP3    H252673   4.919   2.228   0.574  1.0298  0.7276 -0.3506
10420TIP3   OH252674   1.451   6.735  13.846 -0.0449  0.2853  0.1179
10420TIP3    H152675   1.448   6.720  13.752  0.8655 -0.6295  0.2175
10420TIP3    H252676   1.369   6.697  13.879  1.6679 -3.7924  0.2246
10421TIP3   OH252677   1.206   4.911  11.094 -0.2230  0.0888 -0.0035
10421TIP3    H152678   1.289   4.878  11.128  0.8179  0.8975 -1.6573
10421TIP3    H252679   1.167   4.959  11.167 -0.2281 -1.9230  1.4167
10422TIP3   OH252680   6.508   2.357  14.636  0.3754  0.3215  0.2381
10422TIP3    H152681   6.546   2.407  14.564 -0.8297 -0.2757 -0.8673
10422TIP3    H252682   6.582   2.308  14.673  0.7054 -1.0455 -2.0271
10423TIP3   OH252683   6.174   3.034   2.847  0.3979  0.3605 -0.0207
10423TIP3    H152684   6.131   3.119   2.835  1.2377  0.6535 -1.2336
10423TIP3    H252685   6.124   2.990   2.915 -0.0470  1.8421  0.6483
10424TIP3   OH252686   3.758   4.966   6.121  0.0850  0.1798 -0.2643
10424TIP3    H152687   3.803   4.933   6.044 -1.0023 -0.2389 -0.7386
10424TIP3    H252688   3.761   5.061   6.111  0.5933  0.1479 -0.4414
10425TIP3   OH252689   5.901   0.152  11.754 -0.4617 -0.1939 -0.5155
10425TIP3    H152690   5.976   0.104  11.718 -0.2770 -0.1042 -0.2543
10425TIP3    H252691   5.940   0.217  11.813 -0.7734 -0.6331  0.1928
10426TIP3   OH252692   4.798   5.026   1.504 -0.0086 -0.7262  0.4624
10426TIP3    H152693   4.792   5.036   1.409 -0.4174 -0.0846  0.5506
10426TIP3    H252694   4.844   4.943   1.516  0.2093 -0.7254 -0.2949
10427TIP3   OH252695   4.998   5.018   2.313 -0.2816 -0.3342 -0.0573
10427TIP3    H152696   4.965   4.936   2.275 -0.6814 -0.4054  0.4354
10427TIP3    H252697   4.960   5.021   2.401  2.2403 -1.1918  1.1772
10428TIP3   OH252698   1.033   5.839   6.015  0.0616  0.0819  0.5555
10428TIP3    H152699   1.106   5.837   6.076  1.4028  0.0265 -0.9952
10428TIP3    H252700   0.999   5.750   6.014  1.6470 -0.5410 -0.6317
10429TIP3   OH252701   0.484   6.184  10.954 -0.8152 -0.7213  0.1914
10429TIP3    H152702   0.417   6.248  10.931 -0.0778 -0.6345 -1.9410
10429TIP3    H252703   0.556   6.236  10.989 -0.7470 -0.5119 -0.2542
10430TIP3   OH252704   5.329   0.288   5.238 -0.0103  0.5105  0.2362
10430TIP3    H152705   5.366   0.258   5.155  0.3514 -0.6192  0.7838
10430TIP3    H252706   5.341   0.383   5.237  1.0659  0.3806 -0.4818
10431TIP3   OH252707   5.975   0.847   2.463 -0.1633 -0.3877  0.7951
10431TIP3    H152708   5.968   0.771   2.521  1.9046 -0.9989  0.3196
10431TIP3    H252709   5.907   0.907   2.494 -2.0672 -2.5188  0.9757
10432TIP3   OH252710   3.364   3.201  13.034 -0.0877 -0.1469 -0.6622
10432TIP3    H152711   3.427   3.259  12.990  0.8880 -0.8417 -0.2174
10432TIP3    H252712   3.411   3.168  13.110 -1.4248  0.2783  0.3875
10433TIP3   OH252713   2.807   3.849  10.834  0.2959  0.0298 -0.2242
10433TIP3    H152714   2.897   3.874  10.812  1.2905 -1.3236  2.0005
10433TIP3    H252715   2.809   3.834  10.929 -2.4183  0.4435 -0.0350
10434TIP3   OH252716   2.433   1.401   3.039 -0.4505 -0.0611  0.0656
10434TIP3    H152717   2.434   1.478   2.983 -2.4089  1.0635  1.4131
10434TIP3    H252718   2.473   1.430   3.121  0.2252 -0.9659  0.0741
10435TIP3   OH252719   5.496   0.629  13.908  0.1793 -0.5732 -0.2565
10435TIP3    H152720   5.589   0.643  13.896  0.0672 -0.6285 -1.3320
10435TIP3    H252721   5.455   0.710  13.878 -0.1783 -1.1043 -1.2885
10436TIP3   OH252722   4.749   6.766  12.416  0.2960  0.0143 -0.0723
10436TIP3    H152723   4.689   6.732  12.482  1.6435 -1.9173  0.2545
10436TIP3    H252724   4.780   6.688  12.370  3.9929  0.6087  1.0288
10437TIP3   OH252725   4.455   0.414  15.610 -0.4228 -0.5129 -0.0610
10437TIP3    H152726   4.499   0.335  15.642 -0.2411 -0.2250  0.3975
10437TIP3    H252727   4.435   0.394  15.518  0.2487 -0.8208 -0.1417
10438TIP3   OH252728   0.457   6.519  17.074 -0.2438  0.4751 -0.2288
10438TIP3    H152729   0.468   6.433  17.033  0.5231  0.6988 -0.5173
10438TIP3    H252730   0.364   6.525  17.092 -0.1354 -0.9949  1.0569
10439TIP3   OH252731   5.628   3.123   2.962 -0.3578  0.4706  0.7556
10439TIP3    H152732   5.577   3.203   2.968  0.3455  1.0668 -0.7126
10439TIP3    H252733   5.648   3.114   2.869  2.4582  0.4505  1.2767
10440TIP3   OH252734   3.162   6.093   4.882 -0.2678  0.2962 -0.0508
10440TIP3    H152735   3.240   6.081   4.829 -0.6778  1.2945 -0.9176
10440TIP3    H252736   3.189   6.070   4.971  1.2521  1.4297 -0.1791
10441TIP3   OH252737   3.548   5.494  11.653  0.2120 -0.1036  0.3513
10441TIP3    H152738   3.601   5.571  11.632 -0.1749  0.7795  2.3869
10441TIP3    H252739   3.500   5.475  11.573  0.2754  1.8235 -0.1836
10442TIP3   OH252740   3.578   0.805   1.788 -0.0007 -0.2389  0.1455
10442TIP3    H152741   3.619   0.813   1.703 -0.3185 -1.0661 -0.1034
10442TIP3    H252742   3.495   0.852   1.780  0.8039  1.3353  0.6142
10443TIP3   OH252743   4.405   4.210  15.409  0.1028  0.5820 -0.9064
10443TIP3    H152744   4.439   4.242  15.325  0.9969  1.5742 -0.1900
10443TIP3    H252745   4.311   4.229  15.405  0.4777  2.7336 -0.8196
10444TIP3   OH252746   2.558   2.999   3.559 -0.0397  0.6521  0.3528
10444TIP3    H152747   2.605   2.938   3.616 -0.9276 -1.1799 -0.7812
10444TIP3    H252748   2.576   2.967   3.470 -0.2764  2.2712 -0.3117
10445TIP3   OH252749   1.445   4.060   4.441 -0.3255  0.4673 -0.3635
10445TIP3    H152750   1.392   4.002   4.496  0.1589 -0.5095 -0.8921
10445TIP3    H252751   1.528   4.069   4.489 -0.6516  1.3315  0.0669
10446TIP3   OH252752   4.256   4.159  13.138 -0.6364 -0.4116 -0.9249
10446TIP3    H152753   4.210   4.220  13.080 -0.3808 -1.1352 -1.9141
10446TIP3    H252754   4.186   4.112  13.183 -0.8390  1.1602  0.4690
10447TIP3   OH252755   5.613   3.357  14.851  0.4691  0.3577  0.6930
10447TIP3    H152756   5.551   3.285  14.840 -0.2280  1.1615 -1.1762
10447TIP3    H252757   5.590   3.396  14.936 -0.2272 -0.5982  0.9606
10448TIP3   OH252758   0.550   3.429  13.038  0.1308  0.0294  0.2607
10448TIP3    H152759   0.573   3.480  12.960  0.4474 -1.0632 -0.3791
10448TIP3    H252760   0.571   3.488  13.111  0.2094  0.9253 -0.4573
10449TIP3   OH252761   1.704   1.027   3.427  0.4147 -0.2691  0.3733
10449TIP3    H152762   1.625   1.049   3.378  0.9656  0.4247 -0.2360
10449TIP3    H252763   1.770   1.012   3.360  0.6026 -1.7205  0.8448
10450TIP3   OH252764   0.220   0.701  17.133 -0.0633 -0.4233 -0.0109
10450TIP3    H152765   0.257   0.677  17.048  1.2685  1.2355  0.0459
10450TIP3    H252766   0.149   0.762  17.112  1.1559  1.0809  0.0620
10451TIP3   OH252767   2.025   0.694  11.389 -0.5370 -0.0544  0.2681
10451TIP3    H152768   1.966   0.628  11.426  0.6113 -1.7094 -0.7459
10451TIP3    H252769   2.059   0.741  11.466 -0.6441 -1.2900  1.0924
10452TIP3   OH252770   0.202   5.628  11.493  0.4999  0.5708  0.3529
10452TIP3    H152771   0.208   5.667  11.406 -1.4694 -0.7308 -0.4564
10452TIP3    H252772   0.185   5.535  11.476  0.8816  0.1421  2.1356
10453TIP3   OH252773   0.032   5.147   6.399 -0.0040 -0.4617 -0.1299
10453TIP3    H152774  -0.043   5.208   6.394 -0.0836 -0.6059 -0.6987
10453TIP3    H252775   0.067   5.161   6.487 -0.4151 -0.0515 -0.0235
10454TIP3   OH252776   2.098   5.687  13.914 -0.0653  0.0301  0.0621
10454TIP3    H152777   2.088   5.653  13.825  0.1565 -2.5758  0.9387
10454TIP3    H252778   2.193   5.690  13.928 -0.1088 -0.0077  0.3694
10455TIP3   OH252779   5.431   6.404  13.734  0.0148  0.0991 -0.2369
10455TIP3    H152780   5.382   6.354  13.800  1.1384  1.3724  1.6570
10455TIP3    H252781   5.518   6.363  13.735  0.4401  0.9956  0.1040
10456TIP3   OH252782   4.089   6.221  15.490 -0.0874 -0.1307  0.1054
10456TIP3    H152783   4.171   6.180  15.463 -0.8204  0.3481 -3.2676
10456TIP3    H252784   4.042   6.151  15.536  1.3929 -0.9812  0.4014
10457TIP3   OH252785   2.856   3.786  11.098 -0.1335  0.0005 -0.4349
10457TIP3    H152786   2.810   3.719  11.149 -0.3948 -1.7076 -2.7726
10457TIP3    H252787   2.948   3.774  11.120 -0.4200  1.7052  2.2575
10458TIP3   OH252788   6.602   2.333   4.046  0.6310  0.0341  0.4602
10458TIP3    H152789   6.517   2.325   4.003  1.6697 -1.6749 -1.4199
10458TIP3    H252790   6.664   2.345   3.974  2.1402 -0.2527  1.6741
10459TIP3   OH252791   6.462   1.469  13.894  0.5195 -0.1866 -0.0419
10459TIP3    H152792   6.392   1.431  13.841  0.9199 -0.0153 -0.7149
10459TIP3    H252793   6.490   1.398  13.952  0.0250 -0.3566 -0.0029
10460TIP3   OH252794   0.670   6.371  11.061  0.3537 -0.2418 -0.3112
10460TIP3    H152795   0.711   6.409  10.984 -0.4142 -1.1341 -1.1886
10460TIP3    H252796   0.603   6.434  11.087  0.5626  0.0213 -0.4020
10461TIP3   OH252797   3.524   2.249  16.516  0.3003 -0.8052 -0.3029
10461TIP3    H152798   3.518   2.283  16.605  0.3715 -2.2408  0.2670
10461TIP3    H252799   3.562   2.322  16.466 -0.2615  0.2222  0.7011
10462TIP3   OH252800   2.402   3.760   0.494 -0.3767 -0.6406 -0.1250
10462TIP3    H152801   2.308   3.775   0.501 -0.3673 -1.1816  2.1730
10462TIP3    H252802   2.437   3.842   0.459 -1.8600 -1.2029 -3.2273
10463TIP3   OH252803   6.151   3.333   5.708  0.0955 -0.9072  0.0857
10463TIP3    H152804   6.202   3.252   5.704  0.4048 -0.6486 -1.9283
10463TIP3    H252805   6.162   3.374   5.622 -0.7809  0.8471  0.7422
10464TIP3   OH252806   4.770   2.759  12.622  0.0560  0.2309 -0.0788
10464TIP3    H152807   4.699   2.819  12.598  0.5755  0.1795 -1.8737
10464TIP3    H252808   4.730   2.699  12.685 -1.0884  1.0933  0.0393
10465TIP3   OH252809   1.871   1.259   5.273  0.0855 -0.3106  0.5957
10465TIP3    H152810   1.891   1.327   5.209 -0.4611 -0.5480  0.1662
10465TIP3    H252811   1.956   1.235   5.310  1.1870 -3.2904 -3.1795
10466TIP3   OH252812   0.103   1.276  14.870 -0.2604 -0.5673  0.0434
10466TIP3    H152813   0.035   1.324  14.823  1.7173  1.0368 -1.3476
10466TIP3    H252814   0.175   1.270  14.807  2.5078  1.5837  2.7477
10467TIP3   OH252815   6.472   0.491  15.061  0.5323  0.1837  0.0169
10467TIP3    H152816   6.437   0.441  15.135  1.9872  0.9538  1.2579
10467TIP3    H252817   6.396   0.503  15.003 -0.1739 -2.2692  0.2939
10468TIP3   OH252818   3.012   1.977   2.131  0.3226 -0.3234 -0.1042
10468TIP3    H152819   3.096   1.932   2.132 -0.5505 -2.0038  0.2013
10468TIP3    H252820   2.948   1.909   2.109 -0.8157  1.2044 -1.8614
10469TIP3   OH252821   5.349   6.396   2.640 -0.5503  0.1376 -0.4314
10469TIP3    H152822   5.440   6.374   2.621 -0.9129 -1.3742 -0.5620
10469TIP3    H252823   5.354   6.454   2.716  0.5444  0.7229 -0.9241
10470TIP3   OH252824   1.929   6.248  14.559  1.0363 -0.5537 -0.2213
10470TIP3    H152825   1.902   6.177  14.617  1.5023 -0.1244  0.5421
10470TIP3    H252826   1.852   6.305  14.553  0.9546 -0.6495 -0.0903
10471TIP3   OH252827   1.841   6.773  12.610 -0.2332  0.0178  0.1805
10471TIP3    H152828   1.834   6.864  12.642  0.0481 -0.4172  1.5661
10471TIP3    H252829   1.784   6.723  12.668 -0.3734 -0.7090 -0.5655
10472TIP3   OH252830   2.013   1.622   5.256 -0.0233  0.3837 -0.1208
10472TIP3    H152831   2.023   1.537   5.213  2.1814 -0.8933  2.5833
10472TIP3    H252832   2.008   1.601   5.349  1.1520  3.2419  0.6995
10473TIP3   OH252833   5.564   3.429   3.614 -0.3734 -0.4476 -0.1947
10473TIP3    H152834   5.557   3.484   3.536 -0.2084 -0.3716 -0.1556
10473TIP3    H252835   5.531   3.484   3.685  0.5745 -0.0985 -0.0138
10474TIP3   OH252836   2.338   1.632   5.122 -0.1672 -0.4160  0.6966
10474TIP3    H152837   2.429   1.657   5.110 -0.6046  1.2015  0.4590
10474TIP3    H252838   2.322   1.643   5.216 -0.4565  0.5959  0.5366
10475TIP3   OH252839   1.220   3.680  12.010  0.0795 -0.0734 -0.1555
10475TIP3    H152840   1.173   3.689  12.093 -1.9339 -2.6355 -0.8863
10475TIP3    H252841   1.307   3.715  12.028 -0.3166 -0.4205  3.0012
10476TIP3   OH252842   2.930   6.151   0.544 -0.3371 -0.3953 -0.2619
10476TIP3    H152843   3.012   6.122   0.503  0.7219 -0.2793  1.6232
10476TIP3    H252844   2.890   6.210   0.481  2.3294  1.5670 -0.2798
10477TIP3   OH252845   4.684   1.203  13.251 -0.1641  0.2934 -0.8646
10477TIP3    H152846   4.691   1.116  13.289 -1.1159  0.7960  0.5420
10477TIP3    H252847   4.760   1.250  13.285  0.3202  0.0457 -1.5806
10478TIP3   OH252848   0.829   6.076  15.063  0.2851  0.5963 -0.0213
10478TIP3    H152849   0.876   6.105  14.985  0.8411  1.8926  0.7601
10478TIP3    H252850   0.745   6.120  15.059  0.8350  1.7713  0.7749
10479TIP3   OH252851   0.793   3.492   1.538  0.1211  0.1968 -0.2421
10479TIP3    H152852   0.776   3.440   1.459  0.3684  0.9766 -0.8156
10479TIP3    H252853   0.706   3.511   1.572  0.0300 -0.7582  0.0911
10480TIP3   OH252854   0.982   4.451   5.600 -0.0366  0.1758 -0.1421
10480TIP3    H152855   0.956   4.516   5.665 -0.8708  1.0582 -1.3215
10480TIP3    H252856   0.994   4.501   5.519  0.9296 -0.8999 -0.7043
10481TIP3   OH252857   2.035   6.217  11.230  0.0315 -0.5854  0.2129
10481TIP3    H152858   1.956   6.183  11.189 -0.7313 -0.3777  1.4716
10481TIP3    H252859   2.039   6.174  11.315  0.5736  0.3755  0.6915
10482TIP3   OH252860   0.393   0.567   4.480  0.1097 -0.2950  0.2875
10482TIP3    H152861   0.366   0.520   4.401 -0.7160  1.3072 -0.4265
10482TIP3    H252862   0.487   0.549   4.487  0.0577 -1.0436 -0.6623
10483TIP3   OH252863   2.149   4.582   1.607  0.3114  0.1554  0.7106
10483TIP3    H152864   2.113   4.650   1.550  2.1469  0.4811 -0.1186
10483TIP3    H252865   2.221   4.544   1.558  0.7115 -0.9105  2.0439
10484TIP3   OH252866   1.865   1.812   4.259 -0.5849 -0.2205 -0.5449
10484TIP3    H152867   1.909   1.775   4.336 -1.3592 -0.9895 -0.4460
10484TIP3    H252868   1.924   1.880   4.227  0.7876 -1.3917 -0.5853
10485TIP3   OH252869   6.020   6.258  16.995  0.0464 -0.4502 -0.0788
10485TIP3    H152870   6.006   6.265  17.090 -1.7775  2.2825 -0.4363
10485TIP3    H252871   5.957   6.319  16.957  1.9807 -0.0804 -2.9899
10486TIP3   OH252872   6.769   6.407  13.740  0.6084 -0.4856  0.0642
10486TIP3    H152873   6.719   6.483  13.768 -1.8180 -2.0274  0.1762
10486TIP3    H252874   6.860   6.430  13.759 -0.2143  1.5857  1.9251
10487TIP3   OH252875   3.419   1.220  13.097  0.5643  0.0309 -0.5125
10487TIP3    H152876   3.344   1.268  13.131  0.6488  0.2323 -0.6018
10487TIP3    H252877   3.384   1.169  13.024  0.7570  1.2111 -1.4838
10488TIP3   OH252878   2.460   5.698  11.625  0.3535  0.3679  0.3242
10488TIP3    H152879   2.387   5.760  11.619  0.0431  0.0114  0.3957
10488TIP3    H252880   2.427   5.618  11.584  1.0108  0.4783 -0.4541
10489TIP3   OH252881   1.683   3.609   0.868  0.1481 -0.1546 -0.2384
10489TIP3    H152882   1.705   3.701   0.854 -0.0654 -0.3587 -2.1685
10489TIP3    H252883   1.641   3.607   0.954  0.9961  1.3908  0.2492
10490TIP3   OH252884   4.337   1.188  10.796  0.1626  0.8196  0.1826
10490TIP3    H152885   4.411   1.150  10.843  0.6396  0.6687 -0.6879
10490TIP3    H252886   4.293   1.242  10.862  1.0357  0.9107  0.7092
10491TIP3   OH252887   1.500   5.676   0.096  0.0487 -0.5305  0.2401
10491TIP3    H152888   1.449   5.680   0.177  0.0565  1.2945  0.2065
10491TIP3    H252889   1.455   5.612   0.041 -1.1770 -0.2454  0.8956
10492TIP3   OH252890   5.043   4.965   5.122 -0.2407 -0.2061 -0.1157
10492TIP3    H152891   5.023   4.918   5.204  0.5476  1.1167  0.8671
10492TIP3    H252892   4.969   5.025   5.111 -0.2573 -0.2576 -0.2835
10493TIP3   OH252893   4.293   5.510   0.867  0.2731  0.7787  0.4952
10493TIP3    H152894   4.351   5.586   0.876 -0.4831  1.3968  0.2211
10493TIP3    H252895   4.230   5.535   0.799  1.1264 -0.8129 -0.9404
10494TIP3   OH252896   2.634   6.289  14.693 -0.1390 -0.1380  0.0285
10494TIP3    H152897   2.589   6.261  14.613  0.3802 -1.4605  0.1744
10494TIP3    H252898   2.573   6.351  14.735 -0.4241  0.5460 -1.3546
10495TIP3   OH252899   1.226   4.800  15.781 -0.3928 -0.2784 -0.1298
10495TIP3    H152900   1.141   4.757  15.792 -0.3439 -0.7893 -1.5579
10495TIP3    H252901   1.267   4.795  15.868 -1.3714 -0.9975  0.3079
10496TIP3   OH252902   1.773   3.555  13.694 -0.1231  0.3813 -0.1622
10496TIP3    H152903   1.853   3.607  13.707 -1.5165  2.6045  0.1517
10496TIP3    H252904   1.729   3.558  13.779 -2.4740  2.8226 -1.2941
10497TIP3   OH252905   3.473   2.412  12.147 -0.4802  0.4608  0.3588
10497TIP3    H152906   3.416   2.454  12.083  0.4838  0.7423 -0.3261
10497TIP3    H252907   3.548   2.471  12.155 -0.6726  0.5489  1.9192
10498TIP3   OH252908   0.492   5.470  16.645 -0.1818 -0.4976 -0.7395
10498TIP3    H152909   0.506   5.518  16.563  2.7827 -1.0351 -0.6652
10498TIP3    H252910   0.472   5.381  16.618  0.0255 -0.5005 -0.8855
10499TIP3   OH252911   4.379   1.518   4.236 -0.0372 -0.3983 -0.2383
10499TIP3    H152912   4.423   1.490   4.156  0.8086  0.9398 -0.2775
10499TIP3    H252913   4.296   1.470   4.236  0.5999 -1.5565 -1.1264
10500TIP3   OH252914   0.781   1.776  16.125 -0.4531 -0.2181 -0.2303
10500TIP3    H152915   0.807   1.863  16.156 -1.2722 -0.8126  2.3806
10500TIP3    H252916   0.860   1.723  16.135 -1.0488 -0.7354  2.4260
10501TIP3   OH252917   2.575   4.735   2.609  0.2457 -0.5412 -0.3115
10501TIP3    H152918   2.626   4.734   2.690 -0.3713  1.8478  0.1695
10501TIP3    H252919   2.530   4.650   2.608  0.4942 -0.7372  1.6864
10502TIP3   OH252920   3.208   4.402  12.954  0.0037 -0.2863  0.2027
10502TIP3    H152921   3.134   4.461  12.937  1.8525  1.3734 -3.1273
10502TIP3    H252922   3.217   4.350  12.874  2.7155  0.0005  0.2048
10503TIP3   OH252923   1.941   5.210  12.810  0.0276  0.0873 -0.8339
10503TIP3    H152924   1.883   5.282  12.787  1.1431  0.4327 -2.7506
10503TIP3    H252925   1.884   5.145  12.852 -0.7601  2.7107  2.6685
10504TIP3   OH252926   3.587   5.330   2.066 -0.3493  0.1855 -0.4147
10504TIP3    H152927   3.533   5.409   2.072 -0.0374  0.5680 -2.1095
10504TIP3    H252928   3.664   5.350   2.119 -0.6978  0.6651 -0.0826
10505TIP3   OH252929   3.282   6.236   4.403 -0.4406 -0.0043 -0.1122
10505TIP3    H152930   3.250   6.319   4.368  1.0934  1.6722  2.1748
10505TIP3    H252931   3.376   6.248   4.411 -0.2234 -1.8661  0.5796
10506TIP3   OH252932   6.116   0.528   0.834  0.3214  0.4960 -0.2436
10506TIP3    H152933   6.087   0.518   0.925 -0.1120 -1.2318 -0.5316
10506TIP3    H252934   6.063   0.465   0.785  1.7808  0.1226 -1.4172
10507TIP3   OH252935   4.534   1.832   0.218 -0.4045 -0.1175 -0.2393
10507TIP3    H152936   4.568   1.836   0.129  0.3472  0.7525  0.0723
10507TIP3    H252937   4.612   1.830   0.273 -0.8624 -0.4965  0.4116
10508TIP3   OH252938   3.221   3.824   2.084  0.3070  0.3176  0.6346
10508TIP3    H152939   3.137   3.853   2.119 -0.3208 -0.3846 -0.2264
10508TIP3    H252940   3.214   3.729   2.080  1.3730  0.2131  1.0960
10509TIP3   OH252941   2.294   5.919  11.106 -0.2448 -0.2078  0.5646
10509TIP3    H152942   2.295   6.012  11.087 -0.3071 -0.4876 -0.9316
10509TIP3    H252943   2.231   5.909  11.178 -1.5655  0.6975 -0.4378
10510TIP3   OH252944   5.292   3.180  15.825 -0.4365  0.1061  0.3793
10510TIP3    H152945   5.254   3.259  15.787 -0.9948 -1.3112 -2.1936
10510TIP3    H252946   5.218   3.137  15.869 -0.7357 -0.2514 -0.4585
10511TIP3   OH252947   1.263   6.231  13.221 -0.0698 -0.3867 -0.4402
10511TIP3    H152948   1.261   6.189  13.307  0.8645  1.6270  0.6442
10511TIP3    H252949   1.312   6.171  13.166  0.2048 -1.2691  0.7268
10512TIP3   OH252950   0.934   4.704  16.954 -0.2622  0.4002  0.5161
10512TIP3    H152951   0.845   4.672  16.941 -0.3080 -0.4358  2.5818
10512TIP3    H252952   0.959   4.739  16.868 -1.1312 -2.8358 -1.2363
10513TIP3   OH252953   3.024   1.808   1.152 -0.1936 -0.2978 -0.3050
10513TIP3    H152954   3.112   1.792   1.117 -0.8295 -1.1025 -1.6225
10513TIP3    H252955   2.967   1.808   1.075 -1.3977 -0.0717  0.5509
10514TIP3   OH252956   0.985   1.120  15.050 -0.9098 -0.0124 -0.1177
10514TIP3    H152957   0.943   1.071  14.980 -0.9520 -0.1644  0.0135
10514TIP3    H252958   1.032   1.190  15.006  0.1722 -0.8944 -0.4006
10515TIP3   OH252959   3.208   0.744   4.588  1.0842 -0.6981  0.3464
10515TIP3    H152960   3.228   0.651   4.600  0.7657 -0.7725  0.3036
10515TIP3    H252961   3.153   0.747   4.510 -0.4298 -0.6798  1.3725
10516TIP3   OH252962   0.171   2.131   1.885 -0.3954 -0.5205  0.0318
10516TIP3    H152963   0.245   2.113   1.942  0.3450 -2.5434 -1.4567
10516TIP3    H252964   0.101   2.158   1.944  0.9550 -0.4195  1.6567
10517TIP3   OH252965   0.274   4.669  15.255  0.0474 -0.0755 -0.1007
10517TIP3    H152966   0.183   4.697  15.247  0.1246 -0.1181 -1.4055
10517TIP3    H252967   0.313   4.732  15.316 -0.6385  0.4907 -0.2303
10518TIP3   OH252968   5.690   2.151   5.303  0.6165 -0.5405  0.3449
10518TIP3    H152969   5.675   2.233   5.256 -2.2512 -1.3866 -0.4185
10518TIP3    H252970   5.622   2.150   5.371  0.2856 -2.4770  0.0432
10519TIP3   OH252971   5.046   1.626   1.847 -0.2666 -0.4044 -0.2951
10519TIP3    H152972   5.025   1.642   1.755 -0.6085 -0.2614 -0.1961
10519TIP3    H252973   5.141   1.620   1.850 -0.1795  0.7072 -0.4829
10520TIP3   OH252974   1.533   4.913  13.795  0.6718 -0.1507  0.7748
10520TIP3    H152975   1.468   4.880  13.857  0.9073 -1.2175  0.4761
10520TIP3    H252976   1.501   4.886  13.709 -0.0074  1.9035  0.3128
10521TIP3   OH252977   1.637   6.748  12.855  0.1335  0.3513 -0.1030
10521TIP3    H152978   1.585   6.676  12.821  0.3850  0.2658 -0.3098
10521TIP3    H252979   1.611   6.755  12.947 -1.2033  1.1714 -0.5172
10522TIP3   OH252980   0.962   6.302   3.637  0.6187 -0.0487 -0.0873
10522TIP3    H152981   0.898   6.360   3.678  0.2345 -1.1334  0.8872
10522TIP3    H252982   0.920   6.274   3.556  0.7450  0.8883 -0.4922
10523TIP3   OH252983   4.184   5.146  15.114  0.5439  0.3660 -0.0172
10523TIP3    H152984   4.256   5.205  15.134  0.5047 -0.2515  2.1136
10523TIP3    H252985   4.120   5.161  15.183 -0.8258 -0.0330 -1.1417
10524TIP3   OH252986   6.429   6.227   5.081  0.2980 -0.4783 -0.2829
10524TIP3    H152987   6.374   6.165   5.129 -0.7839  1.0268  0.4879
10524TIP3    H252988   6.518   6.196   5.097 -0.0479 -0.3318  2.3081
10525TIP3   OH252989   3.914   2.123  15.996 -0.0942 -0.0637  0.2055
10525TIP3    H152990   3.896   2.169  16.078 -0.7331  0.5033 -0.2462
10525TIP3    H252991   3.996   2.161  15.964  1.4841 -1.9245  1.7384
10526TIP3   OH252992   3.375   1.877   2.338 -0.8548  0.1046 -0.1804
10526TIP3    H152993   3.287   1.855   2.307 -0.9253  1.0505 -0.6957
10526TIP3    H252994   3.366   1.966   2.373 -0.2902 -0.1249  0.5872
10527TIP3   OH252995   0.518   5.796  17.027  0.0887 -0.1688 -0.3079
10527TIP3    H152996   0.496   5.705  17.008 -1.8084  0.0049  0.7821
10527TIP3    H252997   0.522   5.838  16.941 -2.5136 -0.5955 -0.7209
10528TIP3   OH252998   6.439   5.160   4.622 -0.1582  0.1596  0.7674
10528TIP3    H152999   6.430   5.239   4.676 -1.5518  0.3452  0.2907
10528TIP3    H253000   6.468   5.092   4.684  2.0045  1.2036  1.0238
10529TIP3   OH253001   1.225   5.615   0.712  0.3189  0.1228 -0.5041
10529TIP3    H153002   1.152   5.676   0.718 -1.4137 -1.7288 -1.6381
10529TIP3    H253003   1.257   5.625   0.622  2.2506  1.6676  0.2689
10530TIP3   OH253004   3.562   5.943   0.255  0.4530  0.1236  0.1557
10530TIP3    H153005   3.467   5.949   0.264 -0.0202 -1.4062 -2.7354
10530TIP3    H253006   3.586   6.017   0.199  0.9583  0.3962  0.7193
10531TIP3   OH253007   5.630   1.681   4.664  0.3891  0.2116  0.1731
10531TIP3    H153008   5.702   1.699   4.725 -0.0735  1.6566  0.3267
10531TIP3    H253009   5.627   1.585   4.659  0.4349  0.0346  2.4140
10532TIP3   OH253010   1.081   3.561  15.024  0.0132  0.2419  0.0784
10532TIP3    H153011   1.071   3.496  14.954  2.0742  0.3770 -0.4097
10532TIP3    H253012   1.070   3.510  15.105  0.5245 -0.5070 -0.3087
10533TIP3   OH253013   6.384   1.055   0.655  0.2349 -0.3770 -0.1857
10533TIP3    H153014   6.413   1.106   0.579 -0.7427 -0.1955 -0.4475
10533TIP3    H253015   6.302   1.015   0.627 -0.0339 -0.4707  0.7107
10534TIP3   OH253016   1.184   0.253   5.557 -0.1850 -0.4797  0.0654
10534TIP3    H153017   1.209   0.162   5.539  0.9857 -0.1113 -0.2784
10534TIP3    H253018   1.197   0.264   5.651  0.6344 -0.4001 -0.0510
10535TIP3   OH253019   0.509   4.720  11.451  0.2987 -0.6060 -0.0557
10535TIP3    H153020   0.531   4.813  11.456 -1.1804 -0.2431  0.0835
10535TIP3    H253021   0.586   4.680  11.412  0.4183  0.8864 -1.4886
10536TIP3   OH253022   2.133   4.110  15.672  0.9974 -0.2917 -0.0006
10536TIP3    H153023   2.041   4.083  15.673  0.2664  1.8933  2.5603
10536TIP3    H253024   2.180   4.036  15.711 -0.0435 -0.4111  1.0775
10537TIP3   OH253025   2.845   4.243   0.096 -0.0512 -0.1159  0.5596
10537TIP3    H153026   2.929   4.255   0.142  0.1568 -1.6255  0.6326
10537TIP3    H253027   2.801   4.175   0.146 -0.7157 -0.3373 -0.3142
10538TIP3   OH253028   1.663   2.663  15.833 -0.2112 -0.4722 -0.4164
10538TIP3    H153029   1.758   2.673  15.836 -0.1581 -0.8719 -0.6493
10538TIP3    H253030   1.631   2.747  15.803  0.2168 -0.9661 -2.3904
10539TIP3   OH253031   3.929   0.765  14.683  0.3073 -1.1610 -0.4463
10539TIP3    H153032   3.868   0.701  14.647 -0.1370 -0.3248 -1.2105
10539TIP3    H253033   4.006   0.759  14.627 -0.6648  0.6671 -2.1093
10540TIP3   OH253034   0.243   6.160  14.443 -0.3128  0.1443  0.1733
10540TIP3    H153035   0.244   6.150  14.348 -0.3326 -1.1260  0.2865
10540TIP3    H253036   0.334   6.182  14.465 -0.2537  0.2020 -0.1211
10541TIP3   OH253037   5.176   1.808   2.667 -0.7523  0.0722 -0.3215
10541TIP3    H153038   5.080   1.807   2.675 -0.8409 -1.3806 -1.1902
10541TIP3    H253039   5.206   1.856   2.744 -2.0023 -2.7696  2.1181
10542TIP3   OH253040   5.646   1.137   3.156 -0.3397  0.1133  0.2981
10542TIP3    H153041   5.626   1.226   3.128  1.1373  0.0852 -0.9969
10542TIP3    H253042   5.727   1.146   3.207  0.1697 -0.5345 -0.3686
10543TIP3   OH253043   6.522   3.675  15.989 -0.1098 -0.2681 -0.3591
10543TIP3    H153044   6.563   3.758  16.016  2.4000 -1.0187 -1.4850
10543TIP3    H253045   6.453   3.702  15.929  0.4300  1.0519 -0.4417
10544TIP3   OH253046   3.611   3.838  16.847  0.3058  0.0813  0.3010
10544TIP3    H153047   3.706   3.822  16.853  0.4298  0.8024  0.3476
10544TIP3    H253048   3.596   3.857  16.755 -0.2404 -2.6363 -0.2563
10545TIP3   OH253049   4.727   6.548   0.754 -0.2729 -0.0395  0.1413
10545TIP3    H153050   4.775   6.619   0.713 -2.4697  1.0742 -0.6423
10545TIP3    H253051   4.749   6.471   0.702  1.0181  0.3094  0.1313
10546TIP3   OH253052   6.314   2.764  15.372 -0.4839 -0.5498 -0.1457
10546TIP3    H153053   6.296   2.855  15.347 -0.1565 -0.5626 -0.4412
10546TIP3    H253054   6.345   2.769  15.462 -0.2290 -0.3412 -0.2444
10547TIP3   OH253055   6.032   0.200  14.150  0.1354 -0.2067  0.1493
10547TIP3    H153056   5.999   0.179  14.237 -0.6540  0.0071 -0.0833
10547TIP3    H253057   5.972   0.155  14.091  1.4530 -1.4740 -0.2835
10548TIP3   OH253058   2.350   4.135  12.577 -0.6710 -0.3986  0.4232
10548TIP3    H153059   2.362   4.112  12.669  0.5687 -0.8885  0.1553
10548TIP3    H253060   2.392   4.063  12.529 -1.7316 -0.4036 -0.5389
10549TIP3   OH253061   5.533   2.714   3.611  0.1629  0.1204 -0.2501
10549TIP3    H153062   5.597   2.757   3.554  1.7327  0.0341  1.3547
10549TIP3    H253063   5.519   2.776   3.683  0.8907 -1.1231  1.0258
10550TIP3   OH253064   2.307   1.303   4.200  0.0110  0.0144 -0.2675
10550TIP3    H153065   2.294   1.214   4.233 -2.0071 -0.4797 -2.1438
10550TIP3    H253066   2.219   1.341   4.200  0.6751  1.6018 -0.5932
10551TIP3   OH253067   3.962   4.927   4.758 -0.1016 -0.2409  0.3434
10551TIP3    H153068   4.015   4.992   4.712 -1.7310  0.4791 -0.6459
10551TIP3    H253069   3.920   4.876   4.688  1.1474 -2.4337  1.0909
10552TIP3   OH253070   3.226   2.519  11.827 -0.3787 -0.3533  0.1186
10552TIP3    H153071   3.295   2.454  11.813 -0.9722 -1.1161  0.6810
10552TIP3    H253072   3.175   2.484  11.899 -1.9259 -0.2830 -0.9059
10553TIP3   OH253073   6.737   1.576   4.489 -0.3623 -0.5031  0.3065
10553TIP3    H153074   6.751   1.530   4.406 -3.1429 -2.3189  0.6871
10553TIP3    H253075   6.818   1.563   4.538  1.2928  0.4921 -2.0063
10554TIP3   OH253076   4.381   2.951  14.087  0.1191 -0.7116 -0.3271
10554TIP3    H153077   4.463   2.979  14.045  1.1098 -0.4686  1.6552
10554TIP3    H253078   4.329   3.030  14.095  1.0298 -0.2246  1.1925
10555TIP3   OH253079   4.657   4.742   2.913  0.1695 -0.0120 -0.1792
10555TIP3    H153080   4.722   4.803   2.879 -0.1259 -0.7699 -2.2599
10555TIP3    H253081   4.573   4.787   2.901  0.1043 -0.0889 -0.0077
10556TIP3   OH253082   5.209   5.598  13.092  0.4278 -0.0658  0.2306
10556TIP3    H153083   5.264   5.519  13.088 -1.7011 -1.6048 -0.5648
10556TIP3    H253084   5.203   5.619  13.185  0.4879 -1.2769  0.5249
10557TIP3   OH253085   5.058   0.771  15.530 -0.2401 -0.0686 -0.0286
10557TIP3    H153086   5.035   0.835  15.597 -1.0254 -0.9509  0.5851
10557TIP3    H253087   5.117   0.710  15.574 -0.7861 -0.6717 -0.1040
10558TIP3   OH253088   6.325   5.121   0.496 -0.2655 -0.1662 -0.3135
10558TIP3    H153089   6.234   5.113   0.467 -0.6479 -0.3466  0.8497
10558TIP3    H253090   6.345   5.035   0.533 -0.5268  0.6428  1.8323
10559TIP3   OH253091   5.153   2.645  14.936 -0.4618  1.1521 -0.4924
10559TIP3    H153092   5.187   2.584  14.871  0.0091  0.3603  0.4655
10559TIP3    H253093   5.213   2.636  15.010 -0.7964  2.2802 -0.0800
10560TIP3   OH253094   5.456   4.845   5.590  0.5194  0.0849  0.4115
10560TIP3    H153095   5.414   4.930   5.603 -0.6220 -0.5778  1.2641
10560TIP3    H253096   5.548   4.865   5.578  0.5370  1.3414  2.3009
10561TIP3   OH253097   2.685   0.141  16.558 -0.2416  0.2994 -0.0718
10561TIP3    H153098   2.727   0.225  16.539 -1.2860  1.0344  0.7511
10561TIP3    H253099   2.627   0.126  16.483  0.8552 -0.3227 -0.8210
10562TIP3   OH253100   3.147   5.825   1.479 -0.3629 -0.1332  0.4667
10562TIP3    H153101   3.207   5.810   1.407 -0.5329 -2.0901  0.6930
10562TIP3    H253102   3.071   5.868   1.438 -0.5649 -1.4330 -0.5692
10563TIP3   OH253103   0.985   4.105   1.998  0.2664 -0.3102 -0.0718
10563TIP3    H153104   0.955   4.155   2.074 -0.4761 -1.3124  0.3084
10563TIP3    H253105   0.980   4.014   2.025  0.3089 -0.6649 -1.2131
10564TIP3   OH253106   6.657   0.341  14.604  0.5085  0.0450  0.5282
10564TIP3    H153107   6.594   0.371  14.669 -0.0696  0.3077 -0.1359
10564TIP3    H253108   6.616   0.361  14.520  0.4211 -1.9463  0.0494
10565TIP3   OH253109   5.673   2.843  13.902  0.0772  0.0422  0.4787
10565TIP3    H153110   5.602   2.888  13.858  1.8345  1.8239 -0.6978
10565TIP3    H253111   5.727   2.913  13.940  2.3863 -1.0433 -0.5855
10566TIP3   OH253112   3.132   1.773  15.517 -0.3836  0.3467  0.5849
10566TIP3    H153113   3.188   1.798  15.443 -1.3137 -0.0933 -0.2923
10566TIP3    H253114   3.187   1.716  15.570 -0.6173 -1.8783 -1.4082
10567TIP3   OH253115   0.343   0.345   2.578  0.2568  0.4710  0.3761
10567TIP3    H153116   0.297   0.302   2.650 -0.5687 -0.7526 -0.8297
10567TIP3    H253117   0.320   0.437   2.587 -0.4276  0.2289  1.2589
10568TIP3   OH253118   6.463   5.824   1.538  0.0951 -0.2976 -0.1039
10568TIP3    H153119   6.386   5.843   1.485  1.0961  0.8686 -1.1894
10568TIP3    H253120   6.527   5.891   1.514  0.6696  0.1953  2.4501
10569TIP3   OH253121   6.304   4.116  12.867 -0.0466 -0.3349 -0.2549
10569TIP3    H153122   6.337   4.103  12.778  0.4078 -0.1815 -0.1125
10569TIP3    H253123   6.322   4.034  12.912 -0.6428 -0.5524 -0.4181
10570TIP3   OH253124   1.861   1.300   0.314  0.1371  0.3998 -0.1918
10570TIP3    H153125   1.899   1.241   0.378 -1.9102  1.0444  1.7540
10570TIP3    H253126   1.828   1.243   0.244  3.3096 -0.2416 -1.3129
10571TIP3   OH253127   2.357   3.628  16.174 -0.4403  0.5264 -0.3526
10571TIP3    H153128   2.448   3.602  16.159 -0.4648  0.0366  0.2767
10571TIP3    H253129   2.317   3.628  16.087  0.1932  0.8925 -0.6531
10572TIP3   OH253130   2.787   2.550   4.875  0.0813 -0.1294  0.2510
10572TIP3    H153131   2.694   2.571   4.884 -0.0348 -0.7427  0.5741
10572TIP3    H253132   2.829   2.596   4.947  0.1848  1.0020 -0.5048
10573TIP3   OH253133   6.734   5.127  13.705  0.2582  0.2027 -0.7110
10573TIP3    H153134   6.680   5.070  13.650 -0.0294  0.6186 -0.8664
10573TIP3    H253135   6.685   5.136  13.786  1.4759 -1.8082  0.3340
10574TIP3   OH253136   3.110   0.354   0.502 -0.1605  0.0102 -0.0595
10574TIP3    H153137   3.183   0.410   0.528 -0.8106  0.5505  0.6883
10574TIP3    H253138   3.128   0.329   0.412  2.2537 -1.9848  0.8575
10575TIP3   OH253139   0.937   3.878   2.124 -0.3446 -1.2383  0.1536
10575TIP3    H153140   0.932   3.918   2.210  0.3673 -1.0600  0.1213
10575TIP3    H253141   0.989   3.799   2.137 -0.2746 -1.2367 -0.0958
10576TIP3   OH253142   6.333   1.453  11.889  0.4719  0.3968 -0.1716
10576TIP3    H153143   6.428   1.467  11.887  0.6281 -0.5337  0.4078
10576TIP3    H253144   6.313   1.412  11.805  0.6370  0.2609 -0.1445
10577TIP3   OH253145   0.406   4.984   4.997 -0.5236 -0.2954 -0.0429
10577TIP3    H153146   0.444   5.064   4.961 -2.6534 -0.0013 -1.8621
10577TIP3    H253147   0.328   5.014   5.044  0.3477 -1.0578  2.0184
10578TIP3   OH253148   6.758   1.533   5.557  0.3717  0.1301  0.2211
10578TIP3    H153149   6.782   1.604   5.498  0.2342  0.7273  0.8612
10578TIP3    H253150   6.702   1.575   5.622  1.6901 -0.1718  1.6251
10579TIP3   OH253151   3.478   3.167   4.346  0.5009 -0.4311 -0.4545
10579TIP3    H153152   3.564   3.149   4.307  0.7677  0.0949 -0.1270
10579TIP3    H253153   3.498   3.202   4.433  0.0700  2.0631 -1.2912
10580TIP3   OH253154   2.808   6.549  11.886 -0.0268 -0.3525  0.2761
10580TIP3    H153155   2.766   6.509  11.809 -0.2172  0.0190  0.1879
10580TIP3    H253156   2.884   6.596  11.850 -0.8088  0.8464  0.1584
10581TIP3   OH253157   0.462   1.768  16.539  0.1992 -0.0813  0.0086
10581TIP3    H153158   0.497   1.852  16.510 -0.1995 -0.0812 -0.4776
10581TIP3    H253159   0.505   1.704  16.483 -0.7781 -0.0581 -0.7880
10582TIP3   OH253160   0.447   2.919   3.035  0.3162  0.2592  0.3876
10582TIP3    H153161   0.408   2.892   3.118 -0.0674 -0.6853 -0.0869
10582TIP3    H253162   0.415   2.854   2.972  0.7418  0.8697 -0.4606
10583TIP3   OH253163   4.072   3.228  11.877 -0.4281  0.4650  0.0974
10583TIP3    H153164   4.008   3.251  11.945  0.9111  1.8157  0.9723
10583TIP3    H253165   4.100   3.312  11.842  0.4183 -0.1303 -0.6979
10584TIP3   OH253166   6.476   3.546   4.946 -0.0188 -0.1757  0.2665
10584TIP3    H153167   6.512   3.630   4.976 -1.9033  0.7103  0.1881
10584TIP3    H253168   6.495   3.485   5.018 -1.1689  1.0278  1.6408
10585TIP3   OH253169   0.685   3.964   5.021  0.9345 -0.2365  0.1688
10585TIP3    H153170   0.645   3.884   5.057 -0.3357  0.1737 -0.2627
10585TIP3    H253171   0.651   4.034   5.076 -0.3347  0.3025 -1.2168
10586TIP3   OH253172   0.237   3.737  16.284  0.1362  0.3600 -0.0996
10586TIP3    H153173   0.222   3.766  16.374  2.0573  1.6939 -0.1606
10586TIP3    H253174   0.193   3.652  16.279  0.9347 -0.2887  2.4288
10587TIP3   OH253175   1.331   5.193  12.270  0.3145  0.6580 -0.0576
10587TIP3    H153176   1.409   5.151  12.307  1.0014  2.9086  1.2442
10587TIP3    H253177   1.258   5.156  12.320  0.7303 -0.0880  0.0117
10588TIP3   OH253178   1.062   4.487   2.335  0.1900 -0.5850 -0.8386
10588TIP3    H153179   1.113   4.557   2.376 -0.7828 -0.8893  0.9960
10588TIP3    H253180   1.124   4.416   2.321  0.9075  0.1591 -1.5561
10589TIP3   OH253181   2.710   2.472  11.153 -0.1239  0.0137 -0.2142
10589TIP3    H153182   2.781   2.412  11.130 -0.3244 -0.0120 -0.7734
10589TIP3    H253183   2.640   2.453  11.090  0.3195  1.7748 -1.3019
10590TIP3   OH253184   2.109   4.860   1.052  1.2030  0.2282 -0.3937
10590TIP3    H153185   2.022   4.858   1.091  1.2115  0.3496 -0.3670
10590TIP3    H253186   2.132   4.953   1.050  2.1548  0.0697  1.4221
10591TIP3   OH253187   5.027   2.548   4.451  0.1187 -0.6494  0.0518
10591TIP3    H153188   5.045   2.498   4.371  1.0888 -0.5001  0.1683
10591TIP3    H253189   5.023   2.482   4.520  2.8014 -0.4852  0.4353
10592TIP3   OH253190   0.643   3.244   2.778 -0.1178  0.2089 -0.5207
10592TIP3    H153191   0.636   3.211   2.867  0.2861  0.7016 -0.3019
10592TIP3    H253192   0.566   3.301   2.768 -1.0711 -1.1282 -1.0565
10593TIP3   OH253193   3.290   4.343  12.690  0.3965  0.3508  0.5452
10593TIP3    H153194   3.340   4.319  12.612  1.8683  2.8454  0.6269
10593TIP3    H253195   3.199   4.344  12.661  0.6440 -1.2534 -0.4232
10594TIP3   OH253196   6.287   4.275   1.085  0.4025 -0.8114  0.2761
10594TIP3    H153197   6.367   4.307   1.127 -0.2466  0.0523  0.8976
10594TIP3    H253198   6.221   4.341   1.106 -0.1578 -0.7940 -1.3985
10595TIP3   OH253199   3.939   5.796  12.428 -0.1696 -0.3009 -0.4971
10595TIP3    H153200   3.995   5.718  12.426  0.5476  0.0944  1.7591
10595TIP3    H253201   3.925   5.813  12.521 -0.7480  1.9593 -0.9512
10596TIP3   OH253202   4.649   3.296   1.760 -0.5179 -0.8177  0.1701
10596TIP3    H153203   4.625   3.302   1.852  0.4282 -1.1372  0.4551
10596TIP3    H253204   4.623   3.207   1.734 -0.5165 -0.8326  0.2197
10597TIP3   OH253205   1.946   4.600  11.851 -0.1553  0.0814 -0.3604
10597TIP3    H153206   1.938   4.689  11.886  0.0449  0.7016 -1.7866
10597TIP3    H253207   1.874   4.593  11.788  0.4250 -0.3924 -0.9804
10598TIP3   OH253208   5.188   2.497  11.768  0.5795 -0.0199  0.2033
10598TIP3    H153209   5.218   2.586  11.750  0.7025 -0.3444 -1.2790
10598TIP3    H253210   5.114   2.484  11.709  1.2363 -1.2568 -0.3921
10599TIP3   OH253211   4.568   1.906  12.486 -0.2358  0.0986 -0.0843
10599TIP3    H153212   4.494   1.876  12.540 -1.0108  1.1181 -0.5407
10599TIP3    H253213   4.546   1.997  12.464  0.7236  0.1271 -0.9952
10600TIP3   OH253214   6.499   6.628  13.946 -0.2124  0.0179 -0.4254
10600TIP3    H153215   6.472   6.538  13.966 -0.9403  0.2663 -0.2885
10600TIP3    H253216   6.520   6.666  14.031  2.3626 -0.7072 -0.6368
10601TIP3   OH253217   0.880   3.546  16.852 -0.0187  0.3988 -0.0130
10601TIP3    H153218   0.884   3.521  16.944 -0.5496 -1.1789 -0.3938
10601TIP3    H253219   0.838   3.632  16.853  0.2161  0.5267  1.2227
10602TIP3   OH253220   4.534   3.365  15.855 -0.2945 -0.3557  0.2169
10602TIP3    H153221   4.498   3.440  15.806  1.9225  1.7842  1.6258
10602TIP3    H253222   4.622   3.354  15.820  0.6821  0.0406  2.3895
10603TIP3   OH253223   2.913   0.427  14.040 -0.5668 -0.0145  0.3063
10603TIP3    H153224   2.893   0.448  13.949  0.8385 -1.3168 -0.3449
10603TIP3    H253225   2.853   0.356  14.062 -0.4245 -0.1863  0.1476
10604TIP3   OH253226   0.749   4.256  16.622  0.3247  0.3931  0.2170
10604TIP3    H153227   0.807   4.332  16.627 -0.7183  1.2208  0.0391
10604TIP3    H253228   0.761   4.222  16.534  1.2216 -0.0146  0.4822
10605TIP3   OH253229   5.319   4.631  14.487 -0.7049  0.1293 -0.2581
10605TIP3    H153230   5.225   4.617  14.492 -0.4871 -1.3811  0.1725
10605TIP3    H253231   5.350   4.617  14.577 -0.0598  0.4976 -0.4198
10606TIP3   OH253232   3.992   5.142  11.888  0.1644 -0.5904  0.0162
10606TIP3    H153233   4.057   5.117  11.821  1.5043  0.3828  0.8850
10606TIP3    H253234   3.949   5.219  11.851 -0.9860 -1.6120 -0.8401
10607TIP3   OH253235   3.928   4.774  11.278 -0.0512 -0.1051 -0.4592
10607TIP3    H153236   3.892   4.811  11.358  0.0163 -1.7446  0.3747
10607TIP3    H253237   3.856   4.779  11.215 -0.1525  1.0624 -0.2704
10608TIP3   OH253238   0.319   0.965   6.396  0.4438  0.0313  0.0160
10608TIP3    H153239   0.331   0.977   6.490 -0.5836  0.8235  0.0545
10608TIP3    H253240   0.231   0.929   6.387  0.9901 -1.2281 -0.5728
10609TIP3   OH253241   1.933   3.219  12.760 -0.7886  0.0335 -0.1565
10609TIP3    H153242   1.894   3.144  12.716 -2.3252  1.4831 -1.3777
10609TIP3    H253243   1.953   3.187  12.849 -0.6891 -1.9849 -0.8603
10610TIP3   OH253244   0.558   5.600  13.339 -0.1023 -0.3129 -0.5106
10610TIP3    H153245   0.546   5.687  13.379 -0.6159 -0.8590  0.5564
10610TIP3    H253246   0.626   5.559  13.393  0.7430 -0.2769 -1.5275
10611TIP3   OH253247   6.146   2.562  15.451  0.8994  0.0427 -0.0506
10611TIP3    H153248   6.215   2.620  15.421  0.8079 -0.3447 -1.0603
10611TIP3    H253249   6.187   2.509  15.520  0.9836  1.2641  0.8602
10612TIP3   OH253250   1.332   6.517   0.086 -0.0386 -0.0749 -0.5690
10612TIP3    H153251   1.304   6.467   0.009  0.6287  0.6259 -1.2895
10612TIP3    H253252   1.308   6.607   0.066 -2.4819 -0.1972  1.2967
10613TIP3   OH253253   6.479   1.367   5.061  0.4802  0.3486  0.2580
10613TIP3    H153254   6.454   1.276   5.050 -0.6654  0.3994  1.9450
10613TIP3    H253255   6.574   1.365   5.076  0.5302 -0.5119 -0.1206
10614TIP3   OH253256   5.369   5.095   3.062 -0.4216 -0.2866 -0.3736
10614TIP3    H153257   5.323   5.124   2.983  0.3037 -1.5616 -1.3248
10614TIP3    H253258   5.435   5.162   3.077  1.0463 -1.1694 -2.3470
10615TIP3   OH253259   5.079   1.602   0.947 -0.0862 -0.2308  0.7403
10615TIP3    H153260   5.087   1.681   1.001 -0.0687 -0.1245  0.5837
10615TIP3    H253261   5.110   1.629   0.861  1.4043 -0.8214  1.0601
10616TIP3   OH253262   1.683   5.137  14.803 -0.2878  0.0813  0.3413
10616TIP3    H153263   1.726   5.089  14.874 -0.9490 -0.4182  0.4205
10616TIP3    H253264   1.591   5.137  14.828 -0.2042  2.2148  0.8000
10617TIP3   OH253265   6.131   2.418   4.906  0.1753 -0.5457 -0.4064
10617TIP3    H153266   6.212   2.421   4.956  0.5416  0.8847 -1.0432
10617TIP3    H253267   6.081   2.346   4.945  1.4763 -1.0329  0.4010
10618TIP3   OH253268   3.041   2.826   5.571 -0.3236 -0.1090 -0.3163
10618TIP3    H153269   3.093   2.776   5.633 -0.0439  0.7459  0.1483
10618TIP3    H253270   2.950   2.803   5.592 -0.2930  0.9684  1.1356
10619TIP3   OH253271   0.133   5.347  14.609 -0.3746  0.6259  0.2113
10619TIP3    H153272   0.100   5.292  14.679 -1.1569  1.8624  0.8421
10619TIP3    H253273   0.165   5.286  14.543  1.9041 -0.6203  2.3024
10620TIP3   OH253274   5.354   4.338  13.255  0.0517 -0.0382  0.7442
10620TIP3    H153275   5.394   4.303  13.175  0.5197  0.2383  0.8503
10620TIP3    H253276   5.309   4.263  13.293  0.6984 -0.4362  0.7564
10621TIP3   OH253277   0.844   5.131  15.915 -0.4897 -0.0114 -0.6196
10621TIP3    H153278   0.843   5.222  15.886 -0.8119  0.0250 -0.4997
10621TIP3    H253279   0.916   5.126  15.978 -1.0240  0.3720  0.0353
10622TIP3   OH253280   0.727   5.443   0.035  0.7559 -0.3086  0.0670
10622TIP3    H153281   0.797   5.377   0.028  1.7257  0.4589  1.9533
10622TIP3    H253282   0.774   5.527   0.036 -0.4782  0.5970 -3.0775
10623TIP3   OH253283   0.351   5.131   2.071  0.1088  0.7269  0.3877
10623TIP3    H153284   0.408   5.158   2.143  0.7608  3.0007 -0.8721
10623TIP3    H253285   0.393   5.167   1.992 -1.4040 -0.2958 -0.9519
10624TIP3   OH253286   6.222   5.868   3.550 -0.0233  0.4271 -0.6082
10624TIP3    H153287   6.247   5.787   3.507 -0.8932  0.5300 -1.3460
10624TIP3    H253288   6.304   5.906   3.581  0.3639 -0.9281  0.1281
10625TIP3   OH253289   5.452   2.745  12.621  0.5104 -0.0751 -0.0763
10625TIP3    H153290   5.496   2.829  12.617 -0.6901  0.6443  1.1256
10625TIP3    H253291   5.364   2.762  12.589 -0.4927 -0.2945  2.3572
10626TIP3   OH253292   6.253   2.754  12.523  0.2717  0.4110 -0.1369
10626TIP3    H153293   6.277   2.718  12.438  0.2189  0.5276 -0.2021
10626TIP3    H253294   6.188   2.821  12.503 -0.2254 -0.0137  0.0526
10627TIP3   OH253295   3.720   6.567   2.748  0.2510  0.4118 -0.1336
10627TIP3    H153296   3.773   6.626   2.802  0.1545  1.3470 -1.0232
10627TIP3    H253297   3.773   6.488   2.740  0.7418  0.6724  0.4248
10628TIP3   OH253298   1.325   3.211   2.945  0.0508  0.0891 -0.3943
10628TIP3    H153299   1.349   3.260   3.024  0.1460 -0.1718 -0.2618
10628TIP3    H253300   1.321   3.277   2.876  0.6918  0.2056 -0.3200
10629TIP3   OH253301   3.033   0.045   1.022  0.0147 -0.5336  0.6956
10629TIP3    H153302   2.992   0.064   0.938 -0.5345 -0.1123  1.0525
10629TIP3    H253303   3.012   0.121   1.076  0.8366 -0.5507  1.0428
10630TIP3   OH253304   0.996   4.969   2.506 -0.2070 -0.2291  0.0672
10630TIP3    H153305   1.080   5.001   2.473  0.1458 -2.5342 -1.5218
10630TIP3    H253306   1.017   4.929   2.590  0.1052 -0.0172  0.0937
10631TIP3   OH253307   1.952   4.779   0.833 -1.0314  0.4326  0.1648
10631TIP3    H153308   1.987   4.782   0.745 -1.2403  2.2045  0.1202
10631TIP3    H253309   2.011   4.833   0.885 -1.6783  0.5227  0.8248
10632TIP3   OH253310   4.100   0.732   3.938  0.2095  0.3826 -0.0045
10632TIP3    H153311   4.043   0.765   4.007 -0.2109 -0.7354  0.2025
10632TIP3    H253312   4.187   0.732   3.976  0.0363  0.1446  0.3972
10633TIP3   OH253313   0.839   5.668  15.032 -0.4840  0.0121 -0.0361
10633TIP3    H153314   0.824   5.728  15.106 -1.4853  0.7134 -0.7823
10633TIP3    H253315   0.778   5.698  14.965  1.2758  0.1931 -1.6282
10634TIP3   OH253316   4.148   0.523   2.843 -0.1769 -0.2664 -0.1858
10634TIP3    H153317   4.080   0.552   2.903 -0.7431  1.2386 -1.4839
10634TIP3    H253318   4.230   0.545   2.887 -0.5365 -0.7263  0.7403
10635TIP3   OH253319   1.268   6.346  11.943  0.3267  0.4851  0.2003
10635TIP3    H153320   1.197   6.304  11.991 -1.0480 -0.6006 -2.5738
10635TIP3    H253321   1.347   6.318  11.989 -0.7879 -1.9232  0.8468
10636TIP3   OH253322   4.059   6.105   5.664 -0.5348  0.5102 -0.0030
10636TIP3    H153323   4.073   6.097   5.759  3.7141 -0.5950 -0.5334
10636TIP3    H253324   4.088   6.022   5.629 -0.8196  1.3673 -2.4270
10637TIP3   OH253325   5.574   3.343   2.630 -0.1587  0.0243  0.0076
10637TIP3    H153326   5.499   3.395   2.602 -0.9271 -0.9288  0.2458
10637TIP3    H253327   5.608   3.303   2.550  0.6951  1.1758 -0.2433
10638TIP3   OH253328   4.058   4.201   5.573 -0.2858 -0.2036 -0.0163
10638TIP3    H153329   4.066   4.296   5.563  0.2972 -0.1938  0.5101
10638TIP3    H253330   4.122   4.165   5.512 -0.1553 -0.2480  0.1468
10639TIP3   OH253331   0.658   1.781   3.404  0.1689  0.2669 -0.0243
10639TIP3    H153332   0.716   1.723   3.454 -0.0236 -0.6245 -0.8024
10639TIP3    H253333   0.704   1.865   3.404  0.9873 -0.1589  0.2199
10640TIP3   OH253334   1.148   0.731  17.060  0.1107 -0.3191  0.2852
10640TIP3    H153335   1.078   0.742  17.125 -0.0664  0.0091  0.0434
10640TIP3    H253336   1.223   0.777  17.098  0.3311 -1.0299  0.7415
10641TIP3   OH253337   3.846   5.218   0.573 -0.3828  0.8540 -0.1211
10641TIP3    H153338   3.826   5.310   0.558 -0.4900  0.6738 -1.1718
10641TIP3    H253339   3.913   5.197   0.507 -1.4548 -0.1964 -0.9235
10642TIP3   OH253340   1.182   1.553   5.593  0.7205  0.2118  0.0267
10642TIP3    H153341   1.185   1.466   5.633 -2.3652 -0.4405 -0.9352
10642TIP3    H253342   1.168   1.536   5.500 -2.2056  1.6465  0.1030
10643TIP3   OH253343   0.636   1.988  10.726  0.5120 -0.0780 -0.7135
10643TIP3    H153344   0.580   1.914  10.702  0.8165 -0.7559  0.5542
10643TIP3    H253345   0.576   2.062  10.732  0.0821 -0.3664 -1.3250
10644TIP3   OH253346   0.664   2.706   3.392  0.5342 -0.4553  0.4256
10644TIP3    H153347   0.674   2.686   3.484  0.1036  0.5037  0.6991
10644TIP3    H253348   0.635   2.797   3.390  0.4977 -0.4687 -0.6525
10645TIP3   OH253349   5.443   0.862  13.333  0.1088 -0.0734 -0.0117
10645TIP3    H153350   5.528   0.870  13.292 -0.3339 -1.3175 -1.2683
10645TIP3    H253351   5.414   0.952  13.348  1.3414  0.3649 -0.1666
10646TIP3   OH253352   1.594   4.012  11.457 -0.5906  0.3425  0.0849
10646TIP3    H153353   1.602   3.925  11.417  0.5296  0.0256  0.9285
10646TIP3    H253354   1.681   4.029  11.493 -0.6555  2.0257 -0.4628
10647TIP3   OH253355   1.451   1.981  11.315  0.0444 -0.3254 -0.1761
10647TIP3    H153356   1.506   1.961  11.391 -0.9626  0.5558  0.8113
10647TIP3    H253357   1.426   1.895  11.280  0.6762 -0.7392  0.3555
10648TIP3   OH253358   1.400   2.454  11.105 -0.1827 -0.3420  0.8564
10648TIP3    H153359   1.415   2.483  11.014 -1.4681  0.8656  0.9894
10648TIP3    H253360   1.476   2.400  11.126  1.1221  0.9587 -0.2947
10649TIP3   OH253361   0.101   6.561   2.577  0.8318 -0.4564 -0.1059
10649TIP3    H153362   0.160   6.504   2.626  1.4630 -0.1245 -0.4650
10649TIP3    H253363   0.158   6.628   2.539  0.2302 -0.1598 -0.5116
10650TIP3   OH253364   4.911   3.142  14.733 -0.0757  0.3281 -0.0654
10650TIP3    H153365   4.896   3.168  14.824  2.2922  0.7086  0.2673
10650TIP3    H253366   4.997   3.177  14.711 -0.6202  0.3074 -2.5058
10651TIP3   OH253367   0.775   1.266  14.124 -0.2145  0.2781  0.2951
10651TIP3    H153368   0.717   1.263  14.199 -0.0905 -1.4499  0.3553
10651TIP3    H253369   0.723   1.232  14.051  0.1390  0.5102 -0.0752
10652TIP3   OH253370   0.521   6.001  14.332 -0.0328  0.1025 -0.1705
10652TIP3    H153371   0.497   6.049  14.412  0.8906  0.1479  0.0907
10652TIP3    H253372   0.488   6.056  14.261  0.1434  0.6457  0.1573
10653TIP3   OH253373   5.650   5.428  15.913  0.5256  0.1212 -0.2006
10653TIP3    H153374   5.685   5.423  15.824 -1.1927  1.2947 -1.0001
10653TIP3    H253375   5.568   5.379  15.908 -0.3365  1.4639  0.3122
10654TIP3   OH253376   4.526   4.066  11.848 -0.1796 -0.2466 -0.6199
10654TIP3    H153377   4.612   4.032  11.875 -0.1300 -1.2177 -1.8920
10654TIP3    H253378   4.544   4.152  11.811  0.2297 -0.3554 -0.6811
10655TIP3   OH253379   6.381   4.518  12.380 -0.2503  0.2407 -0.1812
10655TIP3    H153380   6.331   4.597  12.398  1.7541  1.0663  2.4207
10655TIP3    H253381   6.363   4.461  12.456 -0.4822 -1.1924 -1.2693
10656TIP3   OH253382   4.339   2.850   1.751  0.0259 -0.4884 -0.4693
10656TIP3    H153383   4.303   2.936   1.728  0.4783 -0.0248  0.4857
10656TIP3    H253384   4.294   2.827   1.833  2.7163  0.6930  1.4801
10657TIP3   OH253385   2.737   0.908   0.823  0.3797  0.1588 -0.0978
10657TIP3    H153386   2.659   0.964   0.811 -0.9175 -0.8658  2.6782
10657TIP3    H253387   2.732   0.845   0.751  1.1125  2.5899 -2.4845
10658TIP3   OH253388   4.022   0.484  10.626  0.3433  0.2994 -0.4168
10658TIP3    H153389   4.075   0.438  10.691 -1.5477  0.1236  1.1010
10658TIP3    H253390   3.991   0.414  10.568  1.9418  0.4418 -1.5019
10659TIP3   OH253391   0.688   4.155  11.249  0.0225 -0.3943 -0.1786
10659TIP3    H153392   0.640   4.235  11.229 -1.4754 -1.2734 -0.1993
10659TIP3    H253393   0.735   4.176  11.330 -1.0327  0.2263  0.2970
10660TIP3   OH253394   1.085   6.526   4.657 -0.3373  0.1478  0.3787
10660TIP3    H153395   1.071   6.431   4.661 -1.2910  0.1860 -1.2286
10660TIP3    H253396   1.056   6.551   4.569  0.3186  1.8734  0.6134
10661TIP3   OH253397   5.271   6.259  13.160  0.0874  0.1721 -0.2014
10661TIP3    H153398   5.244   6.236  13.249  0.8375 -0.3657 -0.1021
10661TIP3    H253399   5.290   6.353  13.164 -2.0124  0.6610 -0.3546
10662TIP3   OH253400   5.510   1.912  14.025  0.0122  0.0671 -0.3820
10662TIP3    H153401   5.423   1.949  14.041  1.0288  1.7881  1.6752
10662TIP3    H253402   5.513   1.833  14.080 -0.3220 -0.1610 -0.6844
10663TIP3   OH253403   5.006   5.115   1.016 -0.6398  0.3915 -0.1635
10663TIP3    H153404   5.046   5.194   1.053 -0.6798  0.7412 -0.8522
10663TIP3    H253405   5.066   5.088   0.947  0.7404 -1.6779  1.6822
10664TIP3   OH253406   3.206   2.100  13.112  0.0066  0.1430 -0.4477
10664TIP3    H153407   3.249   2.172  13.066  2.2480 -1.6307 -1.2876
10664TIP3    H253408   3.252   2.094  13.196 -0.7689  0.2144 -0.0046
10665TIP3   OH253409   5.434   3.386  14.175 -0.0702 -0.2894 -0.0312
10665TIP3    H153410   5.430   3.392  14.080  1.0421  2.3284 -0.0026
10665TIP3    H253411   5.393   3.302  14.196 -1.4287 -0.3963 -2.7218
10666TIP3   OH253412   3.037   6.102  15.332  0.1835 -0.6149  0.0469
10666TIP3    H153413   3.113   6.056  15.367  0.1017 -0.1003  0.9117
10666TIP3    H253414   3.009   6.160  15.402 -0.1116  0.2923 -0.7916
10667TIP3   OH253415   2.682   3.263   0.014 -0.0175  0.3461 -0.0307
10667TIP3    H153416   2.626   3.329   0.056 -1.5576 -1.3553  0.7553
10667TIP3    H253417   2.644   3.252  -0.073 -0.3050 -0.0922  0.1456
10668TIP3   OH253418   3.494   3.902  15.987 -0.1927 -0.3841  0.6988
10668TIP3    H153419   3.398   3.909  15.990 -0.2224 -0.9136  2.0733
10668TIP3    H253420   3.524   3.975  16.042  0.3456  1.3655 -1.7483
10669TIP3   OH253421   2.134   5.160   5.713 -0.1777  0.5253 -0.4154
10669TIP3    H153422   2.067   5.092   5.706 -0.5717  0.7998  0.5468
10669TIP3    H253423   2.104   5.216   5.785  0.7254  1.0598 -0.4388
10670TIP3   OH253424   2.919   6.671   5.713  0.2969 -0.0436  0.5589
10670TIP3    H153425   2.873   6.588   5.699  1.1007 -0.5240  0.7142
10670TIP3    H253426   2.989   6.650   5.775  1.5497  0.3576 -0.6563
10671TIP3   OH253427   5.085   1.897  10.950  0.1740  0.7294  0.4810
10671TIP3    H153428   5.045   1.908  10.863  0.3712  1.7315  0.5024
10671TIP3    H253429   5.109   1.805  10.954 -0.2584  0.5702 -0.3511
10672TIP3   OH253430   5.022   2.010   5.317 -0.2734  0.1007 -0.2213
10672TIP3    H153431   5.020   2.077   5.249  1.9916  0.6018  0.1401
10672TIP3    H253432   4.997   1.929   5.272  2.2193  0.2009 -1.9792
10673TIP3   OH253433   4.432   1.178   2.734  0.5912  0.3819  0.1004
10673TIP3    H153434   4.378   1.106   2.767 -0.2121 -0.0389 -1.9702
10673TIP3    H253435   4.370   1.245   2.708  1.0825  0.2601 -1.4870
10674TIP3   OH253436   4.963   2.126  13.651 -0.5346 -0.1997  0.3013
10674TIP3    H153437   5.030   2.059  13.663 -0.1037  0.5901  3.0210
10674TIP3    H253438   4.883   2.078  13.630 -0.0328 -1.5141  1.2927
10675TIP3   OH253439   2.901   5.307   3.832 -0.2297 -0.0392  0.8606
10675TIP3    H153440   2.931   5.351   3.752 -0.2715  0.4450  1.1111
10675TIP3    H253441   2.820   5.352   3.855 -1.9944 -2.2202 -0.5945
10676TIP3   OH253442   4.950   6.237  16.955 -0.2530  0.4513 -0.2980
10676TIP3    H153443   4.905   6.182  16.891  0.9408 -1.5327  0.4818
10676TIP3    H253444   5.009   6.292  16.903  0.1576 -0.6081 -0.9906
10677TIP3   OH253445   2.430   0.464   1.565 -0.4579 -0.1798 -0.1291
10677TIP3    H153446   2.365   0.475   1.496 -1.3688  1.6396  0.9126
10677TIP3    H253447   2.478   0.385   1.542 -0.9388  0.1908 -2.6404
10678TIP3   OH253448   0.771   0.945   0.632 -0.5859 -0.1006 -0.1586
10678TIP3    H153449   0.849   0.904   0.596  0.1276  0.2272  0.9563
10678TIP3    H253450   0.804   1.019   0.683 -1.7410  0.9956 -0.9349
10679TIP3   OH253451   3.505   4.795   4.604 -0.2201  0.0006 -0.5748
10679TIP3    H153452   3.567   4.744   4.656 -1.1603 -0.1451  0.4434
10679TIP3    H253453   3.429   4.805   4.661 -1.3644 -0.3093 -1.9826
10680TIP3   OH253454   3.478   4.927  16.003 -0.1732  0.2250 -0.5930
10680TIP3    H153455   3.414   4.997  15.992  0.4957  1.0678  0.7264
10680TIP3    H253456   3.427   4.852  16.031 -0.6200  0.8650  0.3544
10681TIP3   OH253457   3.787   3.478   4.564 -0.0510 -0.6157  0.2819
10681TIP3    H153458   3.869   3.450   4.524  0.6046  1.0716  0.3671
10681TIP3    H253459   3.810   3.498   4.655 -0.1276  1.5739 -0.1415
10682TIP3   OH253460   0.304   1.817   3.123  0.3329 -0.0487  0.1420
10682TIP3    H153461   0.246   1.748   3.091  0.5028 -0.5242  0.8495
10682TIP3    H253462   0.392   1.791   3.094  0.1015  1.3128 -2.0535
10683TIP3   OH253463   5.290   5.868  10.988 -0.2498 -0.6356 -0.0064
10683TIP3    H153464   5.309   5.898  11.077  0.1836 -1.0322  0.0372
10683TIP3    H253465   5.345   5.922  10.932  0.4154 -1.2233  0.0611
10684TIP3   OH253466   0.322   6.468  15.875  0.6339  0.2936  0.3974
10684TIP3    H153467   0.402   6.454  15.824 -0.5068 -2.9730 -0.6945
10684TIP3    H253468   0.313   6.389  15.928 -1.5536  0.8580  0.9654
10685TIP3   OH253469   4.785   5.915   3.844 -0.9163  0.4397 -0.6041
10685TIP3    H153470   4.779   6.010   3.856  1.1631  0.6000 -0.4987
10685TIP3    H253471   4.797   5.904   3.750  0.8127  0.4522 -0.4127
10686TIP3   OH253472   3.151   1.791  13.292 -0.4118  0.4324 -0.3923
10686TIP3    H153473   3.211   1.736  13.241  0.5725  2.5312 -1.6649
10686TIP3    H253474   3.076   1.805  13.235 -1.5074 -0.9872  0.6309
10687TIP3   OH253475   0.180   4.997  13.503 -0.1110 -0.3272 -0.7009
10687TIP3    H153476   0.218   5.069  13.553 -1.9709 -1.1345  2.1284
10687TIP3    H253477   0.255   4.955  13.461  1.5022  0.9622  0.7115
10688TIP3   OH253478   1.828   0.806   0.600 -0.3820 -0.2234 -0.0420
10688TIP3    H153479   1.889   0.866   0.557 -0.5461  0.0834  0.1409
10688TIP3    H253480   1.863   0.795   0.688 -0.9805  0.5525  0.3092
10689TIP3   OH253481   6.200   1.066  12.684 -0.0878 -0.5592 -0.3164
10689TIP3    H153482   6.185   1.160  12.688  2.1922 -0.1788  1.6261
10689TIP3    H253483   6.259   1.053  12.610  2.5976  0.1506  1.5546
10690TIP3   OH253484   3.114   0.993   0.097  0.1213 -0.3705 -0.0976
10690TIP3    H153485   3.142   0.915   0.145 -0.0113  0.3312  1.1437
10690TIP3    H253486   3.020   0.980   0.082 -0.2814  0.3262  1.6576
10691TIP3   OH253487   1.885   2.300   4.934 -0.0026 -0.5720  0.0643
10691TIP3    H153488   1.869   2.228   4.995 -1.0680  0.8403  1.5186
10691TIP3    H253489   1.889   2.378   4.988 -0.3293  0.6750 -1.6110
10692TIP3   OH253490   1.991   3.944   1.986  0.6419 -0.7691 -0.0129
10692TIP3    H153491   2.039   3.941   1.904  2.8538  1.8111  1.0230
10692TIP3    H253492   1.936   4.022   1.979  0.0093 -1.1439  0.5786
10693TIP3   OH253493   3.556   2.384  13.052 -0.0218  0.2711 -0.2261
10693TIP3    H153494   3.617   2.319  13.088 -0.5561  0.8697  1.9004
10693TIP3    H253495   3.478   2.334  13.030 -0.0317  0.0164  0.3702
10694TIP3   OH253496   4.597   0.976   0.840  0.2483 -0.2770  0.2861
10694TIP3    H153497   4.505   0.999   0.827  0.1955 -1.4297 -1.8547
10694TIP3    H253498   4.640   1.060   0.854 -1.0115  0.3749  0.4298
10695TIP3   OH253499   5.728   6.273   3.748  0.0216 -0.1677  0.1859
10695TIP3    H153500   5.663   6.309   3.688 -0.5564 -1.3572  0.0688
10695TIP3    H253501   5.686   6.276   3.834 -0.5066 -1.6189  0.0024
10696TIP3   OH253502   3.440   0.003  15.782 -0.2522 -0.4817 -0.2364
10696TIP3    H153503   3.430  -0.032  15.693 -1.5704 -0.2698 -0.1949
10696TIP3    H253504   3.533  -0.006  15.801  0.2121  0.2430 -1.9660
10697TIP3   OH253505   1.301   4.530  16.694 -0.0606  0.4179  0.2162
10697TIP3    H153506   1.388   4.493  16.714  0.3487 -0.0388 -2.1457
10697TIP3    H253507   1.243   4.454  16.692 -0.0452  0.4230 -0.5109
10698TIP3   OH253508   4.862   0.121   1.993  0.3512 -0.8124  0.3046
10698TIP3    H153509   4.919   0.192   2.024  0.7121 -1.2430  0.6398
10698TIP3    H253510   4.922   0.057   1.955 -0.0582 -0.4636 -0.9811
10699TIP3   OH253511   6.209   6.367  15.461 -0.0459  0.2161  0.5565
10699TIP3    H153512   6.200   6.410  15.377  0.6487 -0.4544  0.1230
10699TIP3    H253513   6.141   6.406  15.516 -1.7516 -0.6564 -0.8585
10700TIP3   OH253514   6.767   2.121   3.587  0.0518 -0.2228  0.2252
10700TIP3    H153515   6.682   2.119   3.632 -0.4970 -0.5820 -0.7862
10700TIP3    H253516   6.767   2.204   3.540 -0.8931 -1.3186 -1.8506
10701TIP3   OH253517   4.440   6.254   3.884  0.2064 -0.3614 -0.1208
10701TIP3    H153518   4.489   6.186   3.929  0.9567 -0.1402 -0.5753
10701TIP3    H253519   4.416   6.216   3.800  1.1880  0.1212 -0.6467
10702TIP3   OH253520   4.927   4.281  16.110  0.2740 -0.1589  0.3551
10702TIP3    H153521   4.939   4.290  16.205 -1.5836  0.4121  0.5794
10702TIP3    H253522   4.844   4.235  16.101  0.0760  0.4326 -0.9950
10703TIP3   OH253523   1.968   0.049   2.930 -0.1995 -0.4405  0.5695
10703TIP3    H153524   1.937   0.040   2.840  0.4231 -1.5648  0.4514
10703TIP3    H253525   2.051   0.095   2.922 -0.7027  0.5102  0.6853
10704TIP3   OH253526   1.932   5.709   6.045 -0.7653 -0.1702 -0.5334
10704TIP3    H153527   1.905   5.625   6.007  2.9769 -1.1172 -1.5116
10704TIP3    H253528   1.868   5.772   6.013 -2.2527 -2.2478 -1.8720
10705TIP3   OH253529   0.461   6.370   3.138 -0.3473  0.2932  0.1004
10705TIP3    H153530   0.468   6.319   3.057 -0.4200  0.7401 -0.1950
10705TIP3    H253531   0.527   6.439   3.128 -0.0084  0.0573  0.6483
10706TIP3   OH253532   0.382   1.451   0.347 -0.0368 -0.1324 -0.5375
10706TIP3    H153533   0.476   1.463   0.337 -0.2668  1.3028 -1.2510
10706TIP3    H253534   0.362   1.376   0.291  0.8376 -1.2043  0.5517
10707TIP3   OH253535   3.093   3.795   5.950  0.5760  0.6269  0.0875
10707TIP3    H153536   3.048   3.771   5.869  2.8086  1.3507 -1.4688
10707TIP3    H253537   3.072   3.887   5.963  1.6225  0.9991 -0.7080
10708TIP3   OH253538   1.154   2.354  14.909  0.3944  0.0886 -0.2600
10708TIP3    H153539   1.181   2.263  14.898 -0.3858 -0.0953 -0.7579
10708TIP3    H253540   1.162   2.372  15.002 -0.5290 -0.8402  0.0048
10709TIP3   OH253541   0.867   2.533   3.286 -0.0644  0.5654 -0.8818
10709TIP3    H153542   0.934   2.597   3.307 -0.7856  1.1746 -0.3605
10709TIP3    H253543   0.784   2.579   3.302 -0.7567 -1.8512  4.4012
10710TIP3   OH253544   6.058   0.251  13.418 -0.3161 -0.8717 -0.3698
10710TIP3    H153545   6.117   0.184  13.452  0.6322 -1.0971 -2.3299
10710TIP3    H253546   5.973   0.208  13.413 -0.6418 -0.6745  2.0714
10711TIP3   OH253547   2.567   4.288   1.953  0.1844  0.2807  0.4043
10711TIP3    H153548   2.571   4.308   1.859  0.4808  1.4722  0.6557
10711TIP3    H253549   2.589   4.371   1.996 -0.4177 -0.1265  1.5367
10712TIP3   OH253550   1.115   6.717  16.650 -0.3080  0.0244  0.1754
10712TIP3    H153551   1.147   6.682  16.567  0.9917 -0.6364  0.9273
10712TIP3    H253552   1.185   6.774  16.681 -1.2427  1.1516  0.3129
10713TIP3   OH253553   5.789   4.151  14.369 -0.5025  0.1619  0.2171
10713TIP3    H153554   5.802   4.202  14.449  0.0537  0.6481 -0.1732
10713TIP3    H253555   5.877   4.118  14.348 -1.1688 -2.9136  1.7259
10714TIP3   OH253556   5.503   4.777  11.834  0.0826 -0.5450  0.0725
10714TIP3    H153557   5.505   4.686  11.804 -0.9733 -1.3904  2.3274
10714TIP3    H253558   5.435   4.818  11.781  1.1722 -0.7758 -1.5908
10715TIP3   OH253559   3.931   2.211   4.155 -0.2358  0.0948  0.2194
10715TIP3    H153560   3.868   2.210   4.227 -1.2743  1.2341 -0.6240
10715TIP3    H253561   3.907   2.136   4.100 -1.3462  0.9073 -0.4574
10716TIP3   OH253562   2.005   6.316   4.600  0.0738 -0.0550  0.2377
10716TIP3    H153563   2.071   6.281   4.659 -1.3278  0.8274  2.4580
10716TIP3    H253564   2.054   6.357   4.529  1.8703 -0.0793  1.4213
10717TIP3   OH253565   4.598   5.635   1.517  0.2824 -0.3779  0.0461
10717TIP3    H153566   4.544   5.557   1.508  2.7126 -1.9534 -3.0705
10717TIP3    H253567   4.559   5.698   1.457  1.8813 -1.6644 -2.5391
10718TIP3   OH253568   5.538   1.692   3.064  0.5316 -0.3737  0.2232
10718TIP3    H153569   5.595   1.751   3.014 -0.6944  0.0487 -0.7282
10718TIP3    H253570   5.471   1.664   3.002 -0.6083 -0.4413  1.4175
10719TIP3   OH253571   3.687   5.533   3.669 -0.5346 -0.0051 -0.4818
10719TIP3    H153572   3.766   5.492   3.703 -0.2947  0.2290 -0.7552
10719TIP3    H253573   3.629   5.541   3.745 -0.0632  0.3747 -0.1578
10720TIP3   OH253574   4.717   2.706  14.286  0.6551  0.2300 -0.2125
10720TIP3    H153575   4.663   2.733  14.361 -0.3277  1.9557 -1.4623
10720TIP3    H253576   4.806   2.735  14.309  0.2976  1.0839  0.1495
10721TIP3   OH253577   2.576   6.656   4.105  0.3367  0.4272  0.3444
10721TIP3    H153578   2.501   6.709   4.076 -0.0679 -0.2332  0.1679
10721TIP3    H253579   2.591   6.684   4.196 -2.2684 -1.7313  1.5826
10722TIP3   OH253580   4.492   3.855   2.794  0.4005 -0.1770  0.1455
10722TIP3    H153581   4.401   3.824   2.796 -0.1640  1.3828 -0.0956
10722TIP3    H253582   4.503   3.904   2.875  1.2279 -0.8490  0.4555
10723TIP3   OH253583   0.647   4.978  15.763 -0.3121 -0.5440  0.1625
10723TIP3    H153584   0.709   5.032  15.811 -0.1156  1.0632 -1.7860
10723TIP3    H253585   0.561   5.006  15.796 -0.1339 -2.0650  2.1333
10724TIP3   OH253586   5.814   4.865   4.719 -0.5694 -0.1850  0.1003
10724TIP3    H153587   5.904   4.898   4.714 -1.0993  1.3049  0.0886
10724TIP3    H253588   5.822   4.772   4.696  0.9700 -0.0983  0.1754
10725TIP3   OH253589   5.340   4.316  15.125  0.2642  0.6142  0.2498
10725TIP3    H153590   5.278   4.312  15.198 -1.6332  1.5512 -1.2407
10725TIP3    H253591   5.380   4.229  15.123 -2.9223 -0.9722 -0.3181
10726TIP3   OH253592   3.606   5.740  16.432 -0.3225  0.6904  0.1773
10726TIP3    H153593   3.644   5.656  16.408  0.3704  1.0141  0.1339
10726TIP3    H253594   3.524   5.717  16.476 -0.6280  0.0228 -0.6951
10727TIP3   OH253595   3.991   1.175  14.903 -0.1566 -0.0158  0.3049
10727TIP3    H153596   4.022   1.102  14.850 -0.1076  0.7521 -0.7567
10727TIP3    H253597   4.017   1.153  14.992  0.6283 -0.8818 -0.1243
10728TIP3   OH253598   4.829   1.011  13.628  0.0157  0.9528 -0.5670
10728TIP3    H153599   4.799   0.921  13.622  0.2781  0.8841 -0.8987
10728TIP3    H253600   4.833   1.041  13.537  0.0322  1.2635 -0.4662
10729TIP3   OH253601   1.602   1.944   0.036  0.1520  0.7212 -0.0963
10729TIP3    H153602   1.523   1.889   0.043 -0.1982  1.0812 -1.0777
10729TIP3    H253603   1.656   1.899  -0.029  0.7542  0.4966  0.5484
10730TIP3   OH253604   2.870   6.619  14.230  0.0924 -0.0880  0.0808
10730TIP3    H153605   2.832   6.670  14.158  0.1972 -1.6415 -1.1334
10730TIP3    H253606   2.963   6.644  14.231 -0.0157  0.3193  0.0246
10731TIP3   OH253607   4.849   0.802   6.300 -0.2287 -0.0318 -0.7305
10731TIP3    H153608   4.790   0.727   6.295 -0.1345 -0.1364 -0.2804
10731TIP3    H253609   4.794   0.872   6.335 -0.7906  0.6033 -2.7245
10732TIP3   OH253610   0.051   2.393  11.557  0.4403  0.5771  0.3374
10732TIP3    H153611   0.129   2.340  11.573  0.1685 -0.0753 -0.4404
10732TIP3    H253612   0.079   2.458  11.493  0.5197  0.7704  0.5672
10733TIP3   OH253613   5.762   5.465  11.509  0.2506 -0.2917  0.2760
10733TIP3    H153614   5.742   5.451  11.601  0.3407  1.0216  0.5050
10733TIP3    H253615   5.692   5.418  11.463  0.2582 -1.0335  0.9938
10734TIP3   OH253616   3.934   0.350   5.131 -0.0671 -1.1170  0.2301
10734TIP3    H153617   3.889   0.405   5.195 -1.5804 -0.2499 -1.4900
10734TIP3    H253618   3.865   0.297   5.091  0.6888 -1.0643 -1.2186
10735TIP3   OH253619   2.033   5.934   2.377 -0.3558  0.2947 -0.6832
10735TIP3    H153620   2.030   5.988   2.298 -3.2289 -0.6188 -1.3230
10735TIP3    H253621   2.119   5.893   2.375  0.1339  1.3038 -2.6465
10736TIP3   OH253622   5.636   2.713   3.246 -0.1064  0.3162  0.0717
10736TIP3    H153623   5.681   2.754   3.320  1.7601  0.1349 -0.8957
10736TIP3    H253624   5.704   2.704   3.179 -1.5184 -0.3682 -1.3332
10737TIP3   OH253625   2.497   1.062  11.269 -0.2109  0.4886 -1.0114
10737TIP3    H153626   2.429   1.023  11.215 -0.5659 -0.9932  0.4223
10737TIP3    H253627   2.449   1.102  11.342  0.3194  1.5117 -1.2083
10738TIP3   OH253628   5.302   3.988  14.534 -0.0428  0.1554 -0.0300
10738TIP3    H153629   5.215   3.950  14.521 -0.6229  1.1912  0.7326
10738TIP3    H253630   5.350   3.963  14.454 -0.3457 -2.1932  0.4403
10739TIP3   OH253631   0.973   4.626   5.370 -0.0037  0.0684 -0.2541
10739TIP3    H153632   0.953   4.611   5.277  0.7793 -0.7959 -0.3042
10739TIP3    H253633   1.064   4.658   5.369 -0.6961  2.1522  0.0773
10740TIP3   OH253634   4.139   6.202  11.559 -0.0288 -0.5185 -0.0291
10740TIP3    H153635   4.083   6.277  11.539 -0.3615 -0.5644  0.6876
10740TIP3    H253636   4.193   6.231  11.632 -0.4490 -1.1107  0.5248
10741TIP3   OH253637   1.967   1.066   2.543  0.1168  0.7877 -0.0907
10741TIP3    H153638   1.888   1.100   2.585  0.4044  1.2599  0.0805
10741TIP3    H253639   1.964   0.972   2.558 -1.0279  0.6215 -1.1067
10742TIP3   OH253640   2.441   2.596   5.387  0.0260  0.0053 -0.5687
10742TIP3    H153641   2.517   2.617   5.332  1.2148  0.3976  1.1529
10742TIP3    H253642   2.474   2.534   5.452 -1.2496 -0.1930 -0.0787
10743TIP3   OH253643   3.942   6.388  16.379  0.1229  0.4826 -0.0428
10743TIP3    H153644   4.022   6.403  16.329 -0.3563  3.5227 -0.1438
10743TIP3    H253645   3.944   6.455  16.447 -0.6749 -1.6600  2.2283
10744TIP3   OH253646   5.263   1.283  16.584  0.5753 -0.1689  0.1620
10744TIP3    H153647   5.344   1.244  16.618  1.2324  0.0882 -1.0605
10744TIP3    H253648   5.284   1.376  16.572 -0.5202  0.3223  1.6371
10745TIP3   OH253649   4.872   5.637  12.425 -0.4164  0.7678  0.1642
10745TIP3    H153650   4.921   5.668  12.348 -4.0572  1.1604 -2.2550
10745TIP3    H253651   4.864   5.542  12.410 -0.2435  0.6727  0.6609
10746TIP3   OH253652   4.240   4.604   5.022  0.4013  0.3917  0.0312
10746TIP3    H153653   4.173   4.669   4.998  0.3815  1.2194  2.0990
10746TIP3    H253654   4.193   4.541   5.077  1.1791  0.6773  1.0496
10747TIP3   OH253655   2.584   1.927   3.887  0.8745  0.0040  0.0045
10747TIP3    H153656   2.549   2.016   3.883  0.7777 -0.0503 -0.4134
10747TIP3    H253657   2.533   1.884   3.955  0.2182 -0.0287 -0.4942
10748TIP3   OH253658   4.473   2.929   4.810 -0.1668 -0.4283  0.4960
10748TIP3    H153659   4.522   2.848   4.800  2.0459  0.6824  1.6013
10748TIP3    H253660   4.426   2.939   4.727 -1.1541 -3.1785  0.6201
10749TIP3   OH253661   1.848   0.622  11.991  1.0107 -0.2948  0.0531
10749TIP3    H153662   1.832   0.688  12.058  1.3209 -0.6655  0.4911
10749TIP3    H253663   1.775   0.560  11.999  0.4175  0.2778 -0.7217
10750TIP3   OH253664   3.202   3.583  15.103 -0.0182  0.2473 -0.7212
10750TIP3    H153665   3.208   3.544  15.191  0.7897  0.9160 -0.4645
10750TIP3    H253666   3.131   3.646  15.110  0.4465  0.7366 -0.3671
10751TIP3   OH253667   2.520   2.177  12.998 -0.0195 -0.0581 -0.1720
10751TIP3    H153668   2.497   2.254  13.049  0.2500 -1.7397  2.7405
10751TIP3    H253669   2.606   2.196  12.962 -1.9182  2.8601 -3.8708
10752TIP3   OH253670   0.351   4.929  16.514 -0.3979  0.6186 -0.5868
10752TIP3    H153671   0.420   4.863  16.520 -2.4024 -1.5917 -0.4491
10752TIP3    H253672   0.310   4.913  16.429 -2.3602  0.1115  0.3977
10753TIP3   OH253673   5.996   1.827   5.173 -0.2919 -0.1414  0.4996
10753TIP3    H153674   5.998   1.768   5.249 -1.8919 -0.5079  0.3032
10753TIP3    H253675   5.908   1.865   5.175  0.9807  3.0459  1.1620
10754TIP3   OH253676   4.436   5.910   5.770  0.3650  0.0611  0.0333
10754TIP3    H153677   4.438   5.837   5.832 -0.2673  0.3489  0.4086
10754TIP3    H253678   4.391   5.980   5.817 -1.4702 -0.1826 -1.2121
10755TIP3   OH253679   5.860   6.463  16.882 -0.0390  0.0969  0.2399
10755TIP3    H153680   5.816   6.460  16.967 -1.1914 -2.9395 -0.3484
10755TIP3    H253681   5.923   6.535  16.890 -1.0532  0.7867  3.1571
10756TIP3   OH253682   1.047   5.640  15.502  0.6086  0.2561  0.4927
10756TIP3    H153683   1.088   5.674  15.582  2.2088 -0.3286 -0.0539
10756TIP3    H253684   1.119   5.631  15.439 -0.4838 -0.0831 -0.7578
10757TIP3   OH253685   4.194   4.432   1.950  0.1700 -0.4313  0.4110
10757TIP3    H153686   4.289   4.423   1.945  0.0506 -1.4187 -0.3958
10757TIP3    H253687   4.160   4.347   1.923 -0.9584  0.0646  0.1998
10758TIP3   OH253688   0.864   6.520  16.684  0.3011  0.1876  0.2653
10758TIP3    H153689   0.898   6.545  16.598  1.0639 -1.7981 -0.0654
10758TIP3    H253690   0.920   6.567  16.746  0.3201  0.9512 -0.3236
10759TIP3   OH253691   3.664   6.116   3.613  0.1466  0.2604 -0.9643
10759TIP3    H153692   3.613   6.150   3.540  0.7879  0.3652 -1.3660
10759TIP3    H253693   3.750   6.156   3.603  0.0787  0.7438  0.1866
10760TIP3   OH253694   3.282   4.522  16.076 -0.1977  0.1730 -0.0925
10760TIP3    H153695   3.203   4.483  16.115  0.1474  0.2845  0.7481
10760TIP3    H253696   3.255   4.549  15.989 -1.2116  0.5665  0.3242
10761TIP3   OH253697   0.743   6.472   3.680  0.9013  0.2083  0.4394
10761TIP3    H153698   0.715   6.517   3.600  0.3115  0.9919  1.0823
10761TIP3    H253699   0.682   6.398   3.688  0.6804  0.3873  0.4122
10762TIP3   OH253700   3.530   5.534   1.336 -0.5505 -0.1708 -0.2360
10762TIP3    H153701   3.489   5.472   1.396 -1.3987 -0.0593 -0.6838
10762TIP3    H253702   3.521   5.494   1.250  1.8431 -0.9650 -0.2068
10763TIP3   OH253703   3.832   5.073  15.120  0.5329  0.0116  0.1984
10763TIP3    H153704   3.878   5.096  15.201 -0.2470 -2.0162  1.3015
10763TIP3    H253705   3.787   5.153  15.094  1.8241  1.0459  1.0651
10764TIP3   OH253706   6.282   2.293   3.697  0.4429  0.4884 -0.2413
10764TIP3    H153707   6.193   2.270   3.722  0.8687 -0.4588  0.5004
10764TIP3    H253708   6.273   2.366   3.636 -0.9744 -1.4031 -2.4206
10765TIP3   OH253709   1.342   3.144  16.570 -0.4579 -0.4887 -0.6926
10765TIP3    H153710   1.246   3.136  16.567 -0.4414 -0.7946 -0.4476
10765TIP3    H253711   1.358   3.238  16.570 -0.8457 -0.3566  1.7796
10766TIP3   OH253712   0.509   6.194  14.539 -0.1904 -0.3161  0.1358
10766TIP3    H153713   0.599   6.188  14.571 -0.4309 -2.6941  0.4823
10766TIP3    H253714   0.457   6.214  14.617 -0.1493 -0.6179  0.2415
10767TIP3   OH253715   1.093   4.456  17.069  0.4943  0.1350  0.6925
10767TIP3    H153716   1.041   4.522  17.023  1.3597 -0.5527 -1.3529
10767TIP3    H253717   1.029   4.408  17.122 -0.4726  1.1835  0.5175
10768TIP3   OH253718   1.355   2.849  12.608 -0.6404  0.1625  0.2121
10768TIP3    H153719   1.271   2.808  12.628 -0.6329  0.3233  0.5787
10768TIP3    H253720   1.348   2.937  12.643  0.1948 -0.2708  1.5339
10769TIP3   OH253721   0.027   1.754   5.374  0.2804 -0.2506  0.3890
10769TIP3    H153722   0.103   1.806   5.349 -0.7778  1.2819  0.2418
10769TIP3    H253723  -0.000   1.710   5.293 -0.8859  1.7491 -0.3634
10770TIP3   OH253724   3.013   2.892  12.389  0.0668 -0.0725 -0.2077
10770TIP3    H153725   2.977   2.905  12.301  0.8038 -1.2935 -0.7183
10770TIP3    H253726   3.075   2.964  12.401 -0.4553  0.4243 -0.4512
10771TIP3   OH253727   2.832   1.025  15.784 -0.4130 -0.4744  0.0304
10771TIP3    H153728   2.750   1.043  15.738 -0.6070 -1.4565 -0.0369
10771TIP3    H253729   2.899   1.025  15.716 -0.6320 -1.4609 -0.2036
10772TIP3   OH253730   1.293   0.980   3.488 -0.0870  0.4210  0.4722
10772TIP3    H153731   1.302   0.956   3.396 -1.1012  0.8454  0.2442
10772TIP3    H253732   1.203   1.011   3.496 -0.2890 -0.4013  1.7932
10773TIP3   OH253733   5.000   1.966   2.851 -0.1243 -0.7788 -0.2087
10773TIP3    H153734   4.909   1.945   2.874 -0.0403  0.6302  1.7315
10773TIP3    H253735   5.051   1.937   2.926  0.9054 -0.6239 -0.8284
10774TIP3   OH253736   0.075   4.641   1.684  0.0200 -0.2672 -0.7077
10774TIP3    H153737  -0.019   4.628   1.673 -0.0999 -2.0665  1.5661
10774TIP3    H253738   0.083   4.680   1.771  1.4138 -1.4101 -0.2883
10775TIP3   OH253739   6.665   1.734  14.746  0.1492 -0.4311  0.2029
10775TIP3    H153740   6.615   1.783  14.681  0.4383 -1.5069 -0.8583
10775TIP3    H253741   6.752   1.773  14.743 -0.2159  0.5031  1.0408
10776TIP3   OH253742   6.146   4.437  16.815  0.3922 -0.4935 -0.2291
10776TIP3    H153743   6.239   4.417  16.812 -0.0245 -2.6988 -0.0740
10776TIP3    H253744   6.135   4.489  16.895  1.5091  0.1232 -0.4557
10777TIP3   OH253745   1.243   4.935  13.879 -0.1771  0.6478  0.1822
10777TIP3    H153746   1.227   4.967  13.791 -0.7737  1.6035  0.6128
10777TIP3    H253747   1.270   4.844  13.868  0.6465  1.0208 -1.0326
10778TIP3   OH253748   2.181   4.141   0.884 -0.3771  0.2508  0.0245
10778TIP3    H153749   2.155   4.062   0.931 -0.4475  0.4947  0.3989
10778TIP3    H253750   2.276   4.146   0.895 -0.4725  0.6888  0.7559
10779TIP3   OH253751   5.278   1.495   6.153 -0.5986  0.2109 -0.0260
10779TIP3    H153752   5.232   1.564   6.105  0.5117 -0.8937 -2.8963
10779TIP3    H253753   5.210   1.454   6.207 -1.9551  1.4775 -0.6909
10780TIP3   OH253754   0.915   3.487  17.117 -0.2069 -0.2547  0.5038
10780TIP3    H153755   0.979   3.417  17.110  0.0242 -0.0325  0.4127
10780TIP3    H253756   0.931   3.525  17.204  0.0628  0.0739  0.3109
10781TIP3   OH253757   3.241   3.411  11.930  0.0958  0.2259  0.4692
10781TIP3    H153758   3.192   3.355  11.870  1.9245 -0.3046 -0.5963
10781TIP3    H253759   3.252   3.358  12.009 -2.6813  1.0757  1.5455
10782TIP3   OH253760   2.851   4.494   5.883  0.1792  0.0368 -0.1446
10782TIP3    H153761   2.908   4.524   5.953 -0.2782  1.3237 -0.3057
10782TIP3    H253762   2.783   4.443   5.927  0.2208  0.3459  0.2815
10783TIP3   OH253763   2.296   4.774   5.806  0.0060  0.1567 -0.0559
10783TIP3    H153764   2.300   4.849   5.866  0.0120  0.1354 -0.0293
10783TIP3    H253765   2.216   4.789   5.755 -1.0987 -0.8206  1.2923
10784TIP3   OH253766   0.576   0.451   6.778  0.1906 -0.1875  0.2061
10784TIP3    H153767   0.584   0.378   6.717  0.6591  0.3700 -0.4214
10784TIP3    H253768   0.661   0.494   6.775  0.8948 -1.2369  2.7097
10785TIP3   OH253769   0.862   2.231  13.725 -0.4569 -0.0844  0.0155
10785TIP3    H153770   0.773   2.243  13.757 -0.5157 -0.4506 -0.0166
10785TIP3    H253771   0.888   2.144  13.756  0.0380  0.1864  0.3842
10786TIP3   OH253772   1.509   4.760  11.663  0.4883  0.0967 -0.1367
10786TIP3    H153773   1.482   4.852  11.672  2.4152  0.7283 -0.3926
10786TIP3    H253774   1.598   4.765  11.629  0.3912 -1.9044 -0.7816
10787TIP3   OH253775   3.194   0.649   0.523  0.5146 -0.0801 -0.1937
10787TIP3    H153776   3.179   0.740   0.551  0.5007 -0.1748  0.1076
10787TIP3    H253777   3.107   0.614   0.508  0.5519  0.2592 -1.2941
10788TIP3   OH253778   1.830   4.623  14.296 -0.2119  0.4328 -0.2364
10788TIP3    H153779   1.921   4.606  14.321 -0.2359  0.9837  0.2456
10788TIP3    H253780   1.793   4.536  14.283  0.0844  0.1531  0.6801
10789TIP3   OH253781   0.429   1.441   4.605 -0.1786 -0.0773  0.6197
10789TIP3    H153782   0.475   1.362   4.632 -1.3571 -0.3584  1.9017
10789TIP3    H253783   0.371   1.413   4.534  0.3897 -0.0660  0.1439
10790TIP3   OH253784   0.101   0.666  13.778  0.0338  0.0514  0.1144
10790TIP3    H153785   0.095   0.577  13.742  0.4739  0.1713 -0.2699
10790TIP3    H253786   0.011   0.691  13.797  0.0124 -1.1171  1.7964
10791TIP3   OH253787   0.417   5.136  12.647 -0.5629  0.5800 -0.1216
10791TIP3    H153788   0.479   5.064  12.664 -0.4883  0.6784  0.0297
10791TIP3    H253789   0.355   5.100  12.584 -1.4885 -0.1648  1.1643
10792TIP3   OH253790   1.278   1.413  12.666 -0.0454  0.0490 -0.2826
10792TIP3    H153791   1.265   1.408  12.571 -2.5364 -2.6480  0.0494
10792TIP3    H253792   1.352   1.355  12.683 -0.3075 -0.3572 -0.4996
10793TIP3   OH253793   6.685   6.540   5.108  0.2806  0.5906  0.1614
10793TIP3    H153794   6.698   6.451   5.075  0.5463  1.2197 -1.5000
10793TIP3    H253795   6.642   6.587   5.036 -2.0418  1.2445  1.8268
10794TIP3   OH253796   4.343   4.545  12.085  0.3123 -0.5531 -0.5710
10794TIP3    H153797   4.315   4.492  12.011  0.7543 -0.7204 -0.6173
10794TIP3    H253798   4.318   4.495  12.162  2.3684 -1.7144 -0.6043
10795TIP3   OH253799   3.674   4.525  14.673  0.3206  0.2652  0.2440
10795TIP3    H153800   3.670   4.616  14.703  0.8963  0.1488  0.6899
10795TIP3    H253801   3.758   4.493  14.705  0.0505 -0.4761  0.2227
10796TIP3   OH253802   4.856   3.192  14.303  0.0357 -0.0263 -0.4912
10796TIP3    H153803   4.890   3.251  14.370  1.3301  0.2624 -1.3775
10796TIP3    H253804   4.931   3.173  14.247 -0.3730 -2.4146 -0.3285
10797TIP3   OH253805   1.915   0.626   3.820 -0.3691  0.0721  1.1307
10797TIP3    H153806   1.965   0.706   3.837  3.8884 -2.0292  0.0003
10797TIP3    H253807   1.882   0.638   3.731 -1.1357  1.1491  1.5418
10798TIP3   OH253808   0.144   5.992  11.598 -0.2182  0.0868 -0.8674
10798TIP3    H153809   0.117   6.084  11.601  1.4638  0.6467 -1.6049
10798TIP3    H253810   0.223   5.992  11.545  1.9214 -1.2453  2.0547
10799TIP3   OH253811   5.263   2.805   0.831  0.0086 -0.1217  0.0200
10799TIP3    H153812   5.202   2.806   0.757 -0.3875 -1.3487  0.3002
10799TIP3    H253813   5.241   2.883   0.882 -1.6742 -0.7875  0.3786
10800TIP3   OH253814   5.259   1.977  14.459 -0.3436 -0.2607 -0.2965
10800TIP3    H153815   5.177   1.936  14.434 -0.6483  1.4733 -2.4905
10800TIP3    H253816   5.324   1.907  14.454 -1.0096 -0.8071 -2.8394
10801TIP3   OH253817   1.712   0.711   2.293  0.1315 -0.1518 -0.5882
10801TIP3    H153818   1.689   0.653   2.220 -0.5766 -2.4500  1.3392
10801TIP3    H253819   1.808   0.713   2.293  0.1729 -1.5378 -0.5551
10802TIP3   OH253820   6.237   1.364  11.362 -0.3382 -0.0823  0.4195
10802TIP3    H153821   6.263   1.362  11.270  0.3571  0.3485  0.5917
10802TIP3    H253822   6.187   1.284  11.375  1.7641 -1.5080  0.2912
10803TIP3   OH253823   5.254   3.525  12.359  0.1959 -0.4114  0.1520
10803TIP3    H153824   5.215   3.499  12.276  1.7514  0.5525 -0.9334
10803TIP3    H253825   5.204   3.603  12.385 -1.3553 -1.6215  1.0103
10804TIP3   OH253826   5.624   0.619   5.510 -0.3773 -0.0976 -0.0754
10804TIP3    H153827   5.686   0.653   5.574  0.4672 -2.8994  0.7458
10804TIP3    H253828   5.667   0.632   5.426 -0.2349  1.0638  0.1567
10805TIP3   OH253829   6.346   2.393  12.013 -0.5727  0.3347  0.2139
10805TIP3    H153830   6.262   2.438  12.022 -2.2523 -2.0103 -2.0928
10805TIP3    H253831   6.383   2.428  11.932 -1.0213 -1.0146 -0.6073
10806TIP3   OH253832   1.514   5.402   2.762  0.8295 -0.4993 -0.1920
10806TIP3    H153833   1.513   5.481   2.814 -0.7197 -0.3558 -0.3899
10806TIP3    H253834   1.551   5.335   2.820  0.5952 -0.0061  0.5368
10807TIP3   OH253835   0.864   4.310  10.891  0.5595 -0.2275 -0.3133
10807TIP3    H153836   0.806   4.234  10.884  2.1009 -1.3875 -1.2368
10807TIP3    H253837   0.945   4.282  10.848  1.7589  1.3741  0.7973
10808TIP3   OH253838   6.392   0.719   2.989 -0.5357 -0.1762 -0.4178
10808TIP3    H153839   6.339   0.645   2.960 -1.4209  0.6543 -0.9825
10808TIP3    H253840   6.335   0.768   3.048  0.4657 -0.5920  0.9544
10809TIP3   OH253841   0.873   3.000  14.527  0.1264 -0.5513  0.0422
10809TIP3    H153842   0.928   3.047  14.465 -0.5460 -0.5835 -0.5982
10809TIP3    H253843   0.789   3.048  14.525  0.5367  0.3545  2.0336
10810TIP3   OH253844   1.283   0.211  11.320  0.0566 -0.3197 -0.6502
10810TIP3    H153845   1.211   0.155  11.349 -1.6581  0.9203 -2.2897
10810TIP3    H253846   1.331   0.158  11.257  0.2835 -0.9638  0.0479
10811TIP3   OH253847   3.401   6.693  12.486  0.0393  0.3698  0.5248
10811TIP3    H153848   3.350   6.744  12.423  0.7966  2.3736  1.4657
10811TIP3    H253849   3.338   6.628  12.519 -0.9657  0.6681 -0.6981
10812TIP3   OH253850   3.069   3.872  13.885 -0.2223 -0.1901  0.6242
10812TIP3    H153851   3.042   3.783  13.861 -0.3828 -0.3512  1.3845
10812TIP3    H253852   3.136   3.895  13.819  1.7378 -1.8721  1.8917
10813TIP3   OH253853   3.382   3.473   5.797 -0.4043  0.2933 -0.4146
10813TIP3    H153854   3.447   3.497   5.732 -0.6602  0.3394 -0.6550
10813TIP3    H253855   3.319   3.418   5.750 -1.4910  1.6532 -0.6444
10814TIP3   OH253856   2.328   5.008   1.713 -0.4409 -0.3490  0.1950
10814TIP3    H153857   2.269   4.941   1.749 -0.6705 -0.1724  0.1481
10814TIP3    H253858   2.270   5.080   1.687 -0.4837 -1.1245 -2.0693
10815TIP3   OH253859   0.033   1.372   1.935 -0.5247  0.0432  0.2964
10815TIP3    H153860   0.026   1.467   1.947 -0.3136 -0.1595  2.5762
10815TIP3    H253861  -0.056   1.340   1.948 -0.7198 -0.0349 -1.1424
10816TIP3   OH253862   3.334   4.926  12.026  0.3054  0.0869 -1.1571
10816TIP3    H153863   3.425   4.951  12.007  0.1490  0.5356 -1.3241
10816TIP3    H253864   3.284   4.960  11.952 -0.3365  1.9657  0.0722
10817TIP3   OH253865   5.194   1.391   2.147  0.3671 -0.1660 -0.0253
10817TIP3    H153866   5.151   1.475   2.163  0.6161 -0.1959  0.8730
10817TIP3    H253867   5.280   1.399   2.190  0.2179 -1.0325  0.4558
10818TIP3   OH253868   6.741   5.981   4.282  0.0891  0.4997  0.5894
10818TIP3    H153869   6.746   6.065   4.328 -1.0819  0.4699  0.8079
10818TIP3    H253870   6.736   6.005   4.190 -2.0801  0.8064  0.7277
10819TIP3   OH253871   4.519   5.081  16.901 -0.0418  0.2896 -0.1892
10819TIP3    H153872   4.467   5.026  16.958 -0.1237 -0.8315 -1.3067
10819TIP3    H253873   4.522   5.166  16.945 -1.2555 -0.1512  0.7836
10820TIP3   OH253874   6.287   6.720   2.227  0.4355 -0.2747 -0.7593
10820TIP3    H153875   6.193   6.706   2.234  0.0918  2.1253  0.5162
10820TIP3    H253876   6.300   6.753   2.138 -0.3041  1.4218 -0.2832
10821TIP3   OH253877   3.498   1.416   4.371  0.3870 -1.4375 -0.3921
10821TIP3    H153878   3.589   1.445   4.367 -0.5567  2.1273  0.0415
10821TIP3    H253879   3.488   1.381   4.460  1.1231 -0.8642 -0.0630
10822TIP3   OH253880   0.136   2.345  15.644 -0.1276  0.5758  0.3006
10822TIP3    H153881   0.102   2.288  15.713 -0.0782  1.7051  1.2710
10822TIP3    H253882   0.058   2.379  15.600 -0.1649  0.2483  0.1058
10823TIP3   OH253883   5.531   4.936   5.219 -0.3856  0.7988 -0.8659
10823TIP3    H153884   5.454   4.970   5.172 -1.5194 -0.8050 -0.2537
10823TIP3    H253885   5.562   4.863   5.166 -1.7243 -1.0813  0.7726
10824TIP3   OH253886   2.546   6.074  15.462 -0.4554  0.0616 -0.0710
10824TIP3    H153887   2.601   6.151  15.478  1.1792 -1.2521  0.9336
10824TIP3    H253888   2.513   6.050  15.548  1.5011 -2.0567  0.1944
10825TIP3   OH253889   6.725   5.114   1.777 -0.0744 -0.0192  0.3433
10825TIP3    H153890   6.770   5.173   1.837 -2.5070 -0.2955  2.6034
10825TIP3    H253891   6.659   5.169   1.735  0.1265 -0.3465 -0.4237
10826TIP3   OH253892   0.023   0.718   0.693  0.4155 -0.6409  0.1132
10826TIP3    H153893  -0.063   0.759   0.686  0.9233  0.4520 -0.1138
10826TIP3    H253894   0.024   0.678   0.779 -0.0350  0.0645  0.4574
10827TIP3   OH253895   6.141   0.543  16.385 -0.2674  0.3482 -0.5187
10827TIP3    H153896   6.069   0.589  16.428 -0.6686  0.6530 -1.4783
10827TIP3    H253897   6.176   0.606  16.323 -0.2138 -0.3200 -1.1891
10828TIP3   OH253898   1.150   1.564  14.749  0.5450  0.3265 -0.1940
10828TIP3    H153899   1.091   1.627  14.789 -1.4814 -1.6397  0.0904
10828TIP3    H253900   1.238   1.598  14.768 -0.4408  2.3497  1.0385
10829TIP3   OH253901   0.878   4.933   1.298  0.4075  0.0061  0.1964
10829TIP3    H153902   0.954   4.977   1.336  1.8468 -1.4247 -0.9216
10829TIP3    H253903   0.838   4.886   1.371  1.5998 -0.5933  0.4905
10830TIP3   OH253904   2.960   2.554   2.052  0.3618  0.2128 -0.2934
10830TIP3    H153905   2.865   2.546   2.061  0.5843 -0.9548  1.6447
10830TIP3    H253906   2.988   2.595   2.134  1.8506 -3.1152  1.0527
10831TIP3   OH253907   3.872   1.578  13.806  0.1227  0.4243  0.0745
10831TIP3    H153908   3.796   1.534  13.766 -0.3903  1.3684 -0.0216
10831TIP3    H253909   3.940   1.573  13.739 -0.1870  0.4823 -0.2491
10832TIP3   OH253910   2.751   1.900  10.950 -0.2184  0.1477 -0.4406
10832TIP3    H153911   2.685   1.960  10.984 -0.0594  0.5718 -0.8830
10832TIP3    H253912   2.790   1.946  10.876  2.6112  1.1887  1.5149
10833TIP3   OH253913   4.379   4.596   4.458 -0.1780 -0.4159 -0.0245
10833TIP3    H153914   4.292   4.573   4.426 -1.0203  1.8323  0.5039
10833TIP3    H253915   4.364   4.636   4.543  1.3217  0.4457 -0.1267
10834TIP3   OH253916   6.273   3.525  16.507  0.1814  0.6483 -0.5666
10834TIP3    H153917   6.325   3.555  16.433 -0.0694  2.9520  0.1373
10834TIP3    H253918   6.192   3.492  16.469  0.9967 -0.4280 -1.4513
10835TIP3   OH253919   2.527   4.950  13.572 -0.1603 -0.0977  0.1747
10835TIP3    H153920   2.440   4.985  13.551  0.6352  2.2695  0.4796
10835TIP3    H253921   2.555   5.002  13.647  1.5531 -0.7385  0.0033
10836TIP3   OH253922   6.612   1.673   1.562  0.0120  0.3026 -0.0267
10836TIP3    H153923   6.589   1.697   1.651 -0.9959 -0.3663 -0.0949
10836TIP3    H253924   6.683   1.609   1.572  0.2616  0.6167  0.2611
10837TIP3   OH253925   6.718   2.299   5.578  0.7657 -0.1125 -0.0074
10837TIP3    H153926   6.724   2.339   5.665  0.6987 -1.2822  0.5633
10837TIP3    H253927   6.743   2.208   5.592 -0.6346 -0.6784 -0.9371
10838TIP3   OH253928   3.401   3.907  13.769 -0.1871 -0.1598  0.0903
10838TIP3    H153929   3.448   3.909  13.852  0.1786 -1.2141 -0.0738
10838TIP3    H253930   3.340   3.980  13.774  0.8555  0.7053  0.6702
10839TIP3   OH253931   3.889   1.864  11.904 -0.6579  0.2863 -0.1697
10839TIP3    H153932   3.879   1.816  11.822  1.8697  2.1356 -1.7054
10839TIP3    H253933   3.827   1.937  11.897  2.0204  2.5716 -2.2981
10840TIP3   OH253934   0.702   2.461  13.447 -0.1189  0.3711  0.0904
10840TIP3    H153935   0.635   2.527  13.430 -2.0962 -1.8549 -1.3927
10840TIP3    H253936   0.729   2.431  13.360  3.2152  1.4570  0.6099
10841TIP3   OH253937   4.473   0.751   4.965 -0.8906  0.0725 -0.5143
10841TIP3    H153938   4.545   0.688   4.962 -0.9130 -0.2984  2.9555
10841TIP3    H253939   4.399   0.702   5.000 -2.1150  1.1042 -1.5464
10842TIP3   OH253940   1.612   0.500  11.349  0.4553  0.1514  0.5039
10842TIP3    H153941   1.581   0.410  11.336 -1.0052  0.6446  0.4118
10842TIP3    H253942   1.533   0.550  11.371  1.4871  1.0952  2.2767
10843TIP3   OH253943   5.183   2.151  15.276 -0.5572 -0.1017  0.0532
10843TIP3    H153944   5.113   2.140  15.212 -0.3796  0.6751 -0.2945
10843TIP3    H253945   5.261   2.118  15.232 -0.4149  0.5324 -0.1866
10844TIP3   OH253946   4.429   0.236   4.290 -0.2491  0.1094  0.4562
10844TIP3    H153947   4.406   0.149   4.257  1.7098 -0.4393  0.4146
10844TIP3    H253948   4.358   0.259   4.350 -2.1188 -0.3822 -1.4458
10845TIP3   OH253949   4.206   2.290  16.340 -0.4866 -0.0661  0.3187
10845TIP3    H153950   4.146   2.218  16.320 -0.1315 -0.5732  1.0233
10845TIP3    H253951   4.236   2.321  16.255 -2.2721  0.6562 -0.0990
10846TIP3   OH253952   1.296   3.994   1.814 -0.5853 -0.2347 -0.3502
10846TIP3    H153953   1.282   4.079   1.856  2.0325 -0.9279  2.1791
10846TIP3    H253954   1.343   4.015   1.733 -2.2530  0.8413 -1.0962
10847TIP3   OH253955   3.404   4.941   0.844  0.2050  0.4628  0.4348
10847TIP3    H153956   3.401   5.023   0.893  0.0855 -0.0221  1.2721
10847TIP3    H253957   3.326   4.894   0.872  0.4740 -0.0940  0.2650
10848TIP3   OH253958   5.672   5.307  12.888  0.1087  0.1652  0.4011
10848TIP3    H153959   5.598   5.260  12.926 -0.2809  0.3963 -0.0560
10848TIP3    H253960   5.635   5.355  12.814  0.1923  2.3839  1.7131
10849TIP3   OH253961   1.815   2.060   3.303 -0.7324 -0.2776 -0.0637
10849TIP3    H153962   1.823   2.046   3.209  0.4416 -1.5090  0.1943
10849TIP3    H253963   1.808   1.973   3.341 -2.5645  0.2429  0.9162
10850TIP3   OH253964   0.452   5.433  13.107  0.0231 -0.1947  0.3699
10850TIP3    H153965   0.521   5.455  13.168  0.2256  0.4577 -0.0880
10850TIP3    H253966   0.415   5.351  13.141  0.0569  0.2095  1.4131
10851TIP3   OH253967   0.285   6.662  12.953  0.1540 -0.6417  0.0359
10851TIP3    H153968   0.265   6.746  12.993  0.6321  0.3438 -1.7039
10851TIP3    H253969   0.371   6.638  12.988  0.2125 -0.2013  0.1922
10852TIP3   OH253970   4.027   5.532  11.302  0.1225  0.3255 -0.2792
10852TIP3    H153971   4.008   5.624  11.321  2.7859  0.9769 -0.4474
10852TIP3    H253972   4.121   5.530  11.285  0.4022 -2.7008  1.1515
10853TIP3   OH253973   0.162   5.983   3.243 -0.0073 -0.4934 -0.4922
10853TIP3    H153974   0.254   5.966   3.264  0.1859  2.5898  1.9408
10853TIP3    H253975   0.165   6.053   3.178 -0.5291  0.7098  0.7188
10854TIP3   OH253976   3.960   4.808  14.155  0.0677 -0.2968  0.0769
10854TIP3    H153977   3.887   4.846  14.106  2.7817  3.4470 -1.5983
10854TIP3    H253978   3.928   4.803  14.245 -2.7691 -0.4988 -0.8310
10855TIP3   OH253979   5.424   0.648   2.812  0.0853 -0.0316 -0.6681
10855TIP3    H153980   5.488   0.603   2.868 -0.0096  1.8903  1.1260
10855TIP3    H253981   5.477   0.700   2.753  0.2306  1.1220  0.4404
10856TIP3   OH253982   2.116   5.686   3.007 -0.0747 -0.0315  0.2941
10856TIP3    H153983   2.143   5.650   3.091 -0.8497 -0.0052  0.5630
10856TIP3    H253984   2.025   5.713   3.020  0.2936  1.4971 -0.0721
10857TIP3   OH253985   5.735   3.740  12.673  0.2103 -0.3288 -0.3786
10857TIP3    H153986   5.789   3.819  12.670  0.3460 -0.4293 -0.6606
10857TIP3    H253987   5.655   3.764  12.626 -0.1453 -0.0663  0.3550
10858TIP3   OH253988   2.822   6.079  14.746  0.8437  0.2456  0.1193
10858TIP3    H153989   2.846   6.099  14.837 -0.1166  0.9625  0.2341
10858TIP3    H253990   2.771   6.154  14.718 -1.7501 -1.3842  0.1142
10859TIP3   OH253991   4.086   5.418   3.547 -0.9893  0.3558 -0.3009
10859TIP3    H153992   4.147   5.415   3.621  0.1552 -0.4371 -1.2313
10859TIP3    H253993   4.087   5.509   3.519  2.6652 -0.1403 -2.5130
10860TIP3   OH253994   6.449   1.882  13.780 -0.4015 -0.0640  0.0857
10860TIP3    H153995   6.467   1.966  13.823 -0.5898 -0.6599  1.3996
10860TIP3    H253996   6.520   1.824  13.809 -1.5088 -0.9792  1.1079
10861TIP3   OH253997   3.648   2.206   2.179  0.0201 -0.4631 -0.4818
10861TIP3    H153998   3.624   2.114   2.187 -0.7552 -0.4137 -1.8204
10861TIP3    H253999   3.742   2.205   2.164 -0.1342 -1.1389 -1.5450
10862TIP3   OH254000   6.142   3.721   5.699  0.2962  0.1846 -0.0226
10862TIP3    H154001   6.050   3.703   5.679 -0.2367  0.5556  1.9253
10862TIP3    H254002   6.150   3.816   5.695  0.1389  0.2869  1.4771
10863TIP3   OH254003   1.341   0.317   6.030 -0.3518 -0.1215  0.3253
10863TIP3    H154004   1.436   0.318   6.023 -0.4317 -0.0878 -0.8498
10863TIP3    H254005   1.324   0.344   6.121  0.7250  0.8636  0.2605
10864TIP3   OH254006   6.137   1.020  13.291  0.4920 -0.0768  0.1566
10864TIP3    H154007   6.224   1.013  13.250 -0.0283 -0.4498 -0.9339
10864TIP3    H254008   6.144   1.097  13.347  1.0870  0.8121 -1.0808
10865TIP3   OH254009   5.098   3.035  15.276 -0.4027 -0.6038  0.4137
10865TIP3    H154010   5.180   3.065  15.314 -0.1483  0.5062 -0.9420
10865TIP3    H254011   5.032   3.094  15.312 -0.4345 -0.7133  0.5381
10866TIP3   OH254012   0.964   1.135  13.552 -0.4985 -0.8317 -0.7781
10866TIP3    H154013   0.995   1.214  13.596  1.5378 -0.9022 -1.9367
10866TIP3    H254014   1.042   1.100  13.508 -2.1705 -1.1808 -3.7603
10867TIP3   OH254015   4.301   6.020  15.529  0.2643 -0.3389  0.1364
10867TIP3    H154016   4.254   6.010  15.611 -1.2704 -1.5971 -0.8523
10867TIP3    H254017   4.391   6.039  15.556  0.0887 -1.9905  2.1272
10868TIP3   OH254018   1.646   4.234  13.461  0.8046 -0.0712  0.6144
10868TIP3    H154019   1.701   4.255  13.386 -1.2057 -2.7356 -1.8088
10868TIP3    H254020   1.706   4.193  13.523  1.7811 -2.3216 -1.6622
10869TIP3   OH254021   1.209   1.605   2.003  0.1662 -0.4572  0.5631
10869TIP3    H154022   1.227   1.550   2.080 -0.1104 -1.5421 -0.1249
10869TIP3    H254023   1.267   1.680   2.014 -0.7675  0.0602  2.4752
10870TIP3   OH254024   2.975   1.630   0.261  0.1045 -0.3049 -0.1160
10870TIP3    H154025   2.989   1.694   0.192  0.5428 -1.5357 -1.2006
10870TIP3    H254026   3.042   1.649   0.326  1.6534 -0.9932 -1.4464
10871TIP3   OH254027   1.743   2.432  17.139 -0.0763 -0.5925 -0.4147
10871TIP3    H154028   1.816   2.371  17.148 -0.1460 -0.7351 -0.7840
10871TIP3    H254029   1.783   2.512  17.106 -0.1961 -0.9426 -1.4495
10872TIP3   OH254030   6.750   2.681   4.037  0.0138  0.1213  0.0830
10872TIP3    H154031   6.839   2.674   4.072 -0.4269 -0.5685  1.1316
10872TIP3    H254032   6.739   2.773   4.015  1.2107  0.0967 -0.6901
10873TIP3   OH254033   6.148   6.699   5.746  0.1279  0.2963  0.1634
10873TIP3    H154034   6.114   6.670   5.831 -0.0203  0.4797  0.1668
10873TIP3    H254035   6.080   6.675   5.683 -0.1028  0.8455  0.1965
10874TIP3   OH254036   4.954   4.076  16.433  0.4522 -0.0769  0.5190
10874TIP3    H154037   5.038   4.121  16.436  0.3895  0.4057 -2.0790
10874TIP3    H254038   4.977   3.983  16.427  0.8058  0.0217  0.2892
10875TIP3   OH254039   4.556   2.670   0.943 -0.4912 -0.3957 -0.0020
10875TIP3    H154040   4.504   2.743   0.908  0.2129  0.8141  1.3573
10875TIP3    H254041   4.646   2.691   0.918 -0.4538 -1.7415 -1.1128
10876TIP3   OH254042   6.333   2.417  13.011 -0.0307  0.1856  0.2117
10876TIP3    H154043   6.408   2.382  12.963 -0.2730 -0.8350  0.5640
10876TIP3    H254044   6.277   2.454  12.942  1.5704  2.5753  0.0716
10877TIP3   OH254045   3.143   2.554  12.561 -0.3465  0.1100 -0.4309
10877TIP3    H154046   3.198   2.601  12.498  1.4102  0.2408  1.1355
10877TIP3    H254047   3.135   2.614  12.635 -0.3339 -0.9940  0.4862
10878TIP3   OH254048   2.924   6.533  16.161  0.8129  0.0373  0.1469
10878TIP3    H154049   2.945   6.560  16.071 -0.6465 -0.4953 -0.3966
10878TIP3    H254050   2.848   6.587  16.184  0.6704 -0.4132  0.7410
10879TIP3   OH254051   2.401   0.450  15.401  0.2235 -0.6053  0.4183
10879TIP3    H154052   2.318   0.418  15.366  0.6551 -1.3148  0.0312
10879TIP3    H254053   2.390   0.545  15.403  0.4254 -0.4217 -2.3683
10880TIP3   OH254054   3.377   4.443   2.010 -0.0279  0.3196 -0.0955
10880TIP3    H154055   3.333   4.527   2.022  0.4381  0.4841  0.4904
10880TIP3    H254056   3.457   4.464   1.963 -0.2282  0.1108 -0.5394
10881TIP3   OH254057   4.317   6.177   6.110 -0.3941 -0.0384  0.0013
10881TIP3    H154058   4.286   6.268   6.105 -2.7492 -0.7993 -0.1761
10881TIP3    H254059   4.385   6.172   6.043 -1.2028  1.2481 -0.9678
10882TIP3   OH254060   1.415   2.815   2.577  0.7514 -0.3273  0.1582
10882TIP3    H154061   1.420   2.862   2.659  2.3519 -0.5822  0.2424
10882TIP3    H254062   1.372   2.732   2.599 -1.9484  0.9099  0.0303
10883TIP3   OH254063   1.922   3.175   6.235 -0.3175 -0.0931 -0.5846
10883TIP3    H154064   1.974   3.144   6.160  2.1921 -1.1909  1.4716
10883TIP3    H254065   1.850   3.112   6.241 -0.6653  0.1096 -2.1361
10884TIP3   OH254066   3.154   6.621   0.745  0.1138 -0.4533  0.1443
10884TIP3    H154067   3.212   6.680   0.698 -1.0363 -0.3739 -1.2423
10884TIP3    H254068   3.212   6.574   0.805  1.5941 -0.2894 -1.0732
10885TIP3   OH254069   5.106   3.568   2.040  0.2532  0.3120  0.3190
10885TIP3    H154070   5.035   3.603   2.094 -0.5411  0.0005 -0.4933
10885TIP3    H254071   5.063   3.536   1.960  1.4161  1.0179 -0.6406
10886TIP3   OH254072   2.453   5.457  13.220 -0.0432 -0.1422  0.3397
10886TIP3    H154073   2.438   5.363  13.210 -0.1386 -0.2306  1.1977
10886TIP3    H254074   2.506   5.464  13.299 -1.1484  0.5953  1.0572
10887TIP3   OH254075   5.980   0.747   1.357 -0.1829 -0.7097 -0.6557
10887TIP3    H154076   5.962   0.660   1.393 -3.7687  0.4873  0.9139
10887TIP3    H254077   5.922   0.755   1.282 -1.1961  0.8845  0.2459
10888TIP3   OH254078   2.877   5.833  11.973  0.5410  0.5554  0.3689
10888TIP3    H154079   2.922   5.907  11.934 -0.3766  0.6176 -0.6496
10888TIP3    H254080   2.811   5.808  11.907 -1.3772  0.9231  2.0309
10889TIP3   OH254081   2.650   4.949  14.880 -0.0562  0.1595  0.8267
10889TIP3    H154082   2.718   4.987  14.936 -0.2541 -0.6458  1.6422
10889TIP3    H254083   2.684   4.863  14.857  0.1005  0.5458 -0.4673
10890TIP3   OH254084   0.268   0.750  16.009  1.0130  0.0212 -0.4852
10890TIP3    H154085   0.203   0.755  16.079  1.4030 -1.8155  0.0795
10890TIP3    H254086   0.335   0.691  16.044  3.5192  2.5506 -0.6422
10891TIP3   OH254087   0.903   0.988  13.265  0.0256 -0.0561 -0.3092
10891TIP3    H154088   0.971   1.054  13.248  0.0733 -0.1056 -0.3100
10891TIP3    H254089   0.951   0.905  13.269  0.0000 -0.0580 -0.0491
10892TIP3   OH254090   4.439   4.663  15.616 -0.4099  0.5356  0.2031
10892TIP3    H154091   4.362   4.703  15.656 -0.1543 -0.3897  1.6689
10892TIP3    H254092   4.512   4.689  15.672  0.0258 -0.4242  0.1048
10893TIP3   OH254093   5.913   3.498   5.012 -0.4252 -0.3363 -0.3672
10893TIP3    H154094   5.967   3.434   5.058  2.7715  0.7990 -2.2026
10893TIP3    H254095   5.888   3.560   5.080  3.1324  0.6459  0.2945
10894TIP3   OH254096   5.883   3.890  13.483  1.1772  0.2948  0.2063
10894TIP3    H154097   5.901   3.931  13.568  0.5124 -0.5113  0.7433
10894TIP3    H254098   5.861   3.963  13.426 -0.7540  0.6613  1.3447
10895TIP3   OH254099   2.571   3.822  10.663 -0.1219  0.3789  0.0789
10895TIP3    H154100   2.546   3.899  10.612  1.4224 -0.2375 -1.7422
10895TIP3    H254101   2.662   3.838  10.688  0.2415 -0.8711 -0.3844
10896TIP3   OH254102   2.530   2.589  12.572 -0.5318  0.1914 -0.3638
10896TIP3    H154103   2.586   2.522  12.609  0.1613 -0.1615 -2.0154
10896TIP3    H254104   2.511   2.560  12.483 -0.6308  1.9216 -0.9502
10897TIP3   OH254105   0.505   0.245   3.305  0.4585  0.2055 -0.2936
10897TIP3    H154106   0.579   0.306   3.308  0.2572  0.4847 -0.8530
10897TIP3    H254107   0.471   0.253   3.216 -0.5963  0.4986  0.1089
10898TIP3   OH254108   0.649   6.055  12.727  0.3682 -0.8165  0.0820
10898TIP3    H154109   0.722   6.106  12.762  1.3092 -2.0756  0.0189
10898TIP3    H254110   0.584   6.056  12.797  1.2569 -1.3081  0.9489
10899TIP3   OH254111   4.996   6.442   2.174  0.1918  0.0937  0.5107
10899TIP3    H154112   4.949   6.419   2.094 -0.8125  1.5021  0.6455
10899TIP3    H254113   5.054   6.368   2.191 -1.4634 -1.4106 -0.0893
10900TIP3   OH254114   1.140   4.919  13.237 -0.1925  0.0481  0.6807
10900TIP3    H154115   1.107   4.874  13.159  2.9005 -0.0095 -0.7200
10900TIP3    H254116   1.121   4.858  13.309  3.5629 -3.7072 -1.0643
10901TIP3   OH254117   4.369   1.086  17.192 -0.1813 -0.3618 -0.0755
10901TIP3    H154118   4.425   1.104  17.116 -0.2051 -1.5828 -0.4093
10901TIP3    H254119   4.281   1.109  17.162 -0.3365 -1.7672 -0.7962
10902TIP3   OH254120   2.056   0.776   6.212 -0.1662 -0.3634  0.0182
10902TIP3    H154121   2.119   0.720   6.166  0.6784  0.5954 -0.0274
10902TIP3    H254122   2.101   0.804   6.291 -0.1580  1.1002 -0.4750
10903TIP3   OH254123   0.102   1.938   2.681  0.0797 -0.1494  0.1365
10903TIP3    H154124   0.047   1.883   2.625 -1.3389  1.4053 -0.1049
10903TIP3    H254125   0.127   2.011   2.625 -1.3746  1.4484  1.4512
10904TIP3   OH254126   1.925   3.211  13.297  0.3203 -0.0289 -0.0096
10904TIP3    H154127   1.943   3.305  13.293  0.6426 -0.0416  0.9160
10904TIP3    H254128   1.830   3.204  13.295  0.2847  0.3436  0.3148
10905TIP3   OH254129   5.315   3.168   0.832  0.1665  0.3803 -0.7639
10905TIP3    H154130   5.302   3.179   0.738  1.5945  0.0548 -1.0150
10905TIP3    H254131   5.241   3.114   0.860  0.8072 -1.2609 -2.0816
10906TIP3   OH254132   3.720   3.950   2.103 -0.1897 -0.1836 -0.3428
10906TIP3    H154133   3.711   4.004   2.181  2.6756 -1.2133  0.8427
10906TIP3    H254134   3.759   4.009   2.038  2.4458 -0.5487  0.7832
10907TIP3   OH254135   1.385   0.106   3.081 -0.0842 -0.3486 -0.2013
10907TIP3    H154136   1.378   0.110   3.176 -1.9805 -0.7081 -0.2852
10907TIP3    H254137   1.354   0.192   3.051 -0.3534 -0.5536 -0.5182
10908TIP3   OH254138   6.089   4.465   1.167  0.2722 -0.1193  0.3472
10908TIP3    H154139   6.118   4.522   1.239 -1.0908 -1.6084  2.1670
10908TIP3    H254140   6.037   4.522   1.111  2.3636  1.3699 -0.2150
10909TIP3   OH254141   2.059   2.314  10.410 -0.3826  0.2715 -0.1276
10909TIP3    H154142   1.984   2.259  10.389 -1.4656  1.6189  0.1153
10909TIP3    H254143   2.133   2.270  10.368 -1.4560 -0.5555 -1.2147
10910TIP3   OH254144   4.220   1.199  12.125  0.0275 -0.0711  0.0457
10910TIP3    H154145   4.142   1.241  12.088 -1.7185 -2.3095  0.9474
10910TIP3    H254146   4.242   1.130  12.063  0.3933 -0.3857  0.5161
10911TIP3   OH254147   3.363   5.572  15.664 -0.2755 -0.6933 -0.1553
10911TIP3    H154148   3.311   5.626  15.605 -0.2697 -1.9379 -1.3508
10911TIP3    H254149   3.301   5.544  15.732 -0.2185  0.9581  0.6374
10912TIP3   OH254150   2.236   0.829   1.013 -0.1459  0.5927  0.2329
10912TIP3    H154151   2.204   0.910   1.053 -0.1584  0.8731 -0.3348
10912TIP3    H254152   2.269   0.777   1.086 -1.1965  0.6163  0.7445
10913TIP3   OH254153   4.896   5.043  14.462 -0.5193 -0.4441  0.2160
10913TIP3    H154154   4.971   5.060  14.405 -0.4291  0.1098  0.4893
10913TIP3    H254155   4.933   5.044  14.550 -0.8297 -0.2828  0.3437
10914TIP3   OH254156   6.665   0.815  14.085  0.0557 -0.4419  0.5233
10914TIP3    H154157   6.693   0.729  14.117  0.5997 -0.3768  0.2453
10914TIP3    H254158   6.731   0.876  14.120  0.6887 -0.3776 -0.7583
10915TIP3   OH254159   2.837   0.947   1.923 -0.1455 -0.1277 -0.0199
10915TIP3    H154160   2.747   0.922   1.903  0.4656 -0.9154 -2.0526
10915TIP3    H254161   2.869   0.877   1.981 -0.4219 -0.6301 -0.4622
10916TIP3   OH254162   0.999   0.190  14.677  0.1176  0.8855  0.1711
10916TIP3    H154163   0.951   0.214  14.756 -1.6178  0.7202 -0.7863
10916TIP3    H254164   0.931   0.169  14.613  1.4613  1.5264 -1.5388
10917TIP3   OH254165   6.761   0.206  10.308  0.0829  0.1954 -0.5456
10917TIP3    H154166   6.848   0.165  10.313 -0.1680 -0.1643  1.4540
10917TIP3    H254167   6.764   0.256  10.226  3.1669  2.3893  0.6775
10918TIP3   OH254168   5.830   5.243   1.400 -0.8986 -0.1597  0.4139
10918TIP3    H154169   5.788   5.307   1.342 -1.5478 -0.6808  0.2905
10918TIP3    H254170   5.788   5.160   1.377  1.6273 -1.0948 -1.1396
10919TIP3   OH254171   1.832   6.320   3.877 -0.8309  0.2335  0.4369
10919TIP3    H154172   1.928   6.317   3.868 -0.8943  1.4101 -0.8356
10919TIP3    H254173   1.802   6.238   3.838 -0.4455  0.8225 -1.1807
10920TIP3   OH254174   0.594   0.896  15.714 -0.3597  0.1243 -0.0652
10920TIP3    H154175   0.571   0.987  15.696  0.8069  0.4577  0.0723
10920TIP3    H254176   0.688   0.891  15.699 -0.5691 -1.3315 -1.1552
10921TIP3   OH254177   1.613   6.597  11.798 -0.8004 -0.1157  0.3422
10921TIP3    H154178   1.703   6.598  11.764  0.7068  1.7945  3.8729
10921TIP3    H254179   1.594   6.504  11.814  0.5153 -0.5504 -0.4909
10922TIP3   OH254180   0.247   6.318   0.016  0.3697  0.0006  0.4957
10922TIP3    H154181   0.169   6.310   0.071 -0.0732  0.1432 -0.1027
10922TIP3    H254182   0.215   6.305  -0.073  0.7595  1.6496  0.0891
10923TIP3   OH254183   0.630   4.654   4.220  0.0288 -0.4213  0.1900
10923TIP3    H154184   0.637   4.745   4.192 -0.8580  0.1213  1.6098
10923TIP3    H254185   0.706   4.640   4.277  0.1430 -0.5653  0.0048
10924TIP3   OH254186   6.036   6.659  16.884 -0.2901 -0.3545  0.4708
10924TIP3    H154187   6.065   6.685  16.797 -0.2672 -0.1383  0.5442
10924TIP3    H254188   6.093   6.706  16.944 -0.9820  0.3131  0.6261
10925TIP3   OH254189   2.184   6.162  12.873  0.0065  0.7428  0.2145
10925TIP3    H154190   2.275   6.190  12.873  0.0618  0.5933 -1.1458
10925TIP3    H254191   2.133   6.243  12.867  0.1279  0.6946 -1.9316
10926TIP3   OH254192   3.667   6.124   0.476 -0.3760  0.5743 -0.6238
10926TIP3    H154193   3.750   6.120   0.429 -0.4044  0.9812 -0.7130
10926TIP3    H254194   3.649   6.217   0.484  0.6932  0.6306  2.0771
10927TIP3   OH254195   5.829   4.928  13.719 -0.0591 -0.0004  0.2171
10927TIP3    H154196   5.816   4.844  13.762 -0.4047  0.0083  0.1371
10927TIP3    H254197   5.743   4.971  13.724 -0.3070 -0.2953 -1.0944
10928TIP3   OH254198   0.873   3.574   2.611  0.4266 -0.2765 -0.0853
10928TIP3    H154199   0.914   3.612   2.533  1.3029 -0.4921  0.2673
10928TIP3    H254200   0.879   3.480   2.598  1.1747 -0.3259  0.5413
10929TIP3   OH254201   1.023   5.274   0.999 -0.6816 -0.5898 -0.6969
10929TIP3    H154202   0.958   5.209   1.026  1.4065 -1.4589  2.7532
10929TIP3    H254203   0.995   5.355   1.042 -1.3012 -0.0446 -2.0611
10930TIP3   OH254204   4.160   2.344   4.826  0.2919 -1.1841 -0.3617
10930TIP3    H154205   4.111   2.424   4.845 -1.0195 -1.8234 -0.8803
10930TIP3    H254206   4.177   2.305   4.911  0.2433 -0.7510 -0.1511
10931TIP3   OH254207   0.815   0.224  17.169  0.0843  0.2645 -0.2147
10931TIP3    H154208   0.769   0.167  17.108 -1.7409  0.8819  0.5156
10931TIP3    H254209   0.746   0.278  17.209  1.5815  2.1355  0.0125
10932TIP3   OH254210   3.249   2.909  14.976 -0.1309 -0.1920  0.1893
10932TIP3    H154211   3.236   2.841  14.909  1.9699  0.2890 -0.8103
10932TIP3    H254212   3.194   2.882  15.049 -1.3794 -1.5425 -1.1825
10933TIP3   OH254213   1.609   2.846   4.590 -0.4178  0.7591 -0.5244
10933TIP3    H154214   1.610   2.875   4.499  0.1732  0.4888 -0.6084
10933TIP3    H254215   1.600   2.751   4.585  1.2595  0.5621 -0.3613
10934TIP3   OH254216   2.511   5.590  16.591 -0.0902  0.3546 -0.3747
10934TIP3    H154217   2.509   5.550  16.678  0.3744 -0.7482 -0.8553
10934TIP3    H254218   2.496   5.517  16.530  1.8325  0.7083 -1.3265
10935TIP3   OH254219   5.984   5.983  14.268 -0.1970 -0.0717  0.2028
10935TIP3    H154220   5.980   6.075  14.242  0.1695 -0.2201 -0.3920
10935TIP3    H254221   5.892   5.956  14.272 -0.2841  0.1250 -0.3322
10936TIP3   OH254222   5.418   0.950  12.490  0.1129 -0.3910  0.3350
10936TIP3    H154223   5.472   0.907  12.424 -0.5145 -2.1265  0.9060
10936TIP3    H254224   5.479   1.007  12.538  1.6690 -2.7923  1.4187
10937TIP3   OH254225   5.656   6.311  16.646  0.1733 -0.3182  0.4310
10937TIP3    H154226   5.687   6.400  16.663 -1.4593  0.5946 -1.0504
10937TIP3    H254227   5.723   6.254  16.683  2.1709  1.5239 -0.1827
10938TIP3   OH254228   5.836   4.094   4.061 -0.2199  0.2830  0.4473
10938TIP3    H154229   5.810   4.016   4.012  0.9548 -0.6095  1.1707
10938TIP3    H254230   5.777   4.163   4.031  0.4956 -0.1750 -2.2868
10939TIP3   OH254231   3.467   5.498  12.481  0.8763  0.4022  0.3698
10939TIP3    H154232   3.394   5.440  12.501  1.2396  0.6482  2.5997
10939TIP3    H254233   3.440   5.543  12.400 -1.2808  0.2325  0.9297
10940TIP3   OH254234   6.447   2.088  15.855  0.2234  0.2586 -0.2703
10940TIP3    H154235   6.497   2.071  15.935  1.7059  1.1279 -0.9770
10940TIP3    H254236   6.406   2.004  15.835 -1.3855  0.3515  2.1590
10941TIP3   OH254237   2.557   3.132  12.563 -0.0306  0.4190  0.2776
10941TIP3    H154238   2.650   3.113  12.552 -0.3119 -0.1551 -1.2565
10941TIP3    H254239   2.515   3.046  12.572 -0.5864  0.5860 -0.6030
10942TIP3   OH254240   6.723   5.619   4.266 -0.3288  0.3794 -0.2860
10942TIP3    H154241   6.659   5.601   4.335  0.4216 -0.5715  0.1876
10942TIP3    H254242   6.671   5.658   4.195 -1.5328 -0.8677 -0.1401
10943TIP3   OH254243   5.425   4.807   1.887  0.3747  0.1691 -0.6096
10943TIP3    H154244   5.447   4.890   1.845 -0.3075  1.2245  1.0027
10943TIP3    H254245   5.395   4.832   1.974 -1.3343 -1.6549 -0.6046
10944TIP3   OH254246   4.255   6.569  14.039  0.0913 -0.4820  0.2582
10944TIP3    H154247   4.229   6.548  14.129 -1.4049 -0.6295 -0.1763
10944TIP3    H254248   4.351   6.567  14.040  0.1529  0.9056  2.1668
10945TIP3   OH254249   6.499   4.859  11.221  0.2445 -0.7344  0.3739
10945TIP3    H154250   6.494   4.943  11.174 -3.5264 -1.4636 -0.9027
10945TIP3    H254251   6.489   4.793  11.153  0.8320 -2.1364  1.5980
10946TIP3   OH254252   3.375   5.196  11.617  0.3644 -0.2685 -0.4067
10946TIP3    H154253   3.347   5.284  11.592  1.0883  0.5569  1.5367
10946TIP3    H254254   3.422   5.163  11.541 -0.3099  0.8380 -1.3280
10947TIP3   OH254255   3.422   4.242  14.985 -0.1605  0.0037 -0.0412
10947TIP3    H154256   3.439   4.148  14.978 -0.3842 -0.0829  0.5695
10947TIP3    H254257   3.501   4.283  14.950 -1.2808 -0.3731 -3.4589
10948TIP3   OH254258   3.132   1.816  12.229 -0.1005  0.5052 -0.3394
10948TIP3    H154259   3.140   1.730  12.188 -0.0484 -0.1630  1.0056
10948TIP3    H254260   3.194   1.872  12.182 -0.2476 -0.1493 -1.3231
10949TIP3   OH254261   0.073   2.579  16.255  0.2590  0.1753  0.1567
10949TIP3    H154262   0.017   2.518  16.304 -3.3508  1.5178 -1.8833
10949TIP3    H254263   0.056   2.664  16.294 -1.0585  0.9466 -1.9153
10950TIP3   OH254264   0.664   2.827  16.993 -0.1234 -0.8504  0.1193
10950TIP3    H154265   0.667   2.814  17.087 -1.2379 -1.0698  0.1325
10950TIP3    H254266   0.658   2.739  16.956  0.9647 -0.8036 -0.1942
10951TIP3   OH254267   6.027   1.857   5.579  0.3034  0.5571 -0.0302
10951TIP3    H154268   6.019   1.915   5.504  0.2147  1.4448  0.6509
10951TIP3    H254269   6.110   1.811   5.566 -0.1867 -0.0301 -1.1593
10952TIP3   OH254270   1.993   4.949  13.320 -0.5924  0.2323 -0.0581
10952TIP3    H154271   2.021   5.015  13.256 -1.6162  1.0503  0.3098
10952TIP3    H254272   1.936   4.996  13.380 -0.4256 -0.7464  0.8971
10953TIP3   OH254273   0.637   4.364  15.595  0.8581  0.0204  0.6648
10953TIP3    H154274   0.578   4.420  15.645  0.4242 -0.4756  0.7164
10953TIP3    H254275   0.608   4.275  15.614  1.2038 -0.2058  0.1681
10954TIP3   OH254276   3.112   4.139   4.763  0.2861 -0.4202  0.4379
10954TIP3    H154277   3.143   4.177   4.680 -1.1245 -2.5006 -1.1491
10954TIP3    H254278   3.174   4.172   4.829  1.4040  1.3977 -1.3958
10955TIP3   OH254279   1.673   6.563   4.619  0.2997  0.3062 -0.4065
10955TIP3    H154280   1.727   6.638   4.643  0.9274  0.0400 -0.9440
10955TIP3    H254281   1.584   6.598   4.612  0.3323  0.6768  0.8389
10956TIP3   OH254282   2.309   0.697   0.750 -0.0772 -0.1201 -0.7181
10956TIP3    H154283   2.312   0.669   0.842 -0.7100 -0.2545 -0.7333
10956TIP3    H254284   2.296   0.792   0.754 -1.6725 -0.3149 -0.6516
10957TIP3   OH254285   1.620   1.934  13.134 -0.0681  0.0449 -0.4022
10957TIP3    H154286   1.685   1.905  13.070 -1.0012 -1.1125 -0.8554
10957TIP3    H254287   1.642   1.886  13.214 -1.1464 -1.3999 -0.9357
10958TIP3   OH254288   0.004   3.870   1.734 -0.7089 -0.6515  0.1890
10958TIP3    H154289   0.057   3.868   1.655 -0.8818  2.5998 -0.1491
10958TIP3    H254290   0.054   3.818   1.798  2.2850  1.1764 -0.4779
10959TIP3   OH254291   2.415   5.695   5.142  0.3976  0.4966 -0.3445
10959TIP3    H154292   2.438   5.671   5.053 -1.8716 -1.2353 -0.5441
10959TIP3    H254293   2.459   5.630   5.197 -1.5835 -1.1191 -0.5530
10960TIP3   OH254294   3.134   0.919   1.149 -0.1235  0.2120 -0.5789
10960TIP3    H154295   3.090   0.997   1.182 -1.4091 -1.2299  1.3521
10960TIP3    H254296   3.073   0.882   1.085  0.0286  0.2582 -0.7504
10961TIP3   OH254297   1.570   6.296  14.773  0.3570 -0.8377  0.2030
10961TIP3    H154298   1.637   6.284  14.705  0.1804 -0.3319 -0.0633
10961TIP3    H254299   1.582   6.386  14.803  1.0025 -1.3043  1.4646
10962TIP3   OH254300   2.556   4.393  13.579  0.0947  0.6474  0.3124
10962TIP3    H154301   2.589   4.307  13.605  1.4711 -0.0182 -3.1368
10962TIP3    H254302   2.464   4.379  13.559  0.4940 -0.2607 -0.9811
10963TIP3   OH254303   3.855   0.537  12.213 -0.3636  0.0013  0.4526
10963TIP3    H154304   3.851   0.447  12.181 -0.3794  0.5925 -1.3232
10963TIP3    H254305   3.763   0.565  12.216 -0.3064  0.2092  0.2377
10964TIP3   OH254306   3.934   3.777   4.264 -0.1333 -0.3528  0.0742
10964TIP3    H154307   4.010   3.807   4.214 -0.0765  1.4717  1.1462
10964TIP3    H254308   3.941   3.681   4.264  2.2423 -0.2411  0.2304
10965TIP3   OH254309   0.856   0.077   5.448  0.2620 -0.0729 -0.2903
10965TIP3    H154310   0.773   0.062   5.494  1.2539  0.1083  1.6668
10965TIP3    H254311   0.894  -0.011   5.439 -1.3295 -0.5734 -3.7900
10966TIP3   OH254312   6.697   6.462  16.852  0.3330  0.5995 -0.1832
10966TIP3    H154313   6.612   6.480  16.812  1.0721  1.7717 -1.2866
10966TIP3    H254314   6.761   6.497  16.790  1.8157 -3.0720 -1.0287
10967TIP3   OH254315   1.480   3.983   5.433  0.2931  0.2003  0.3276
10967TIP3    H154316   1.458   4.062   5.482 -1.7914 -0.5291  0.6358
10967TIP3    H254317   1.516   4.016   5.350 -0.8102  1.4992  0.3280
10968TIP3   OH254318   6.620   1.934   3.895  0.3605 -0.3536 -0.2905
10968TIP3    H154319   6.587   2.022   3.874 -0.7735 -0.6939  0.0359
10968TIP3    H254320   6.566   1.875   3.842  1.7365 -0.8205 -1.2329
10969TIP3   OH254321   4.703   3.422   0.573  0.6203  0.2325 -0.0903
10969TIP3    H154322   4.696   3.424   0.668  1.5205  1.5799 -0.0244
10969TIP3    H254323   4.796   3.431   0.555  0.4548  0.0908 -1.1026
10970TIP3   OH254324   1.790   1.047  13.698 -0.1509 -0.3602 -0.4923
10970TIP3    H154325   1.811   1.028  13.789 -2.4234 -0.3894  0.0968
10970TIP3    H254326   1.697   1.026  13.690 -0.5377  1.6748 -2.2505
10971TIP3   OH254327   0.941   5.882   4.675  0.2608  0.2122 -0.3602
10971TIP3    H154328   0.887   5.961   4.681 -0.4511 -0.0823 -2.3590
10971TIP3    H254329   1.026   5.908   4.712 -0.9977  0.8436  2.3275
10972TIP3   OH254330   1.286   4.950   5.942 -0.1922  0.4736  0.6896
10972TIP3    H154331   1.209   4.902   5.913 -0.5623  0.7255  1.2434
10972TIP3    H254332   1.259   5.042   5.944  0.0297  0.5363  1.1487
10973TIP3   OH254333   4.374   6.784  15.019  0.4449  0.1712 -0.1132
10973TIP3    H154334   4.419   6.759  14.937 -0.0157 -1.1726  0.0265
10973TIP3    H254335   4.440   6.833  15.068  0.7637  0.9068 -1.2366
10974TIP3   OH254336   2.462   1.406  11.184  0.2195  0.4255 -0.1788
10974TIP3    H154337   2.407   1.397  11.106  0.0468 -0.2150  0.0149
10974TIP3    H254338   2.551   1.399  11.151  0.1530  0.3871 -0.3508
10975TIP3   OH254339   3.765   3.157   6.589  0.7233  0.5309 -0.0805
10975TIP3    H154340   3.751   3.068   6.557  0.2516  1.5360 -2.8964
10975TIP3    H254341   3.854   3.155   6.625  1.0813 -0.8551 -0.9635
10976TIP3   OH254342   4.341   4.177  16.881  0.6494  0.0187 -0.2678
10976TIP3    H154343   4.355   4.083  16.869  1.1795 -0.1556  1.4055
10976TIP3    H254344   4.428   4.216  16.871  0.7174  0.1205  0.6732
10977TIP3   OH254345   2.940   4.333   3.617  0.2225  0.0541 -0.5439
10977TIP3    H154346   2.967   4.245   3.640 -1.1938 -0.0036  1.0699
10977TIP3    H254347   2.960   4.341   3.524 -0.0460 -2.1244 -0.8320
10978TIP3   OH254348   2.979   1.517   4.038  0.2562  0.3302  0.3784
10978TIP3    H154349   2.904   1.467   4.005  1.5228 -0.9653 -0.7024
10978TIP3    H254350   2.994   1.585   3.972  1.9437 -1.4172 -1.1966
10979TIP3   OH254351   6.766   3.496  11.306 -0.2616  0.2886 -0.2604
10979TIP3    H154352   6.768   3.472  11.398 -0.4359 -0.9784 -0.5697
10979TIP3    H254353   6.728   3.420  11.262  1.5371  0.0825 -1.5939
10980TIP3   OH254354   2.442   0.138   3.240  0.1417  0.0403 -0.2969
10980TIP3    H154355   2.475   0.228   3.234 -0.5494  0.2390 -1.4551
10980TIP3    H254356   2.507   0.092   3.293  0.2432  1.3421  0.7545
10981TIP3   OH254357   2.067   3.372  11.858  0.4220 -0.1270 -0.5501
10981TIP3    H154358   2.148   3.361  11.808  0.1905 -0.5542 -0.8413
10981TIP3    H254359   2.009   3.304  11.824  0.0338  0.0028 -0.1557
10982TIP3   OH254360   2.238   0.029  10.526  0.4508  0.1400 -0.3567
10982TIP3    H154361   2.145   0.051  10.519  0.3954  0.2546  0.5867
10982TIP3    H254362   2.277   0.064  10.446  0.0546  2.0485  0.2361
10983TIP3   OH254363   0.659   1.371  13.756 -0.3494  0.2777 -0.5746
10983TIP3    H154364   0.698   1.457  13.745  1.7751 -0.5882 -0.3085
10983TIP3    H254365   0.609   1.378  13.838  2.0491  0.5545  0.9698
10984TIP3   OH254366   5.343   0.660   6.805 -0.0206  0.2887  0.5494
10984TIP3    H154367   5.291   0.611   6.870 -1.3897  0.0466 -0.6677
10984TIP3    H254368   5.278   0.712   6.758  0.9311  0.4020 -0.6724
10985TIP3   OH254369   5.604   2.317   3.227 -0.1786  0.0510 -0.4145
10985TIP3    H154370   5.625   2.375   3.300  0.2616  0.5701 -0.9453
10985TIP3    H254371   5.600   2.230   3.266 -0.5740  0.4000  0.3433
10986TIP3   OH254372   3.168   4.723  12.744  0.7139 -0.1135 -0.2153
10986TIP3    H154373   3.260   4.703  12.756  0.9286  0.2156 -1.2695
10986TIP3    H254374   3.165   4.818  12.734  0.2108 -0.0785  0.2080
10987TIP3   OH254375   0.439   1.228  16.807  0.4466 -0.2105 -0.3119
10987TIP3    H154376   0.435   1.296  16.740  0.7472 -1.4232 -1.6033
10987TIP3    H254377   0.523   1.184  16.792  0.0390 -1.1825  0.1615
10988TIP3   OH254378   5.116   2.644  12.665 -0.5747 -0.7927 -0.5917
10988TIP3    H154379   5.139   2.715  12.605  1.5364 -1.6952 -0.9426
10988TIP3    H254380   5.104   2.688  12.750  1.0759 -0.0177 -0.7133
10989TIP3   OH254381   2.028   2.070   2.694 -0.2431 -0.0244 -0.6519
10989TIP3    H154382   2.093   2.066   2.764 -1.2202 -0.5403  0.2656
10989TIP3    H254383   1.946   2.044   2.737 -0.9983  0.3432 -1.8335
10990TIP3   OH254384   4.851   6.103  16.543 -0.7087  0.3437  0.1321
10990TIP3    H154385   4.867   6.040  16.614 -3.0296 -0.7314 -0.1796
10990TIP3    H254386   4.879   6.187  16.578  3.1281 -0.8585  0.3431
10991TIP3   OH254387   4.147   1.261   2.881 -0.0042  0.0484 -0.0277
10991TIP3    H154388   4.196   1.195   2.929 -1.3670 -0.3806  0.8482
10991TIP3    H254389   4.113   1.320   2.949 -0.3417  0.5632 -0.6305
10992TIP3   OH254390   6.422   3.393   2.797  0.8784 -0.2371  0.2338
10992TIP3    H154391   6.485   3.464   2.789  0.9719 -0.3822 -0.3267
10992TIP3    H254392   6.461   3.320   2.748  0.7017 -0.6222  0.6512
10993TIP3   OH254393   3.608   0.367   1.973  0.2729 -0.4588  1.0380
10993TIP3    H154394   3.561   0.291   2.008  0.9008 -0.5272  1.7769
10993TIP3    H254395   3.676   0.330   1.918 -0.3565 -0.3704  0.1920
10994TIP3   OH254396   3.626   5.300  14.561  0.0281  0.0904 -0.1815
10994TIP3    H154397   3.634   5.251  14.480  0.1016  0.2569 -0.2740
10994TIP3    H254398   3.616   5.391  14.534  0.8982  0.2510  0.0160
10995TIP3   OH254399   4.460   3.852  13.358  0.2330 -1.1449  0.0458
10995TIP3    H154400   4.437   3.945  13.363 -1.2679 -1.3149 -2.0177
10995TIP3    H254401   4.400   3.817  13.292  2.6466 -2.9793 -1.3322
10996TIP3   OH254402   6.039   2.752   3.729 -0.2614 -0.1561  0.3329
10996TIP3    H154403   6.112   2.704   3.767 -0.4152  0.5439  1.5672
10996TIP3    H254404   5.980   2.685   3.696 -0.4007 -0.8436  1.8876
10997TIP3   OH254405   5.707   0.162   4.794 -0.0721 -0.0206 -0.4195
10997TIP3    H154406   5.794   0.140   4.762 -0.1122  0.1663 -0.6581
10997TIP3    H254407   5.670   0.079   4.823  0.2218 -0.0850 -0.2310
10998TIP3   OH254408   5.138   5.439  11.831 -0.0136  0.6026 -0.0308
10998TIP3    H154409   5.119   5.457  11.923  0.8556  0.2333  0.2380
10998TIP3    H254410   5.069   5.378  11.804 -1.4532  2.2523 -0.2189
10999TIP3   OH254411   2.367   1.999   3.669 -0.1129 -0.2734 -0.2703
10999TIP3    H154412   2.372   2.023   3.577  1.0515  1.8706  0.2871
10999TIP3    H254413   2.414   1.915   3.675 -0.1689 -0.4170 -1.6037
11000TIP3   OH254414   4.480   0.478  12.642  0.3011  0.1127 -0.5128
11000TIP3    H154415   4.565   0.480  12.685  0.8814  0.7552 -1.6484
11000TIP3    H254416   4.482   0.551  12.580 -1.5096  0.8663  0.2411
11001TIP3   OH254417   2.528   2.778  11.445  0.0088  0.2318  0.2768
11001TIP3    H154418   2.549   2.872  11.449 -0.0452  0.2847 -0.4870
11001TIP3    H254419   2.514   2.761  11.352 -1.4375 -0.2137  0.5428
11002TIP3   OH254420   5.595   3.843  14.109  0.1885 -0.7154 -0.2851
11002TIP3    H154421   5.662   3.786  14.146  0.6461 -1.6814 -2.4094
11002TIP3    H254422   5.512   3.806  14.140  0.5765 -0.6062  0.9105
11003TIP3   OH254423   4.294   4.062  14.835  0.7274  0.2901 -0.3685
11003TIP3    H154424   4.203   4.074  14.810  0.9403  1.6066 -0.5625
11003TIP3    H254425   4.339   4.041  14.753  0.6337 -0.2084 -0.2966
11004TIP3   OH254426   5.303   4.570  14.742  0.3229  0.2718  0.4165
11004TIP3    H154427   5.265   4.483  14.750 -0.1238  0.3902 -0.3218
11004TIP3    H254428   5.308   4.602  14.832 -0.8509  0.0411  0.5815
11005TIP3   OH254429   1.759   4.833  13.482  0.1166 -0.0471 -0.2625
11005TIP3    H154430   1.727   4.793  13.563 -3.4308  1.4509 -0.7284
11005TIP3    H254431   1.754   4.763  13.417  1.0092 -0.7079  0.3595
11006TIP3   OH254432   4.842   3.408  15.928  0.3369 -0.1738  0.4202
11006TIP3    H154433   4.841   3.499  15.960  1.2951 -0.3245  0.9002
11006TIP3    H254434   4.820   3.416  15.835 -4.2522  0.1309  1.2668
11007TIP3   OH254435   0.492   4.306  11.043 -0.5463  0.3274 -0.2606
11007TIP3    H154436   0.398   4.296  11.028 -0.3263 -0.7379 -1.0160
11007TIP3    H254437   0.509   4.399  11.033 -1.3071  0.3532 -1.4739
11008TIP3   OH254438   1.269   0.617  15.758  0.0536  0.1404 -0.1483
11008TIP3    H154439   1.173   0.610  15.759 -0.0510  1.3089  1.1596
11008TIP3    H254440   1.299   0.528  15.738 -1.3007 -0.5063  0.5275
11009TIP3   OH254441   0.813   0.759  12.531 -0.6970 -0.0015  0.1919
11009TIP3    H154442   0.877   0.801  12.588 -0.6786 -1.3256  1.1873
11009TIP3    H254443   0.858   0.751  12.446  0.3812 -0.6975  0.8069
11010TIP3   OH254444   5.081   2.905  11.261  0.0397  0.4444  0.4287
11010TIP3    H154445   5.102   2.856  11.181  0.8311  0.6925  0.4790
11010TIP3    H254446   5.013   2.967  11.234 -1.0965 -0.7668  0.3980
11011TIP3   OH254447   2.997   5.909   2.034 -0.1498 -0.0719  1.1472
11011TIP3    H154448   3.049   5.977   2.076 -2.1813  1.4415  1.3506
11011TIP3    H254449   2.943   5.873   2.104 -2.1801  1.1458  0.2877
11012TIP3   OH254450   4.414   4.746   2.538 -0.2543  0.0186  0.1527
11012TIP3    H154451   4.457   4.753   2.453  0.6859  0.2785  0.6405
11012TIP3    H254452   4.390   4.653   2.545  1.7154 -0.5069  0.5657
11013TIP3   OH254453   1.575   1.239   0.725  0.6314  0.4483 -0.4433
11013TIP3    H154454   1.591   1.279   0.640 -0.9758 -1.9136 -1.9887
11013TIP3    H254455   1.653   1.187   0.743  1.0850  1.1619 -0.3215
11014TIP3   OH254456   2.885   3.454  12.267  0.0093  0.1192  0.5539
11014TIP3    H154457   2.940   3.377  12.256 -0.2644 -0.0850  0.6120
11014TIP3    H254458   2.837   3.463  12.184 -1.1114 -0.6845  1.0829
11015TIP3   OH254459   6.367   3.667   3.299  0.4076  0.5572 -0.0311
11015TIP3    H154460   6.355   3.745   3.246 -0.3222  0.9552  0.6993
11015TIP3    H254461   6.431   3.692   3.366  1.8529 -0.1473 -1.0905
11016TIP3   OH254462   0.911   5.334  14.985  0.2951  0.4129 -0.2198
11016TIP3    H154463   0.870   5.418  14.964 -0.5558  0.0781  0.0500
11016TIP3    H254464   0.901   5.326  15.080 -0.5220 -0.4350 -0.3627
11017TIP3   OH254465   6.182   5.055  13.340 -0.3942 -0.3404 -0.6500
11017TIP3    H154466   6.126   5.079  13.413  0.1448  1.5812 -0.8151
11017TIP3    H254467   6.156   5.113  13.269  0.6068 -0.6140 -1.2652
11018TIP3   OH254468   3.558   4.404   2.476  0.1675 -0.1488  0.0401
11018TIP3    H154469   3.525   4.356   2.400  1.7043  0.1741 -0.8669
11018TIP3    H254470   3.515   4.490   2.470  0.0081 -0.2457 -0.2643
11019TIP3   OH254471   0.926   4.281   2.676  0.0999  0.0228  0.4695
11019TIP3    H154472   0.840   4.313   2.650  0.6313 -0.6390 -2.5155
11019TIP3    H254473   0.923   4.187   2.659  1.7487  0.1764 -0.9857
11020TIP3   OH254474   6.379   6.395   4.859 -0.3901 -0.4387  0.2619
11020TIP3    H154475   6.329   6.466   4.898 -0.2492 -1.1619  1.8467
11020TIP3    H254476   6.396   6.335   4.932  0.2914 -1.6316 -0.8369
11021TIP3   OH254477   0.642   1.975  14.911 -0.3095 -0.4618 -0.3623
11021TIP3    H154478   0.708   2.033  14.948 -2.7304  1.7724  0.8389
11021TIP3    H254479   0.666   1.966  14.819  0.6845  1.7933 -0.3842
11022TIP3   OH254480   5.198   5.285   6.242  0.2239 -0.1627 -0.2176
11022TIP3    H154481   5.228   5.342   6.171  0.9573 -0.4352 -0.1376
11022TIP3    H254482   5.122   5.241   6.206  0.0959  0.3083 -0.5471
11023TIP3   OH254483   3.665   1.429  12.503 -0.4360 -0.0421 -0.3812
11023TIP3    H154484   3.575   1.424  12.470 -0.9729  1.0678  0.8156
11023TIP3    H254485   3.677   1.522  12.523  0.2664 -0.4865  1.4066
11024TIP3   OH254486   3.270   0.548   5.400 -0.2363 -0.3558  0.0840
11024TIP3    H154487   3.203   0.480   5.389 -0.0341 -0.4054 -0.9892
11024TIP3    H254488   3.338   0.507   5.453 -1.3504 -0.0730  1.8165
11025TIP3   OH254489   5.821   4.223   2.648  0.2778 -0.9196 -0.1304
11025TIP3    H154490   5.838   4.204   2.556 -0.3168  2.0980 -0.9863
11025TIP3    H254491   5.869   4.304   2.664 -1.0038 -0.4714  1.7295
11026TIP3   OH254492   2.955   3.932   2.037 -0.6621  0.0285 -0.3946
11026TIP3    H154493   2.892   4.003   2.025 -0.4458  0.0008 -1.8769
11026TIP3    H254494   3.004   3.930   1.955  1.9795  0.7497  1.0383
11027TIP3   OH254495   3.650   1.766  13.443  0.2037  0.1068 -0.1028
11027TIP3    H154496   3.582   1.821  13.483 -0.1971  0.2701 -0.9957
11027TIP3    H254497   3.603   1.688  13.414  0.7354 -0.6382  0.9736
11028TIP3   OH254498   1.465   2.543   6.280  0.3604  0.0131  0.0415
11028TIP3    H154499   1.375   2.575   6.271 -0.0475 -1.5950 -2.9489
11028TIP3    H254500   1.458   2.468   6.340 -0.1715  0.2841  0.3274
11029TIP3   OH254501   4.363   2.116   0.168 -0.2383 -0.0782 -0.1090
11029TIP3    H154502   4.288   2.139   0.112 -1.5349 -0.3923  1.4145
11029TIP3    H254503   4.388   2.198   0.210  0.9875  0.2347 -1.3940
11030TIP3   OH254504   5.578   0.160  16.372 -0.8304  0.2474 -0.3136
11030TIP3    H154505   5.557   0.203  16.455  1.3669  0.3476  0.2500
11030TIP3    H254506   5.526   0.080  16.373  1.3843 -1.3824  2.7298
11031TIP3   OH254507   2.143   5.051   3.141  0.2556 -0.0433 -0.1100
11031TIP3    H154508   2.122   5.136   3.102 -0.4691 -0.5073 -0.7732
11031TIP3    H254509   2.057   5.012   3.159  0.5745 -0.8247 -0.2522
11032TIP3   OH254510   2.539   1.139   3.643  0.3111  0.1308  0.1793
11032TIP3    H154511   2.565   1.093   3.563  0.4320 -0.3351  0.4850
11032TIP3    H254512   2.446   1.119   3.653  0.5686 -0.8150  0.8105
11033TIP3   OH254513   0.810   4.771   0.102 -0.0124  0.0544  0.0104
11033TIP3    H154514   0.889   4.801   0.057  0.1293  0.0737  0.2684
11033TIP3    H254515   0.823   4.798   0.193 -0.3926  0.2082  0.0200
11034TIP3   OH254516   5.043   4.075  15.905  0.1904 -0.0381 -0.2323
11034TIP3    H154517   5.020   4.136  15.835 -0.9201 -1.1944 -0.9080
11034TIP3    H254518   5.064   4.132  15.980 -1.8387  1.1825 -0.5120
11035TIP3   OH254519   2.413   5.034   0.026  0.6964 -0.7077  0.5937
11035TIP3    H154520   2.446   4.945   0.033  1.0276 -0.5418  1.3001
11035TIP3    H254521   2.468   5.084   0.087 -0.8045 -0.4084  1.7611
11036TIP3   OH254522   4.945   4.006  16.820 -0.2369 -0.0079 -0.1940
11036TIP3    H154523   4.922   3.977  16.908 -0.3372  1.3189  0.2382
11036TIP3    H254524   4.908   3.940  16.762 -0.8385 -0.4948  0.7294
11037TIP3   OH254525   1.282   3.682   2.441  0.2747 -0.1266  0.2792
11037TIP3    H154526   1.376   3.691   2.453  0.5314  0.3367 -1.6678
11037TIP3    H254527   1.273   3.602   2.389 -0.6043 -1.3513  2.2225
11038TIP3   OH254528   3.247   1.434  13.263  0.2713  0.4483  0.6013
11038TIP3    H154529   3.309   1.504  13.241  1.7835 -0.9347  0.2867
11038TIP3    H254530   3.225   1.449  13.355  0.1635  1.6159  0.4018
11039TIP3   OH254531   6.498   1.038  14.094  0.0425  0.0295  0.2255
11039TIP3    H154532   6.441   0.979  14.144  0.0022 -0.6659 -0.6154
11039TIP3    H254533   6.567   0.981  14.060 -0.3815  0.3112 -1.1807
11040TIP3   OH254534   1.631   1.155   2.251 -0.3273  0.4972 -0.2088
11040TIP3    H154535   1.596   1.067   2.266  1.2457 -0.2484 -0.7102
11040TIP3    H254536   1.721   1.151   2.284  0.1278  1.5794 -1.2515
11041TIP3   OH254537   5.210   1.681   4.717 -0.3580 -0.5639  0.3832
11041TIP3    H154538   5.261   1.696   4.637  0.2026 -1.1723  0.6187
11041TIP3    H254539   5.165   1.764   4.733  1.4641  0.3941  0.8187
11042TIP3   OH254540   5.388   1.372   3.952 -0.1234 -0.0235  0.3257
11042TIP3    H154541   5.438   1.338   3.878  0.1295 -0.5231  0.7168
11042TIP3    H254542   5.325   1.303   3.972 -0.5204  0.3179  0.2664
11043TIP3   OH254543   5.677   0.339  13.699  0.6156 -0.2154  0.1302
11043TIP3    H154544   5.709   0.249  13.698  2.3655  0.3572 -1.5207
11043TIP3    H254545   5.583   0.331  13.715  0.0254 -2.6035 -3.4101
11044TIP3   OH254546   5.001   2.218  15.010  0.5818  0.5009 -0.9992
11044TIP3    H154547   4.998   2.124  15.024  1.2995  0.7205  0.8015
11044TIP3    H254548   4.932   2.253  15.066  1.0293  1.1394 -0.8404
11045TIP3   OH254549   2.103   1.955   4.208  0.0265  0.6195  0.1829
11045TIP3    H154550   2.147   2.019   4.151  1.3539  0.6385  1.1769
11045TIP3    H254551   2.173   1.923   4.266 -1.0915 -0.0916  1.1729
11046TIP3   OH254552   1.271   1.541   4.455  0.1975  0.0230 -0.0727
11046TIP3    H154553   1.359   1.572   4.433 -0.0968  0.1583 -1.0971
11046TIP3    H254554   1.218   1.560   4.378 -1.1328  1.4299  1.1179
11047TIP3   OH254555   0.896   3.886   2.970  0.4735  0.0387  0.3412
11047TIP3    H154556   0.936   3.812   3.016  1.7777  0.5018 -0.0031
11047TIP3    H254557   0.869   3.850   2.885  1.8145  0.1000 -0.1408
11048TIP3   OH254558   1.665   4.339   0.861 -0.2434 -0.2948 -0.2547
11048TIP3    H154559   1.642   4.286   0.785  1.1434  0.1089 -0.9862
11048TIP3    H254560   1.759   4.326   0.872 -0.2417  0.4368  0.7873
11049TIP3   OH254561   3.760   4.449  13.666  0.5621  0.1482 -0.1609
11049TIP3    H154562   3.825   4.516  13.646  0.5551  0.0074 -0.6989
11049TIP3    H254563   3.741   4.459  13.759 -0.4864  1.8195 -0.5096
11050TIP3   OH254564   0.182   3.562  15.815  0.0626 -0.1969  0.1768
11050TIP3    H154565   0.119   3.561  15.887  0.2158 -2.2765  0.3485
11050TIP3    H254566   0.164   3.644  15.768 -0.8194  0.6339  1.8775
11051TIP3   OH254567   0.612   6.246   0.633 -0.1344 -0.0752 -0.7119
11051TIP3    H154568   0.605   6.299   0.554  1.4742 -0.6338 -1.2519
11051TIP3    H254569   0.649   6.163   0.603 -1.1470 -0.9485  0.3655
11052TIP3   OH254570   5.362   4.493  16.133 -0.1142  0.6476 -0.3444
11052TIP3    H154571   5.443   4.465  16.176  0.0032 -3.9624 -2.8710
11052TIP3    H254572   5.391   4.559  16.069  1.5903 -0.4668 -0.7896
11053TIP3   OH254573   0.227   3.320  13.893  0.4236 -0.5446  0.7098
11053TIP3    H154574   0.216   3.273  13.810 -0.0928  0.7948 -0.0043
11053TIP3    H254575   0.321   3.316  13.910  0.7381  0.2703 -0.6353
11054TIP3   OH254576   1.446   2.296  15.573  0.0728 -0.4291  0.1818
11054TIP3    H154577   1.453   2.346  15.654  0.6561 -1.3942  0.7607
11054TIP3    H254578   1.491   2.349  15.508 -1.0033  0.6872  0.3138
11055TIP3   OH254579   5.891   6.544  14.799  0.9068 -0.1970 -0.0166
11055TIP3    H154580   5.800   6.573  14.810  0.6665 -0.7914 -0.4255
11055TIP3    H254581   5.909   6.490  14.875  0.7797 -0.4366 -0.1588
11056TIP3   OH254582   2.291   0.401   0.573  0.1274 -0.2665 -0.1872
11056TIP3    H154583   2.350   0.453   0.626  0.7659 -2.4949  1.4406
11056TIP3    H254584   2.345   0.368   0.501  0.2904 -0.4412  0.0149
11057TIP3   OH254585   3.808   4.703   1.239  0.0096 -0.2815 -0.1969
11057TIP3    H154586   3.748   4.709   1.164  0.5104 -0.4300 -0.6189
11057TIP3    H254587   3.778   4.771   1.299 -0.0443  0.2333 -0.7922
11058TIP3   OH254588   4.855   2.086   3.554 -0.7981 -0.1215  0.4799
11058TIP3    H154589   4.822   2.013   3.502  1.2651 -1.3498  0.7910
11058TIP3    H254590   4.913   2.133   3.494 -0.4969  0.0292  0.8891
11059TIP3   OH254591   1.501   0.585  13.587 -0.0394 -0.1092  0.4753
11059TIP3    H154592   1.430   0.550  13.534  0.3461 -1.0783  0.5899
11059TIP3    H254593   1.471   0.576  13.678  0.2893 -0.6778  0.5330
11060TIP3   OH254594   1.316   3.569   3.817  0.5682 -0.6159  0.2694
11060TIP3    H154595   1.386   3.634   3.819  0.7559 -0.6586 -2.0933
11060TIP3    H254596   1.342   3.504   3.883  1.2672  0.7789  1.4212
11061TIP3   OH254597   5.156   2.729   3.451 -0.6546  0.4432  0.1223
11061TIP3    H154598   5.061   2.722   3.459 -0.8500  0.1568 -1.8918
11061TIP3    H254599   5.169   2.784   3.374  0.8348  1.3731  0.9988
11062TIP3   OH254600   1.559   0.523   2.470  0.1177 -0.1820  0.0452
11062TIP3    H154601   1.591   0.559   2.387  1.7375  0.5709  0.9474
11062TIP3    H254602   1.509   0.595   2.509 -1.0758 -0.7023 -0.4651
11063TIP3   OH254603   3.371   2.924  11.700  0.1773 -0.4540 -0.2219
11063TIP3    H154604   3.421   2.856  11.745 -0.8074 -0.1816  1.3416
11063TIP3    H254605   3.308   2.877  11.646  1.5963 -0.7886 -1.6625
11064TIP3   OH254606   5.644   2.156  13.563  0.0701 -0.1597 -0.3779
11064TIP3    H154607   5.626   2.204  13.644 -0.8965 -0.3117 -0.4961
11064TIP3    H254608   5.725   2.108  13.582 -1.3432 -2.0768  1.3872
11065TIP3   OH254609   2.074   2.739  11.759 -0.2550  0.1449 -0.3030
11065TIP3    H154610   2.019   2.794  11.816  0.5824  1.2683 -0.5369
11065TIP3    H254611   2.015   2.671  11.727 -1.3375  0.9081  0.0041
11066TIP3   OH254612   2.650   5.890   6.638  0.2196 -0.7422 -0.4608
11066TIP3    H154613   2.676   5.870   6.549 -0.3678 -3.5812 -0.0700
11066TIP3    H254614   2.555   5.895   6.636  0.2700  0.9931 -0.2746
11067TIP3   OH254615   3.859   4.258  12.888 -0.1294 -0.1065  0.0145
11067TIP3    H154616   3.952   4.277  12.902 -0.5293  1.0350  1.2289
11067TIP3    H254617   3.815   4.288  12.967 -1.7744  1.1005 -1.2849
11068TIP3   OH254618   0.618   3.512  14.938 -0.0334  0.1642  0.5262
11068TIP3    H154619   0.701   3.526  14.984  0.0132 -0.4657  0.6381
11068TIP3    H254620   0.556   3.491  15.008  0.0996 -1.0744  0.2860
11069TIP3   OH254621   2.074   1.285  14.905  0.2332 -0.1773  0.0781
11069TIP3    H154622   2.119   1.330  14.833 -0.0714 -1.9542 -1.2794
11069TIP3    H254623   2.136   1.289  14.978  1.0310  0.6436 -0.6190
11070TIP3   OH254624   0.249   0.268  12.430 -0.3051  0.2303 -0.5089
11070TIP3    H154625   0.294   0.351  12.414  1.8615 -0.8646 -0.4255
11070TIP3    H254626   0.313   0.214  12.475 -2.1933 -0.9969  0.8565
11071TIP3   OH254627   4.231   6.479  15.669 -0.1219 -0.1526 -0.0696
11071TIP3    H154628   4.286   6.484  15.591 -1.4944  2.8671 -0.9735
11071TIP3    H254629   4.161   6.418  15.646  0.3800 -0.5374 -0.5870
11072TIP3   OH254630   1.139   3.009   1.748 -0.3935 -0.3922 -0.5351
11072TIP3    H154631   1.216   3.054   1.712  0.5480 -0.1639  1.6098
11072TIP3    H254632   1.175   2.931   1.791 -1.3569 -0.2566  0.5389
11073TIP3   OH254633   6.645   2.792  14.963 -0.6869  0.9655 -0.1546
11073TIP3    H154634   6.642   2.785  14.867 -0.1038  0.0967 -0.1203
11073TIP3    H254635   6.567   2.843  14.985 -0.3306  1.9886 -1.1544
11074TIP3   OH254636   4.499   6.195  11.598 -0.7394  0.1519 -0.4758
11074TIP3    H154637   4.425   6.143  11.566 -2.4425  1.2539  1.3884
11074TIP3    H254638   4.459   6.277  11.626  0.9558  0.2698  1.8753
11075TIP3   OH254639   3.421   1.359   5.034  0.2570  0.5570  0.3527
11075TIP3    H154640   3.380   1.277   5.058 -0.4316  0.4644 -1.0451
11075TIP3    H254641   3.493   1.334   4.976  0.3784  0.9026  0.3521
11076TIP3   OH254642   4.177   5.046  11.435  0.4440  0.4482  0.0132
11076TIP3    H154643   4.165   5.140  11.444  0.7837  0.3516  1.8359
11076TIP3    H254644   4.266   5.036  11.400 -0.4983  0.8278 -2.7077
11077TIP3   OH254645   1.340   5.563  11.425  0.1960  0.0791  0.6504
11077TIP3    H154646   1.384   5.638  11.385 -1.7642  1.9387  1.7710
11077TIP3    H254647   1.260   5.552  11.373 -1.0016  0.7555  2.2629
11078TIP3   OH254648   1.556   4.640  12.701 -0.4814  0.3087 -0.1832
11078TIP3    H154649   1.590   4.555  12.674 -0.3016 -0.8355  3.1403
11078TIP3    H254650   1.624   4.702  12.674 -0.7634 -0.4798 -2.9664
11079TIP3   OH254651   2.524   5.103   1.862 -0.5325 -0.3474  0.3946
11079TIP3    H154652   2.446   5.063   1.824 -0.3442 -1.1953  0.8610
11079TIP3    H254653   2.576   5.131   1.787 -1.4725  0.6133  0.0848
11080TIP3   OH254654   5.206   3.087   2.694  0.3441  0.1235  0.6394
11080TIP3    H154655   5.264   3.034   2.750 -0.2782 -0.1392  1.0466
11080TIP3    H254656   5.184   3.030   2.621 -0.5219 -0.2746  1.2028
11081TIP3   OH254657   4.406   5.629   2.731  0.2925 -0.0871 -0.2263
11081TIP3    H154658   4.440   5.706   2.687 -0.7531  1.2541  1.2084
11081TIP3    H254659   4.311   5.641   2.730  0.1775 -0.7102  1.1266
11082TIP3   OH254660   3.025   5.312  16.048 -0.4255  0.2386  0.5684
11082TIP3    H154661   2.976   5.285  16.125 -1.8740  2.1704  0.3867
11082TIP3    H254662   3.042   5.405  16.061  2.1963 -0.0881  0.0346
11083TIP3   OH254663   1.421   4.865   3.164 -1.2296 -0.1806  0.2852
11083TIP3    H154664   1.404   4.780   3.206 -1.2243 -0.3959 -0.1388
11083TIP3    H254665   1.516   4.870   3.158 -1.2171  0.0070  0.6078
11084TIP3   OH254666   6.111   0.113  12.064  0.0356 -0.4965  0.2395
11084TIP3    H154667   6.082   0.203  12.052 -1.0113 -1.0646 -1.9631
11084TIP3    H254668   6.030   0.063  12.074  0.5851 -1.2742  0.9301
11085TIP3   OH254669   1.810   2.074  13.459  0.4314 -0.6046 -0.2746
11085TIP3    H154670   1.786   2.159  13.498  3.1516  0.9162 -1.6598
11085TIP3    H254671   1.858   2.029  13.529  0.4769 -0.2653 -0.0815
11086TIP3   OH254672   4.629   2.193   1.009 -0.3053  0.4157  0.0827
11086TIP3    H154673   4.578   2.227   0.935  0.3814  0.0411 -0.5637
11086TIP3    H254674   4.621   2.098   1.002 -0.5603  0.3855  0.7237
11087TIP3   OH254675   4.431   0.471  11.605 -0.1327 -0.0801  0.0387
11087TIP3    H154676   4.337   0.450  11.601 -0.2531  0.3249  0.6142
11087TIP3    H254677   4.448   0.518  11.523 -1.2060  2.8360  1.3644
11088TIP3   OH254678   5.463   3.999  15.813 -0.2482  0.7001  0.0272
11088TIP3    H154679   5.415   4.081  15.816 -1.4940 -0.0231  0.5348
11088TIP3    H254680   5.469   3.978  15.720  1.0975  1.9116 -0.2000
11089TIP3   OH254681   0.189   3.224  11.486 -0.2275  0.3860 -0.2333
11089TIP3    H154682   0.198   3.253  11.395  1.0657 -0.6804 -0.4891
11089TIP3    H254683   0.115   3.164  11.485 -0.5117  0.7368 -0.4860
11090TIP3   OH254684   0.128   2.741  14.391 -0.8838 -0.4255 -0.4519
11090TIP3    H154685   0.190   2.776  14.454 -0.8698 -0.1407 -0.6181
11090TIP3    H254686   0.045   2.785  14.412 -0.4805  1.0529 -1.7534
11091TIP3   OH254687   3.348   6.358  11.670  0.0461 -0.4784 -0.2066
11091TIP3    H154688   3.331   6.298  11.598 -1.0371 -0.1535 -0.2487
11091TIP3    H254689   3.411   6.313  11.725  0.7129 -0.8268 -1.2354
11092TIP3   OH254690   3.417   1.644  15.367  0.1099  0.0702  0.0066
11092TIP3    H154691   3.372   1.720  15.332  2.5020  1.1206 -0.9912
11092TIP3    H254692   3.477   1.680  15.432  1.7323 -0.8557 -0.9278
11093TIP3   OH254693   2.692   0.709  15.189  0.9147 -0.5042 -0.5334
11093TIP3    H154694   2.675   0.615  15.175 -0.7380 -0.3544  0.2364
11093TIP3    H254695   2.671   0.750  15.105  0.6046 -0.7073 -0.5567
11094TIP3   OH254696   6.248   3.971  16.091 -0.1207  0.1764 -0.3112
11094TIP3    H154697   6.231   3.912  16.164 -2.0492 -0.0679 -0.9078
11094TIP3    H254698   6.213   4.056  16.120  1.8815  0.9025  0.2052
11095TIP3   OH254699   6.140   6.671   0.928 -0.2997 -0.3636  0.0880
11095TIP3    H154700   6.174   6.761   0.929 -1.4272  0.0759  0.9249
11095TIP3    H254701   6.079   6.668   1.002 -0.5364 -1.7269 -0.1408
11096TIP3   OH254702   5.046   4.225  12.691  0.1009  0.4612 -0.1658
11096TIP3    H154703   5.135   4.256  12.671  0.2817  0.0208 -0.0419
11096TIP3    H254704   5.010   4.292  12.749  0.3408  0.6560 -0.2376
11097TIP3   OH254705   6.615   0.336   5.104 -0.0265 -0.2785 -0.0921
11097TIP3    H154706   6.671   0.277   5.054 -0.1395  0.5482 -1.2302
11097TIP3    H254707   6.526   0.311   5.080 -0.1021 -0.3332  0.2397
11098TIP3   OH254708   1.641   6.449   2.510 -0.3558 -0.0470 -0.3149
11098TIP3    H154709   1.591   6.385   2.561  0.3173 -0.1683  0.1952
11098TIP3    H254710   1.628   6.532   2.555  0.5045 -0.2123  0.2538
11099TIP3   OH254711   3.922   1.943   0.940  0.0106 -0.1823 -0.1095
11099TIP3    H154712   3.938   1.916   1.031  1.5564  0.6945 -0.0927
11099TIP3    H254713   3.842   1.996   0.945  0.0047 -0.2509  0.7182
11100TIP3   OH254714   4.387   5.120  13.073  0.6547  0.2413  0.1095
11100TIP3    H154715   4.437   5.055  13.024  1.3875  1.6881 -1.1382
11100TIP3    H254716   4.335   5.165  13.006 -1.0791 -0.0960  1.1581
11101TIP3   OH254717   1.957   1.455  13.549 -0.3024 -0.1527 -0.6144
11101TIP3    H154718   1.915   1.541  13.546  0.0809  0.2181  1.9377
11101TIP3    H254719   2.050   1.473  13.540 -0.1120 -0.1029  1.0774
11102TIP3   OH254720   3.144   1.743   2.278 -0.1079 -0.6504 -0.0295
11102TIP3    H154721   3.070   1.747   2.339  0.2939  0.3206  0.4041
11102TIP3    H254722   3.192   1.664   2.304 -1.2091 -1.5464 -0.5963
11103TIP3   OH254723   3.918   1.429  16.041 -0.2236 -0.0957 -0.1274
11103TIP3    H154724   3.885   1.344  16.012  1.3151  0.3980 -3.8732
11103TIP3    H254725   3.853   1.492  16.008  0.7804  0.3906 -1.2640
11104TIP3   OH254726   0.746   6.073   4.169 -0.2254  0.1504  0.2063
11104TIP3    H154727   0.734   6.007   4.237 -1.1481  0.0980  0.0085
11104TIP3    H254728   0.673   6.059   4.109  0.6196  0.1364 -0.8564
11105TIP3   OH254729   3.020   5.283   5.803 -0.5417  0.9673  0.1280
11105TIP3    H154730   3.056   5.260   5.718 -0.2365  0.5828  0.3541
11105TIP3    H254731   2.976   5.203   5.833  0.3373  0.7350  0.8288
11106TIP3   OH254732   3.332   2.844   5.205  0.2739 -0.2498  0.0786
11106TIP3    H154733   3.276   2.902   5.153  1.2500 -0.9960 -1.9217
11106TIP3    H254734   3.272   2.805   5.270 -0.7713  1.5131  0.2384
11107TIP3   OH254735   3.208   2.669   2.595 -0.9244  0.4300 -0.2670
11107TIP3    H154736   3.249   2.689   2.512 -0.3352  0.3996  0.0151
11107TIP3    H254737   3.261   2.599   2.633  0.2782  2.0706  1.2411
11108TIP3   OH254738   4.208   6.004  13.497  0.1183 -0.3412 -0.0457
11108TIP3    H154739   4.191   5.948  13.572  0.4723 -0.3780  0.0124
11108TIP3    H254740   4.227   5.943  13.426 -1.8893 -0.3639 -0.6206
11109TIP3   OH254741   3.007   1.509  15.052 -0.3971 -0.0324 -0.2610
11109TIP3    H154742   3.020   1.603  15.047 -1.5963  0.2322  0.9048
11109TIP3    H254743   3.074   1.472  14.996  1.5496  1.4125  0.9998
11110TIP3   OH254744   2.181   2.908   5.300 -0.3062 -0.1202  0.4693
11110TIP3    H154745   2.220   2.977   5.354 -0.3139 -1.3166  2.0924
11110TIP3    H254746   2.089   2.904   5.328 -0.4540 -0.3887 -0.0390
11111TIP3   OH254747   4.349   5.238   0.059 -0.6885  0.2774 -0.2920
11111TIP3    H154748   4.422   5.276   0.110 -0.8884  1.6400 -0.9650
11111TIP3    H254749   4.387   5.222  -0.027 -0.6960 -0.8094 -0.1023
11112TIP3   OH254750   2.087   5.322   5.912  0.0442 -0.0914  0.4748
11112TIP3    H154751   2.004   5.343   5.955  0.5631  0.0597  1.4567
11112TIP3    H254752   2.152   5.374   5.961  0.6527  0.2052 -0.6071
11113TIP3   OH254753   1.171   0.728  16.247 -0.1334 -0.7837 -0.0638
11113TIP3    H154754   1.116   0.768  16.315  0.0573 -0.9377  0.1835
11113TIP3    H254755   1.223   0.662  16.294 -0.9161 -1.7892 -0.5592
11114TIP3   OH254756   0.814   1.167  13.810  0.4418  0.5767  0.5400
11114TIP3    H154757   0.862   1.176  13.728  0.8849  1.7791  0.9157
11114TIP3    H254758   0.735   1.219  13.797 -2.1073 -3.2086 -0.9600
11115TIP3   OH254759   5.974   0.723  15.716 -0.4318  0.5854  0.1132
11115TIP3    H154760   5.901   0.780  15.692  0.2210  0.6450 -1.8892
11115TIP3    H254761   5.938   0.666  15.785 -2.1307  1.1012 -0.3081
11116TIP3   OH254762   0.912   0.889   1.270  0.1722 -0.1536 -0.7815
11116TIP3    H154763   0.923   0.797   1.291  1.7396 -0.1969 -1.5965
11116TIP3    H254764   0.906   0.891   1.174 -0.6971  0.5292 -0.7290
11117TIP3   OH254765   4.954   1.325   4.077  0.6101 -0.2048  0.2071
11117TIP3    H154766   4.864   1.317   4.045 -0.1842 -1.6212  2.5768
11117TIP3    H254767   4.957   1.411   4.119  0.6143  0.1608 -0.5206
11118TIP3   OH254768   5.351   1.044   5.887  0.4577 -0.0533 -0.0630
11118TIP3    H154769   5.383   0.998   5.965 -0.1324  0.6643  0.6204
11118TIP3    H254770   5.347   1.136   5.914 -1.7863 -0.0629 -0.2269
11119TIP3   OH254771   0.916   3.838   5.143 -0.0456 -0.0176 -0.2124
11119TIP3    H154772   0.914   3.778   5.069  1.7407 -0.9093  0.4065
11119TIP3    H254773   0.842   3.897   5.128 -0.1616 -0.6131 -2.3176
11120TIP3   OH254774   3.916   5.816  12.707 -0.0763  0.6961  0.2467
11120TIP3    H154775   3.827   5.831  12.738  0.1189  2.6644 -0.0196
11120TIP3    H254776   3.949   5.746  12.764 -1.7475 -0.0381  0.3799
11121TIP3   OH254777   0.174   1.414  13.183  0.2721  0.0995 -0.1316
11121TIP3    H154778   0.212   1.484  13.130 -0.7536  0.0123 -1.0291
11121TIP3    H254779   0.151   1.346  13.119 -2.1977  0.5223  0.1998
11122TIP3   OH254780   0.108   5.186  16.498  0.4556  0.1329 -0.1591
11122TIP3    H154781   0.104   5.127  16.574  0.1449  0.2366 -0.0918
11122TIP3    H254782   0.053   5.144  16.432 -0.4351  0.7434  0.1730
11123TIP3   OH254783   3.525   6.495   3.002  0.0726 -0.2891  0.0373
11123TIP3    H154784   3.561   6.582   2.982  1.6676 -0.7282  0.8134
11123TIP3    H254785   3.492   6.503   3.091 -0.3396 -0.3223 -0.1112
11124TIP3   OH254786   2.467   4.076  14.838 -0.1239 -0.4023 -0.1072
11124TIP3    H154787   2.534   4.117  14.892 -0.1095  2.1101 -1.8592
11124TIP3    H254788   2.507   3.995  14.807  0.6675 -0.7872  1.7974
11125TIP3   OH254789   5.161   0.129  10.374 -0.1394  0.4378  0.9229
11125TIP3    H154790   5.093   0.107  10.438 -0.5135 -1.9139 -0.1987
11125TIP3    H254791   5.116   0.183  10.309 -0.7955 -0.4755  0.5903
11126TIP3   OH254792   3.855   1.774   0.733 -0.1097  0.1913 -0.2756
11126TIP3    H154793   3.840   1.849   0.675  3.4842  1.8093  0.6291
11126TIP3    H254794   3.891   1.812   0.813  1.2942 -2.4590  0.4704
11127TIP3   OH254795   5.930   3.770   2.806 -0.2221 -0.0119  0.5949
11127TIP3    H154796   6.004   3.769   2.867  0.9241  0.0428 -0.7499
11127TIP3    H254797   5.891   3.856   2.818  0.1317  0.0913  1.0722
11128TIP3   OH254798   5.734   2.061  15.105  0.2471 -0.1747 -0.5874
11128TIP3    H154799   5.706   1.985  15.156  0.4526  0.0647 -0.1129
11128TIP3    H254800   5.760   2.025  15.020  0.7881 -0.7005 -0.2084
11129TIP3   OH254801   1.398   2.365   1.280 -0.9181  0.7049 -0.0179
11129TIP3    H154802   1.460   2.435   1.260  1.4446 -0.4375  2.7288
11129TIP3    H254803   1.403   2.307   1.204  3.5668 -0.7004  1.0358
11130TIP3   OH254804   5.289   2.277   3.113 -0.3962 -0.1989  0.3599
11130TIP3    H154805   5.373   2.303   3.151  0.0090 -1.0444  0.0713
11130TIP3    H254806   5.255   2.357   3.072  0.5444  0.0198 -0.0173
11131TIP3   OH254807   2.094   2.875  11.424  0.2995 -0.1332  0.2687
11131TIP3    H154808   2.160   2.814  11.391  0.0026 -0.4748  0.3013
11131TIP3    H254809   2.017   2.858  11.371  0.6605  1.2947 -0.7894
11132TIP3   OH254810   6.396   3.147   2.932 -0.7979 -0.0311 -0.4110
11132TIP3    H154811   6.387   3.241   2.917 -2.6047  0.2740  2.0206
11132TIP3    H254812   6.311   3.111   2.907 -0.0829 -1.0897 -1.4337
11133TIP3   OH254813   6.533   2.793  12.476  0.4573 -0.2398 -0.5707
11133TIP3    H154814   6.502   2.707  12.503  1.4203 -0.3640  0.1611
11133TIP3    H254815   6.457   2.834  12.434 -0.3911 -0.9332  0.2572
11134TIP3   OH254816   5.593   1.437   4.540  0.4847 -0.0629  0.0522
11134TIP3    H154817   5.587   1.361   4.483  2.4632 -1.5506  1.6352
11134TIP3    H254818   5.503   1.462   4.558 -0.1876 -1.0809 -1.6949
11135TIP3   OH254819   3.703   3.779   4.399  0.0942 -0.1131 -0.1530
11135TIP3    H154820   3.645   3.849   4.368 -0.7425 -0.5878  0.3132
11135TIP3    H254821   3.775   3.778   4.336 -0.3278  0.5828 -0.6597
11136TIP3   OH254822   0.360   3.488  13.338  0.2240  0.1221  0.1969
11136TIP3    H154823   0.377   3.446  13.422 -0.1694 -0.0290  0.2017
11136TIP3    H254824   0.443   3.528  13.314  0.3254  0.2047  0.6814
11137TIP3   OH254825   6.255   5.669  12.929  0.2028 -0.4334  0.1658
11137TIP3    H154826   6.304   5.612  12.869  0.2169  1.2592 -1.5245
11137TIP3    H254827   6.164   5.640  12.922  0.5739 -2.0358  1.4884
11138TIP3   OH254828   6.378   3.067   2.436 -0.2156 -0.8460  0.1279
11138TIP3    H154829   6.289   3.052   2.466 -0.0725 -1.1425  0.4043
11138TIP3    H254830   6.403   2.986   2.392  0.5251 -1.4212  1.5520
11139TIP3   OH254831   0.135   1.097  11.983  0.0590 -0.3170 -0.3362
11139TIP3    H154832   0.075   1.158  11.941 -1.4167  0.8589  3.1515
11139TIP3    H254833   0.093   1.011  11.973 -1.4569  0.2733  0.6721
11140TIP3   OH254834   0.752   5.399   1.275  0.1912  0.0272  0.3435
11140TIP3    H154835   0.822   5.335   1.288  0.4458  0.1782 -0.2455
11140TIP3    H254836   0.671   5.347   1.277  0.2483 -0.0397  1.8310
11141TIP3   OH254837   5.326   0.920  10.637 -0.5112 -0.2499 -0.0867
11141TIP3    H154838   5.408   0.955  10.602 -1.6926 -0.1254 -3.0539
11141TIP3    H254839   5.333   0.825  10.627 -0.3834 -0.3069  0.5182
11142TIP3   OH254840   2.389   6.657  14.446  0.2553 -0.6085 -0.1348
11142TIP3    H154841   2.442   6.589  14.404 -1.2928 -2.8068  1.2281
11142TIP3    H254842   2.415   6.653  14.538  1.2328  1.8031 -0.2431
11143TIP3   OH254843   3.447   1.255  14.082  0.5868  0.9848  0.0792
11143TIP3    H154844   3.382   1.212  14.026  1.3943 -1.1226  0.6662
11143TIP3    H254845   3.455   1.343  14.045 -0.3059  0.2931 -1.9305
11144TIP3   OH254846   3.039   5.937   1.180 -0.1123  0.4800 -0.2784
11144TIP3    H154847   3.107   6.002   1.198 -2.0652  1.8580  2.9552
11144TIP3    H254848   2.967   5.987   1.141  0.1204 -0.6925 -2.3212
11145TIP3   OH254849   3.904   4.941   0.334  0.2743  1.1257  0.4704
11145TIP3    H154850   3.950   4.857   0.331 -0.8513  0.4021  1.8522
11145TIP3    H254851   3.909   4.975   0.245 -0.3001 -1.0147 -0.4367
11146TIP3   OH254852   0.233   5.655  14.989  0.2615  0.1497  0.4282
11146TIP3    H154853   0.169   5.670  15.058  1.2024 -0.0790  1.3863
11146TIP3    H254854   0.211   5.569  14.954 -1.5286  1.1259 -1.0653
11147TIP3   OH254855   4.962   0.296   1.476 -0.2251  0.5525 -0.1123
11147TIP3    H154856   5.037   0.318   1.530 -0.0206 -0.5668  0.0932
11147TIP3    H254857   4.899   0.367   1.491  0.7405  1.4468 -0.2175
11148TIP3   OH254858   1.236   2.446  15.992  0.6428 -0.3186  0.0676
11148TIP3    H154859   1.287   2.523  15.967 -2.0552  1.2317 -1.0850
11148TIP3    H254860   1.179   2.477  16.063  0.6103 -1.7059  0.6814
11149TIP3   OH254861   1.848   2.488   2.442 -0.1702 -0.3336 -0.5271
11149TIP3    H154862   1.886   2.531   2.365  0.5918 -1.2894 -0.7118
11149TIP3    H254863   1.880   2.398   2.437 -0.8620 -0.6499  0.4206
11150TIP3   OH254864   0.732   4.439   1.558 -0.2331 -1.1356  0.0367
11150TIP3    H154865   0.641   4.411   1.569 -0.9220  0.8078 -0.3130
11150TIP3    H254866   0.729   4.501   1.484  1.0423  0.2779  1.1069
11151TIP3   OH254867   4.469   1.244   4.503  0.4822  0.6488  0.3516
11151TIP3    H154868   4.486   1.313   4.567  1.4034  0.1032  0.7089
11151TIP3    H254869   4.553   1.231   4.459  0.3784 -0.4131  0.4567
11152TIP3   OH254870   3.806   3.195  16.143 -0.0572 -0.3214 -0.2832
11152TIP3    H154871   3.786   3.288  16.132  1.0244  0.1744  1.4977
11152TIP3    H254872   3.889   3.182  16.096 -0.2346 -0.4167 -0.5749
11153TIP3   OH254873   3.346   6.023  13.303  0.7429 -0.2729  0.4545
11153TIP3    H154874   3.292   6.001  13.378 -1.8397 -1.4746 -1.6277
11153TIP3    H254875   3.381   5.940  13.272  3.2458  0.3776  1.2090
11154TIP3   OH254876   5.569   5.190   3.503 -0.0547 -0.3096 -0.3974
11154TIP3    H154877   5.616   5.117   3.543  1.2048  0.0788 -1.1256
11154TIP3    H254878   5.576   5.261   3.566 -0.9156 -0.6589  0.1207
11155TIP3   OH254879   0.785   3.779   1.633 -0.0098 -0.3988 -0.3914
11155TIP3    H154880   0.808   3.690   1.605  1.8681  0.7118 -2.7333
11155TIP3    H254881   0.852   3.802   1.698  1.0214  0.1033 -1.5811
11156TIP3   OH254882   4.796   3.800   4.651  0.1977 -0.2339 -0.1001
11156TIP3    H154883   4.733   3.762   4.712 -1.7133  2.1193 -0.4381
11156TIP3    H254884   4.764   3.890   4.637  1.8385  0.0366 -2.7862
11157TIP3   OH254885   4.076   5.381   2.299  0.0241  0.4438 -0.1280
11157TIP3    H154886   4.136   5.374   2.225  0.3564  0.3421  0.1417
11157TIP3    H254887   4.125   5.434   2.363 -0.0327  0.0637  0.2317
11158TIP3   OH254888   3.566   2.600  16.665 -0.1867  0.1526  0.3695
11158TIP3    H154889   3.550   2.686  16.706  0.5151  0.7902 -0.6654
11158TIP3    H254890   3.514   2.539  16.718 -2.6122  1.5155 -0.2677
11159TIP3   OH254891   1.185   2.800   5.182  0.0528 -0.2074  0.1671
11159TIP3    H154892   1.128   2.795   5.106 -1.1069 -1.7723  1.0760
11159TIP3    H254893   1.243   2.724   5.175 -0.0431 -0.3510  0.8143
11160TIP3   OH254894   1.683   4.612  15.042  0.5524  0.0574 -0.4938
11160TIP3    H154895   1.684   4.641  14.950  1.3720 -1.7863 -1.1075
11160TIP3    H254896   1.722   4.685  15.090  0.7746  0.7684 -1.6986
11161TIP3   OH254897   1.271   5.001   2.475  0.9311  0.4597  0.5741
11161TIP3    H154898   1.353   4.998   2.426  1.1659  1.1104  0.9163
11161TIP3    H254899   1.289   5.059   2.549  0.4382 -0.1259  1.1678
11162TIP3   OH254900   6.469   0.450  10.802  0.1445 -0.0665  0.3752
11162TIP3    H154901   6.380   0.457  10.836  0.9084  1.5016  2.2892
11162TIP3    H254902   6.500   0.366  10.837 -0.4721 -0.4839 -0.0585
11163TIP3   OH254903   2.567   4.987   0.385  0.2672  0.4241  0.1665
11163TIP3    H154904   2.567   5.067   0.437  0.5539  0.9715 -0.6656
11163TIP3    H254905   2.566   5.016   0.294  1.6204 -0.4997 -0.1728
11164TIP3   OH254906   5.812   3.382  13.913 -0.3373 -0.3657  0.2043
11164TIP3    H154907   5.869   3.360  13.839  1.4948 -0.4778  1.5627
11164TIP3    H254908   5.838   3.320  13.982 -0.8260  0.7782  1.4672
11165TIP3   OH254909   3.077   4.213   3.379  0.0131 -0.0512 -0.0063
11165TIP3    H154910   3.139   4.141   3.381  0.9631  0.7653  1.1766
11165TIP3    H254911   3.106   4.268   3.306  0.2073 -0.0644  0.0628
11166TIP3   OH254912   2.347   4.784  10.988 -0.4177  0.0570  0.0282
11166TIP3    H154913   2.271   4.810  11.040 -0.6697 -0.6876  0.0458
11166TIP3    H254914   2.326   4.695  10.957  0.6943 -0.3942  0.5283
11167TIP3   OH254915   4.261   0.942   4.182 -0.5079 -0.1597 -1.0160
11167TIP3    H154916   4.243   0.989   4.100 -0.7865  1.3709 -0.1012
11167TIP3    H254917   4.288   1.010   4.243  2.6437 -1.6047 -0.6183
11168TIP3   OH254918   5.263   0.222  15.748  0.1827 -0.2297 -0.5276
11168TIP3    H154919   5.326   0.216  15.676  0.0891  0.2922 -0.6529
11168TIP3    H254920   5.178   0.236  15.705 -0.1966 -1.9014 -0.4205
11169TIP3   OH254921   4.112   2.010  11.860 -0.5596 -0.2068  0.1318
11169TIP3    H154922   4.081   1.920  11.874  1.0555 -0.9600 -0.9463
11169TIP3    H254923   4.032   2.062  11.856 -1.4987 -1.4256  1.7543
11170TIP3   OH254924   5.530   2.835   5.438 -0.2773 -0.9500  0.0691
11170TIP3    H154925   5.543   2.812   5.530  1.1033 -1.5379 -0.2345
11170TIP3    H254926   5.519   2.930   5.438 -0.5915 -0.9805  0.8684
11171TIP3   OH254927   5.035   5.620   5.164 -0.7390  0.2645 -0.5520
11171TIP3    H154928   5.100   5.562   5.203 -0.4158  0.4521 -0.8096
11171TIP3    H254929   5.071   5.708   5.174 -1.6118  0.5162  0.5934
11172TIP3   OH254930   2.791   6.528  13.409 -0.4932  0.1322 -0.0868
11172TIP3    H154931   2.827   6.613  13.382  1.0774 -0.5061 -0.0456
11172TIP3    H254932   2.845   6.463  13.364 -0.9953 -0.8694  0.7306
11173TIP3   OH254933   6.274   4.419  13.604 -0.7589 -0.0240 -0.3216
11173TIP3    H154934   6.189   4.389  13.636 -0.9660 -1.1157 -1.8047
11173TIP3    H254935   6.275   4.396  13.511  1.9957 -2.1320  0.0697
11174TIP3   OH254936   5.034   2.088   6.121 -0.0347 -0.1297 -0.1024
11174TIP3    H154937   5.034   2.063   6.029  0.8726 -1.0407  0.1325
11174TIP3    H254938   4.981   2.021   6.164  1.4230 -1.0202  0.3580
11175TIP3   OH254939   5.813   2.259   2.542 -0.1619  0.9028  0.4456
11175TIP3    H154940   5.761   2.189   2.503  1.6589  0.1985 -0.8760
11175TIP3    H254941   5.845   2.309   2.467  0.2943  1.8683  1.2628
11176TIP3   OH254942   4.761   2.130  14.561  0.7422  0.2293  0.7905
11176TIP3    H154943   4.846   2.137  14.516  0.1664  0.4292 -0.3033
11176TIP3    H254944   4.731   2.220  14.571  0.1346  0.1074  0.1304
11177TIP3   OH254945   4.118   1.949   4.299  0.2300 -0.3895  0.2964
11177TIP3    H154946   4.124   1.967   4.205  0.6805  0.1538  0.4283
11177TIP3    H254947   4.128   2.034   4.341 -0.5740 -0.5423  0.8243
11178TIP3   OH254948   3.086   4.613   5.740  0.2419 -0.2337 -0.7156
11178TIP3    H154949   3.155   4.579   5.796 -0.9625  1.6365  2.1291
11178TIP3    H254950   3.006   4.570   5.772 -0.5565  1.3179 -0.5258
11179TIP3   OH254951   1.564   2.408  12.585  0.1946  0.3720  0.2800
11179TIP3    H154952   1.554   2.445  12.673  0.0824 -0.0667  0.4521
11179TIP3    H254953   1.522   2.322  12.590  2.2094 -0.6597  0.4293
11180TIP3   OH254954   1.650   3.132   1.306 -0.0645  0.4883 -0.4072
11180TIP3    H154955   1.688   3.144   1.394 -0.7952 -1.5936  0.2591
11180TIP3    H254956   1.726   3.116   1.249  0.4040  1.6610 -0.1344
11181TIP3   OH254957   0.041   4.100  12.140  0.5890  0.0566 -0.5920
11181TIP3    H154958  -0.030   4.126  12.081 -1.3930 -0.1350  1.5347
11181TIP3    H254959   0.094   4.179  12.151  2.5807 -0.5164 -4.4351
11182TIP3   OH254960   6.206   5.315  12.042 -0.5336 -0.2216  0.1439
11182TIP3    H154961   6.204   5.326  12.138 -0.1901  0.6794  0.0620
11182TIP3    H254962   6.143   5.380  12.010  0.5285  0.6142 -0.3151
11183TIP3   OH254963   4.850   2.204  13.018 -0.3305  0.6719  0.0601
11183TIP3    H154964   4.881   2.279  12.968  0.2979  1.5493  1.7071
11183TIP3    H254965   4.833   2.137  12.952  0.5518  1.7486 -1.3115
11184TIP3   OH254966   4.013   0.530  11.871  0.1001 -0.4539 -0.0634
11184TIP3    H154967   4.076   0.514  11.801  2.1348  3.2300  0.6782
11184TIP3    H254968   4.067   0.552  11.947 -1.9542  3.4598  0.4752
11185TIP3   OH254969   5.806   2.191  10.794  0.2645 -0.2570 -0.2860
11185TIP3    H154970   5.829   2.284  10.799 -0.0485 -0.2165  0.4897
11185TIP3    H254971   5.753   2.175  10.872  0.9997 -1.2806  0.0213
11186TIP3   OH254972   2.631   1.617   4.068  0.4216 -0.4171  0.5457
11186TIP3    H154973   2.584   1.534   4.063 -0.8770  0.3087  0.3474
11186TIP3    H254974   2.563   1.684   4.077  1.4595  0.5867  1.3311
11187TIP3   OH254975   2.110   4.642  12.764 -0.0729  0.1528 -0.0008
11187TIP3    H154976   2.135   4.550  12.762 -0.4966  0.0271  0.5644
11187TIP3    H254977   2.185   4.687  12.803  0.3422  0.1234 -0.7378
11188TIP3   OH254978   5.378   4.142   1.641  0.9045  0.0842  0.0477
11188TIP3    H154979   5.324   4.221   1.641  2.1892  1.0016 -0.0323
11188TIP3    H254980   5.399   4.126   1.733  1.5417  0.4972 -0.0168
11189TIP3   OH254981   6.327   2.658   2.527  0.7718  0.2426  0.1823
11189TIP3    H154982   6.233   2.643   2.532  0.6438  0.5784 -0.8277
11189TIP3    H254983   6.348   2.708   2.606  0.3246 -0.8501  1.0068
11190TIP3   OH254984   6.040   2.235   3.829 -0.4979  0.0393  0.8679
11190TIP3    H154985   5.968   2.178   3.859 -2.1577  0.6109 -1.7368
11190TIP3    H254986   6.010   2.324   3.850  1.4756  0.1863  3.6655
11191TIP3   OH254987   0.161   6.637  11.464  0.1780 -0.1182  0.0345
11191TIP3    H154988   0.084   6.693  11.459  0.9334  0.8614 -1.1488
11191TIP3    H254989   0.154   6.581  11.387  0.5493 -0.1615  0.0333
11192TIP3   OH254990   6.479   2.436  15.181 -0.2076  0.0409  0.4469
11192TIP3    H154991   6.392   2.466  15.204  0.1345  1.2631  0.2135
11192TIP3    H254992   6.479   2.432  15.085  0.1957  0.7375  0.4079
11193TIP3   OH254993   1.287   1.334   5.745 -0.1610  0.0958  0.1626
11193TIP3    H154994   1.276   1.240   5.737  0.8522  0.0236 -0.6401
11193TIP3    H254995   1.374   1.345   5.782  0.4858  0.7271 -1.4557
11194TIP3   OH254996   6.780   0.438  11.642 -0.4768 -0.2668  0.0109
11194TIP3    H154997   6.832   0.373  11.689 -1.3508  0.9113  2.8131
11194TIP3    H254998   6.844   0.488  11.592  0.8248 -0.3436  1.5085
11195TIP3   OH254999   0.548   1.468  15.505  0.5814  0.1876 -0.0274
11195TIP3    H155000   0.585   1.546  15.546  1.2745  1.1400 -2.3033
11195TIP3    H255001   0.625   1.417  15.477  0.1842  0.3305 -1.4557
11196TIP3   OH255002   6.655   4.805  11.878  0.1068 -0.3234 -0.2784
11196TIP3    H155003   6.617   4.833  11.961  2.9565 -2.1605  1.8391
11196TIP3    H255004   6.628   4.714  11.869  1.4181 -0.7245 -0.3132
11197TIP3   OH255005   1.383   3.983  12.018  0.0996 -0.1927 -0.4770
11197TIP3    H155006   1.400   4.071  11.985 -2.1036  0.2274 -0.6183
11197TIP3    H255007   1.461   3.933  11.993  0.7311  1.3415 -1.7426
11198TIP3   OH255008   4.053   1.264   5.883 -0.4782  0.3904  0.1100
11198TIP3    H155009   3.971   1.243   5.927 -1.6821 -1.5235 -2.7858
11198TIP3    H255010   4.050   1.359   5.872 -0.7716  0.7622  2.7097
11199TIP3   OH255011   4.392   5.040   3.352  0.2053  0.7563  0.3339
11199TIP3    H155012   4.339   5.100   3.300  1.0359  1.2404  0.0353
11199TIP3    H255013   4.349   4.955   3.341 -1.1430  1.3305  0.9928
11200TIP3   OH255014   3.727   3.615  11.773 -0.6066  0.1187 -0.5240
11200TIP3    H155015   3.794   3.664  11.822 -0.9757 -0.6915  0.8409
11200TIP3    H255016   3.770   3.532  11.750 -0.5426  0.3630 -1.3108
11201TIP3   OH255017   2.685   5.945  13.639  0.4680 -0.0146 -0.3211
11201TIP3    H155018   2.591   5.958  13.647  0.4702 -0.6095  0.7733
11201TIP3    H255019   2.693   5.871  13.578  0.1709 -0.9102  0.7060
11202TIP3   OH255020   0.034   5.694  15.198 -0.5832  0.3020 -0.2716
11202TIP3    H155021  -0.026   5.639  15.146 -1.2160  1.5489 -0.9049
11202TIP3    H255022   0.062   5.637  15.270 -1.6207 -0.6892 -0.6149
11203TIP3   OH255023   4.606   6.180   5.675 -0.9925  0.4397 -0.0024
11203TIP3    H155024   4.627   6.106   5.732 -0.3136  1.8160  1.6064
11203TIP3    H255025   4.510   6.178   5.668 -0.9874 -0.5696 -0.0002
11204TIP3   OH255026   5.521   5.751   2.236 -0.0069  0.0102  0.3109
11204TIP3    H155027   5.487   5.708   2.314  0.3863 -1.0362 -0.0891
11204TIP3    H255028   5.449   5.808   2.207 -1.2742 -1.8119 -0.2547
11205TIP3   OH255029   2.186   1.738  16.284 -0.6439 -0.2559  0.4132
11205TIP3    H155030   2.246   1.785  16.343 -0.1730 -0.1291 -0.1495
11205TIP3    H255031   2.168   1.800  16.214 -0.5935 -0.6621  0.0330
11206TIP3   OH255032   3.467   1.535   0.092 -0.2210 -0.1348 -0.2256
11206TIP3    H155033   3.382   1.501   0.066 -0.1760  0.7998 -1.7208
11206TIP3    H255034   3.495   1.478   0.164 -2.1433 -0.3855  0.3790
11207TIP3   OH255035   2.888   0.539   3.154 -0.2362  0.1469  0.5257
11207TIP3    H155036   2.822   0.566   3.218 -0.4803  0.1439  0.2744
11207TIP3    H255037   2.838   0.513   3.077 -0.0048 -0.7498  0.6563
11208TIP3   OH255038   1.977   6.315   3.227 -0.2860 -0.6019  0.0221
11208TIP3    H155039   2.041   6.386   3.224 -0.5601 -0.3671 -2.6136
11208TIP3    H255040   1.914   6.342   3.294  1.0286  0.3463  0.9253
11209TIP3   OH255041   3.050   3.077  16.451  0.6748 -0.4181  0.3189
11209TIP3    H155042   2.979   3.056  16.390  0.4587  0.1537  0.3684
11209TIP3    H255043   3.096   3.150  16.410 -0.9080  1.6101  1.8934
11210TIP3   OH255044   5.043   0.384   1.951  0.8580 -0.3117  0.5225
11210TIP3    H155045   5.041   0.373   2.046  0.5441 -0.8270  0.4569
11210TIP3    H255046   4.972   0.445   1.933  0.5613 -0.6475  0.5596
11211TIP3   OH255047   1.979   5.452  11.672  0.1712  0.1869  0.6381
11211TIP3    H155048   2.063   5.496  11.662 -0.3398  0.8988 -0.9913
11211TIP3    H255049   1.939   5.458  11.585 -0.5930 -2.1594  0.7559
11212TIP3   OH255050   6.437   5.026   2.615 -0.6836  0.1619  0.0733
11212TIP3    H155051   6.499   5.073   2.671 -1.5312  0.4134  0.8263
11212TIP3    H255052   6.479   4.943   2.595 -0.7479 -0.3344  1.8768
11213TIP3   OH255053   3.637   0.840  14.683 -0.8244  0.3843 -0.0487
11213TIP3    H155054   3.651   0.791  14.602  0.2149  2.4109 -1.1765
11213TIP3    H255055   3.647   0.932  14.658 -2.6078  1.2262  1.9690
11214TIP3   OH255056   3.553   5.342  13.186 -0.4050  0.2329  0.4740
11214TIP3    H155057   3.529   5.387  13.105  1.4154  1.4482  0.5527
11214TIP3    H255058   3.614   5.401  13.230  2.1969 -2.2888  0.5701
11215TIP3   OH255059   1.020   2.049   4.760  0.2361 -0.0515  1.1276
11215TIP3    H155060   1.037   2.143   4.773 -1.5854  0.3853  0.6738
11215TIP3    H255061   1.056   2.007   4.837  2.3859  0.8274  0.6892
11216TIP3   OH255062   0.105   0.808   4.872  0.0071  0.3122 -0.2498
11216TIP3    H155063   0.122   0.771   4.959 -1.6097  1.6682  0.7221
11216TIP3    H255064   0.175   0.774   4.817  3.6141  2.5710  2.4730
11217TIP3   OH255065   4.289   6.621  13.541 -0.2911  0.6385  0.0865
11217TIP3    H155066   4.313   6.572  13.462  0.3116  1.7958 -0.4611
11217TIP3    H255067   4.372   6.652  13.577 -0.5007 -0.3424  1.5161
11218TIP3   OH255068   5.994   1.563   0.521  0.0160 -0.2357  0.6788
11218TIP3    H155069   5.987   1.477   0.563  1.7983 -1.2601 -0.9551
11218TIP3    H255070   6.080   1.596   0.548 -1.0002  1.5166  2.0138
11219TIP3   OH255071   6.674   0.508   4.631  0.0009 -0.2215 -0.2148
11219TIP3    H155072   6.612   0.489   4.702 -0.2234 -0.5022 -0.4825
11219TIP3    H255073   6.731   0.432   4.629  1.7395  0.9445  1.4531
11220TIP3   OH255074   4.759   4.759   1.211 -0.0051  0.4533  0.1939
11220TIP3    H155075   4.797   4.845   1.228  0.9037 -0.0897  1.0848
11220TIP3    H255076   4.665   4.772   1.218  0.1620  0.7514  3.8302
11221TIP3   OH255077   6.184   6.476   1.732 -0.2107 -0.1600  0.9337
11221TIP3    H155078   6.228   6.516   1.657 -2.9464 -0.1807 -0.7679
11221TIP3    H255079   6.183   6.546   1.798  0.7203  0.4030  0.3807
11222TIP3   OH255080   3.057   2.502   5.606 -0.0592 -0.0796  0.3618
11222TIP3    H155081   2.996   2.561   5.562 -1.7393 -2.0898 -0.1859
11222TIP3    H255082   3.105   2.557   5.667 -1.2225  1.8915 -0.4269
11223TIP3   OH255083   5.905   0.286   0.103  0.4944 -0.0540 -0.4163
11223TIP3    H155084   5.868   0.231   0.034  1.1289  1.6301 -2.1953
11223TIP3    H255085   5.877   0.375   0.080  0.1011  0.5009  1.9441
11224TIP3   OH255086   5.012   1.227   0.814 -0.4120 -0.4284 -0.1483
11224TIP3    H155087   4.965   1.165   0.869 -1.2486  0.0542 -0.2981
11224TIP3    H255088   4.954   1.303   0.808 -0.1111 -0.2639 -1.2632
11225TIP3   OH255089   4.569   1.530  12.190 -0.0912  0.6871  0.2574
11225TIP3    H155090   4.476   1.510  12.199 -0.1505  1.1717  0.7601
11225TIP3    H255091   4.573   1.625  12.187  0.3539  0.6561 -0.1926
11226TIP3   OH255092   2.989   1.164   6.227 -0.6835 -0.3579 -0.4164
11226TIP3    H155093   2.945   1.154   6.311 -0.0052  0.5474  0.0666
11226TIP3    H255094   3.076   1.198   6.249 -0.2449 -0.7720 -1.4393
11227TIP3   OH255095   6.766   6.179   6.095  0.5783 -0.1173 -0.0308
11227TIP3    H155096   6.819   6.252   6.063 -0.2592  0.1142 -0.9476
11227TIP3    H255097   6.689   6.179   6.039 -0.4405 -0.3911  1.3229
11228TIP3   OH255098   3.860   2.404  14.936 -0.7400 -0.4257 -0.2629
11228TIP3    H155099   3.940   2.392  14.988 -0.7324  1.2429  0.1452
11228TIP3    H255100   3.854   2.323  14.885  1.0616 -0.7184 -0.1022
11229TIP3   OH255101   2.461   0.552   4.585 -0.3037 -0.1207  0.5554
11229TIP3    H155102   2.513   0.471   4.583  1.8082  1.1410  1.0674
11229TIP3    H255103   2.388   0.532   4.643 -0.6731 -2.1229 -0.5398
11230TIP3   OH255104   4.301   4.162  12.331 -0.7001 -0.0658 -0.3629
11230TIP3    H155105   4.329   4.167  12.240 -2.4971 -0.4783 -0.9746
11230TIP3    H255106   4.304   4.068  12.352  1.5548  0.1564  0.6740
11231TIP3   OH255107   1.957   6.656   3.974  0.8598  0.2936  0.4231
11231TIP3    H155108   1.865   6.678   3.984  1.0407  1.6277 -0.5093
11231TIP3    H255109   1.961   6.604   3.894  0.9964  0.9093  0.0221
11232TIP3   OH255110   2.053   4.671  13.237  0.0467 -0.2946  0.0284
11232TIP3    H155111   2.064   4.739  13.304 -0.4774  0.2953 -0.4699
11232TIP3    H255112   2.114   4.695  13.168 -1.7763  1.0197 -1.1912
11233TIP3   OH255113   4.911   6.086  14.402  0.7584 -0.6811 -0.3469
11233TIP3    H155114   4.888   6.168  14.358  0.2929 -1.6845 -2.0552
11233TIP3    H255115   4.839   6.071  14.463  0.1289 -0.5277 -1.0434
11234TIP3   OH255116   2.637   2.947  14.067 -0.0901  0.2837 -0.2245
11234TIP3    H155117   2.680   2.914  13.988 -0.4436 -1.5008  0.2810
11234TIP3    H255118   2.547   2.965  14.039  0.2142  1.2825 -0.6050
11235TIP3   OH255119   1.492   6.783   1.691  0.4781  0.0170 -0.0741
11235TIP3    H155120   1.564   6.719   1.700  1.2921  0.5590 -2.1075
11235TIP3    H255121   1.536   6.868   1.692 -0.1927  0.3812 -0.8477
11236TIP3   OH255122   6.782   2.260   2.578  0.5698 -0.1733  0.7706
11236TIP3    H155123   6.701   2.237   2.532  0.6846 -1.4329  1.1692
11236TIP3    H255124   6.852   2.236   2.517  0.6596  0.5228  0.5952
11237TIP3   OH255125   0.223   3.729   4.037 -0.1439 -0.5840 -0.0289
11237TIP3    H155126   0.237   3.808   3.986  0.9969 -1.0048 -0.4029
11237TIP3    H255127   0.273   3.662   3.991  0.3658 -1.1235  1.2790
11238TIP3   OH255128   5.667   6.218  12.130 -0.1824  0.1982 -0.2817
11238TIP3    H155129   5.721   6.278  12.078  0.4808  0.7597  1.0102
11238TIP3    H255130   5.731   6.163  12.175 -0.7362  0.0309  0.3038
11239TIP3   OH255131   5.867   0.086   3.537  0.4506 -0.7328 -0.0556
11239TIP3    H155132   5.849  -0.005   3.513 -0.4953 -0.6620  0.3274
11239TIP3    H255133   5.860   0.088   3.632 -0.3498 -0.1098 -0.1133
11240TIP3   OH255134   0.558   3.946   1.738 -0.1159  0.1803 -0.2620
11240TIP3    H155135   0.634   3.955   1.680  0.7000 -1.0497  0.5399
11240TIP3    H255136   0.596   3.919   1.822 -1.4327 -0.2024  0.2365
11241TIP3   OH255137   6.224   5.053  14.041 -0.4769  0.0555  0.6376
11241TIP3    H155138   6.231   5.074  13.948 -1.9398  0.5977  0.6330
11241TIP3    H255139   6.315   5.044  14.070  0.0025  0.0046 -0.8078
11242TIP3   OH255140   4.141   5.910   3.385 -0.3722  0.1202  0.3480
11242TIP3    H155141   4.186   5.833   3.419 -1.5672 -1.6578 -1.8325
11242TIP3    H255142   4.207   5.956   3.333  0.1784  0.2456  1.1423
11243TIP3   OH255143   3.367   3.110   2.498 -0.1503 -0.6327 -0.0583
11243TIP3    H155144   3.376   3.205   2.500 -1.4820 -0.4495 -1.4951
11243TIP3    H255145   3.301   3.090   2.564 -0.1945 -0.5240 -0.0706
11244TIP3   OH255146   2.705   2.773  13.662 -0.0547 -0.3644 -0.0496
11244TIP3    H155147   2.753   2.777  13.744 -0.4180  0.8796  0.1215
11244TIP3    H255148   2.755   2.829  13.602 -1.8720  2.0054  0.4838
11245TIP3   OH255149   2.792   1.955  15.691 -0.4409  0.0017  0.2972
11245TIP3    H155150   2.757   1.868  15.673 -3.5870  1.3874 -1.1818
11245TIP3    H255151   2.725   1.996  15.747  1.3373  1.2316  1.6188
11246TIP3   OH255152   5.189   1.447  14.338  0.1976 -0.0604  0.1162
11246TIP3    H155153   5.252   1.378  14.354 -0.0583 -0.4824 -0.6414
11246TIP3    H255154   5.190   1.500  14.417 -2.9375 -3.4856  2.8130
11247TIP3   OH255155   0.303   4.629  11.803  0.1038  0.0681  0.3858
11247TIP3    H155156   0.336   4.588  11.882 -0.1017 -0.8208  0.0176
11247TIP3    H255157   0.379   4.673  11.765  0.5525 -0.8151  0.2544
11248TIP3   OH255158   3.221   5.177   2.508 -0.6289  0.4665 -0.0699
11248TIP3    H155159   3.168   5.128   2.445 -1.1194  0.0632  0.6419
11248TIP3    H255160   3.310   5.142   2.497 -0.9880 -0.6804  0.4888
11249TIP3   OH255161   5.652   3.782  15.352  0.2757 -0.0650  0.2191
11249TIP3    H155162   5.711   3.850  15.321  2.6637 -2.7819 -1.7660
11249TIP3    H255163   5.692   3.750  15.433 -0.7731  0.7542  1.0850
11250TIP3   OH255164   4.219   6.320  15.093 -0.3536 -0.1854  0.4949
11250TIP3    H155165   4.261   6.404  15.075  1.4087 -0.9690  0.6748
11250TIP3    H255166   4.155   6.338  15.161  1.7089  0.6091  2.3192
11251TIP3   OH255167   0.029   4.077   4.002  0.3256  0.1319  0.6293
11251TIP3    H155168   0.085   4.118   4.069 -1.4302  0.3872  2.0025
11251TIP3    H255169  -0.036   4.144   3.981  0.3797 -0.2298 -0.8100
11252TIP3   OH255170   2.259   4.595   0.793  0.3021  0.1361 -0.8740
11252TIP3    H155171   2.218   4.680   0.786 -2.6324 -1.0527  0.3154
11252TIP3    H255172   2.238   4.550   0.711 -0.6157 -0.3755 -0.3787
11253TIP3   OH255173   6.626   1.250  16.464 -0.0793  0.1845 -0.3624
11253TIP3    H155174   6.720   1.234  16.460  0.0095  0.7530 -0.5539
11253TIP3    H255175   6.618   1.336  16.505 -0.4932  0.4515 -0.9971
11254TIP3   OH255176   5.665   6.250   1.779  1.1171 -0.2980  0.2172
11254TIP3    H155177   5.672   6.284   1.690  1.2493 -0.5758  0.1182
11254TIP3    H255178   5.738   6.289   1.826  0.1615  1.0584  0.6140
11255TIP3   OH255179   2.759   3.796  16.171 -0.2287 -0.6569 -0.6028
11255TIP3    H155180   2.725   3.883  16.151  1.3692  0.1886  0.1997
11255TIP3    H255181   2.724   3.775  16.257 -2.4891 -1.8571 -1.7303
11256TIP3   OH255182   6.670   4.564   5.414  0.1365 -0.1666 -0.3664
11256TIP3    H155183   6.636   4.653   5.405 -1.3591 -0.6683 -0.0360
11256TIP3    H255184   6.752   4.574   5.463 -0.6757  0.9160  0.8416
11257TIP3   OH255185   3.384   3.057   2.814  1.1441 -0.3503 -0.2100
11257TIP3    H155186   3.386   3.145   2.776  1.2968 -0.0449  0.4817
11257TIP3    H255187   3.304   3.018   2.779 -0.0941  0.8460  1.1371
11258TIP3   OH255188   4.814   0.489  13.742 -0.8435  0.9105 -0.6655
11258TIP3    H155189   4.771   0.429  13.802  1.2817  1.0017  1.0691
11258TIP3    H255190   4.856   0.432  13.677 -0.8690  0.6713 -0.4702
11259TIP3   OH255191   2.123   0.233  16.934  0.3953 -0.4252  0.0755
11259TIP3    H155192   2.056   0.190  16.881 -1.8200 -0.2069  2.5412
11259TIP3    H255193   2.138   0.316  16.889 -1.4494 -0.2094 -0.2227
11260TIP3   OH255194   3.358   4.773   1.190 -0.0102  0.1321 -1.0165
11260TIP3    H155195   3.350   4.693   1.241  0.4321  0.1100 -0.9788
11260TIP3    H255196   3.299   4.835   1.233 -0.6988 -0.3054 -1.3171
11261TIP3   OH255197   4.838   4.390   1.890 -0.1182  0.5797  0.2275
11261TIP3    H155198   4.794   4.336   1.823  0.4252  0.2731  0.1132
11261TIP3    H255199   4.858   4.329   1.960  2.0334  0.2313 -0.6147
11262TIP3   OH255200   5.750   2.163  16.855 -0.0084  0.4029 -0.9892
11262TIP3    H155201   5.674   2.198  16.808 -2.7186 -1.2255  1.7806
11262TIP3    H255202   5.776   2.085  16.805 -1.0802  0.2093 -1.2696
11263TIP3   OH255203   0.025   1.460   2.728  0.2557  0.7793  0.5195
11263TIP3    H155204   0.008   1.428   2.639  0.7405 -0.0375  0.7108
11263TIP3    H255205  -0.061   1.488   2.760 -0.1777 -0.1924  0.2698
11264TIP3   OH255206   1.301   2.549   2.612 -0.1465  0.7754 -0.0985
11264TIP3    H155207   1.277   2.522   2.523 -0.0580  2.7390 -0.7685
11264TIP3    H255208   1.266   2.480   2.668 -3.6674  1.3312 -1.3532
11265TIP3   OH255209   0.782   4.653  13.580  0.1595  0.2826 -0.2127
11265TIP3    H155210   0.830   4.664  13.498 -1.0636 -0.0299 -0.9981
11265TIP3    H255211   0.781   4.740  13.620  2.4221  0.0795  0.4699
11266TIP3   OH255212   1.880   3.097   2.646 -0.0979  0.0551 -0.1531
11266TIP3    H155213   1.958   3.140   2.681  0.0229  0.6549 -1.1145
11266TIP3    H255214   1.823   3.169   2.618 -0.9529 -0.3813  0.4275
11267TIP3   OH255215   1.399   3.345  12.871  0.0263 -0.1782  0.3081
11267TIP3    H155216   1.358   3.391  12.944 -0.2632  0.2877 -0.1333
11267TIP3    H255217   1.488   3.381  12.867 -0.1293  0.1970  0.1029
11268TIP3   OH255218   5.361   3.080   5.461 -0.3292  0.1690 -0.2627
11268TIP3    H155219   5.320   3.047   5.541 -0.4895 -1.8543 -1.1176
11268TIP3    H255220   5.296   3.138   5.423 -0.2490  1.1566  1.0539
11269TIP3   OH255221   6.167   3.305  12.279  0.2828 -0.1233 -0.0078
11269TIP3    H155222   6.211   3.226  12.249  0.3796  0.7456 -2.3915
11269TIP3    H255223   6.238   3.363  12.306  0.3960  0.0414 -0.6397
11270TIP3   OH255224   1.272   1.262  16.933 -0.4450 -0.1609 -0.1494
11270TIP3    H155225   1.314   1.328  16.878  0.2705 -0.4669  0.0177
11270TIP3    H255226   1.337   1.242  16.999 -0.8874 -0.6050  0.1560
11271TIP3   OH255227   1.826   5.161   0.808 -0.4301 -0.2837 -0.0086
11271TIP3    H155228   1.834   5.088   0.870 -1.1440 -1.3774 -1.1440
11271TIP3    H255229   1.818   5.118   0.723  3.5587  1.1736 -1.3289
11272TIP3   OH255230   2.663   3.655  16.440 -0.3574  0.1577 -0.2548
11272TIP3    H155231   2.740   3.644  16.495 -0.5123 -1.0987 -0.2779
11272TIP3    H255232   2.588   3.645  16.500 -0.5185  0.0225 -0.4782
11273TIP3   OH255233   4.115   5.067  14.535  0.1960 -0.2797  0.1555
11273TIP3    H155234   4.123   4.972  14.530  1.0943 -0.2064 -0.1213
11273TIP3    H255235   4.149   5.089  14.621 -0.9667 -0.2877  0.6239
11274TIP3   OH255236   6.322   6.780   3.161  0.8027 -0.2874  0.4933
11274TIP3    H155237   6.251   6.749   3.104  0.1392 -0.1666  1.2455
11274TIP3    H255238   6.366   6.701   3.190  0.5254 -0.4023  0.6013
11275TIP3   OH255239   0.026   4.624   4.425 -0.1795  0.1098  0.1712
11275TIP3    H155240   0.001   4.684   4.355  1.6293 -2.3475 -2.8614
11275TIP3    H255241   0.115   4.651   4.450 -0.4832  0.4300  0.9614
11276TIP3   OH255242   0.471   2.606  14.566  0.2222 -0.4192 -0.8846
11276TIP3    H155243   0.473   2.557  14.648  1.1120 -0.2517 -0.7965
11276TIP3    H255244   0.439   2.693  14.591  2.0948  0.1791 -0.3847
11277TIP3   OH255245   1.985   0.343   0.176 -0.4536 -0.0638 -0.0398
11277TIP3    H155246   1.955   0.339   0.266  0.8750 -0.1266  0.4197
11277TIP3    H255247   1.915   0.390   0.129 -1.6330 -0.9400  0.7850
11278TIP3   OH255248   4.077   6.131  12.987 -0.1835  0.4102  0.5988
11278TIP3    H155249   4.014   6.060  12.970  0.1599  0.2469 -0.0490
11278TIP3    H255250   4.055   6.198  12.921 -0.8765  1.1689  1.5724
11279TIP3   OH255251   4.099   1.730   2.860  0.1606  0.0743  0.2904
11279TIP3    H155252   4.141   1.669   2.921  0.0155 -0.0474  0.2714
11279TIP3    H255253   4.143   1.813   2.874  0.2197  0.0135  0.4649
11280TIP3   OH255254   5.698   3.124  11.326  0.4040  0.3432  0.0527
11280TIP3    H155255   5.719   3.060  11.258 -2.2178 -1.7840  1.0895
11280TIP3    H255256   5.752   3.098  11.401 -0.3024 -0.3953  0.3166
11281TIP3   OH255257   4.150   1.959   5.700 -0.4083  0.1949  0.3641
11281TIP3    H155258   4.206   1.892   5.739 -0.1561  0.8113  1.0786
11281TIP3    H255259   4.061   1.932   5.723 -0.2896  0.2817  0.9541
11282TIP3   OH255260   3.364   5.328   1.825 -0.0928 -0.0666 -0.1104
11282TIP3    H155261   3.358   5.273   1.903  1.8661 -0.8901 -0.4978
11282TIP3    H255262   3.291   5.390   1.835 -0.6722 -0.9550  1.7157
11283TIP3   OH255263   2.649   6.659   1.713 -0.0654  0.5116  0.5404
11283TIP3    H155264   2.566   6.621   1.740 -0.1999  0.3438 -0.0772
11283TIP3    H255265   2.693   6.684   1.794 -0.8991  0.9850  0.8508
11284TIP3   OH255266   4.574   5.315  12.276 -0.1174  0.3719  0.1602
11284TIP3    H155267   4.641   5.381  12.254 -0.1199 -0.6370 -3.5001
11284TIP3    H255268   4.491   5.356  12.251 -0.3064 -0.2803 -0.3109
11285TIP3   OH255269   4.119   3.321  14.806  0.3011 -0.7525 -0.1789
11285TIP3    H155270   4.174   3.358  14.876 -0.7617  0.2227  0.1858
11285TIP3    H255271   4.037   3.369  14.813  0.5454  0.2209 -2.8752
11286TIP3   OH255272   3.009   4.090  12.652  0.1052  0.1388 -0.0766
11286TIP3    H155273   3.092   4.044  12.668 -0.4753 -0.3447  1.7850
11286TIP3    H255274   2.950   4.022  12.621  0.2695  0.3992 -0.9814
11287TIP3   OH255275   5.908   2.189   0.235 -0.3225 -0.1605 -0.5120
11287TIP3    H155276   5.834   2.160   0.182 -1.1020  1.7261 -0.5194
11287TIP3    H255277   5.871   2.206   0.322 -0.3375  2.4021 -0.9312
11288TIP3   OH255278   6.516   6.731  16.062  0.5898 -0.3968  0.0407
11288TIP3    H155279   6.536   6.719  16.155 -0.5130  0.0438  0.3479
11288TIP3    H255280   6.602   6.742  16.021  1.0963 -0.6655  0.9948
11289TIP3   OH255281   5.190   1.058  10.856 -0.6704  0.1225  0.7799
11289TIP3    H155282   5.117   1.003  10.886 -2.0636  1.6335  0.2859
11289TIP3    H255283   5.234   1.005  10.790 -3.1328  0.2296 -1.1000
11290TIP3   OH255284   4.707   5.462  17.154  0.3804  0.5557 -0.5116
11290TIP3    H155285   4.649   5.538  17.169 -1.2541 -0.9004  0.9665
11290TIP3    H255286   4.765   5.462  17.230 -0.8547 -0.6812  0.4835
11291TIP3   OH255287   2.324   6.552   2.234 -0.5994 -0.3266  0.3080
11291TIP3    H155288   2.293   6.561   2.324  0.8479  0.1483  0.7953
11291TIP3    H255289   2.279   6.622   2.187 -0.9482 -0.2223  0.7785
11292TIP3   OH255290   4.181   1.524   0.729  0.1887 -0.1234 -0.4332
11292TIP3    H155291   4.213   1.613   0.739  1.1436 -0.4166 -0.7602
11292TIP3    H255292   4.194   1.483   0.814  0.7423 -0.2600 -0.5839
11293TIP3   OH255293   2.899   5.992   2.799  0.4474  0.1371  0.2862
11293TIP3    H155294   2.876   6.007   2.891 -2.6319 -2.1664  0.0744
11293TIP3    H255295   2.870   6.070   2.753 -0.2033  0.3211  0.9946
11294TIP3   OH255296   4.667   5.705   1.135  0.0294  0.1258  0.6233
11294TIP3    H155297   4.664   5.610   1.125 -0.6245  0.1448  0.6318
11294TIP3    H255298   4.581   5.728   1.170  1.0935  0.4077  3.2852
11295TIP3   OH255299   1.613   0.187   0.974  0.7625 -0.7279 -0.2402
11295TIP3    H155300   1.592   0.159   0.885 -0.4668  0.0841 -0.2253
11295TIP3    H255301   1.531   0.176   1.023  1.3390 -0.8638  0.7117
11296TIP3   OH255302   2.360   4.219  10.549  0.0122 -0.0060  0.3985
11296TIP3    H155303   2.267   4.237  10.535 -0.5547 -2.1101  1.1878
11296TIP3    H255304   2.363   4.157  10.622  1.9749 -0.7145 -0.2002
11297TIP3   OH255305   0.546   5.688   3.185  0.4425  0.9248 -0.2021
11297TIP3    H155306   0.635   5.675   3.217  1.1749  1.1881 -1.9665
11297TIP3    H255307   0.493   5.623   3.231  1.8308 -0.2674 -0.2237
11298TIP3   OH255308   6.769   5.373   3.838 -0.3122  0.1313  0.2044
11298TIP3    H155309   6.833   5.302   3.834 -0.4860 -0.1445  1.6740
11298TIP3    H255310   6.751   5.383   3.932 -2.5453  0.0994 -0.1795
11299TIP3   OH255311   1.639   1.012   0.466 -0.2031 -0.2080 -0.1514
11299TIP3    H155312   1.718   0.983   0.512  0.5394  1.1764 -0.5032
11299TIP3    H255313   1.641   0.966   0.383  1.6242  1.6728 -1.2221
11300TIP3   OH255314   6.303   3.943   0.290 -0.2190 -0.6744  0.0604
11300TIP3    H155315   6.395   3.924   0.311  0.1220 -0.2425 -0.9916
11300TIP3    H255316   6.305   3.975   0.200 -1.3582 -0.2639  0.1688
11301TIP3   OH255317   1.366   0.461   1.797 -0.2056 -0.3042 -0.0647
11301TIP3    H155318   1.313   0.415   1.732  0.1576 -1.4435  0.4281
11301TIP3    H255319   1.335   0.427   1.882  0.9040 -0.5453  0.2522
11302TIP3   OH255320   4.946   1.151   3.774 -0.1890  0.1842 -0.5944
11302TIP3    H155321   4.891   1.075   3.754 -0.9266  0.6089 -0.2384
11302TIP3    H255322   4.884   1.220   3.799  0.5534  0.2076  1.4157
11303TIP3   OH255323   6.057   0.909  15.089  0.2479  0.1641 -0.5297
11303TIP3    H155324   6.074   0.984  15.145  1.6109 -0.2546 -0.3542
11303TIP3    H255325   6.086   0.833  15.141  0.9957 -0.2796 -1.5750
11304TIP3   OH255326   5.590   6.327  10.945  0.0985 -0.4458  0.0847
11304TIP3    H155327   5.564   6.342  10.854 -1.3053  1.4648  0.7472
11304TIP3    H255328   5.652   6.397  10.964 -2.2891  1.4205  1.5806
11305TIP3   OH255329   5.222   3.627   0.790 -0.0289 -0.1423  0.6922
11305TIP3    H155330   5.167   3.661   0.860 -0.1023  0.2036  0.4668
11305TIP3    H255331   5.258   3.705   0.747 -0.8089 -0.3277 -0.3217
11306TIP3   OH255332   5.883   5.198  14.340 -0.1565 -0.2738 -0.2489
11306TIP3    H155333   5.914   5.244  14.419  1.0573  0.0409 -0.8862
11306TIP3    H255334   5.955   5.140  14.317 -0.8320 -0.9508 -0.6797
11307TIP3   OH255335   5.620   4.310  15.279 -0.2586 -0.5553  0.4594
11307TIP3    H155336   5.662   4.225  15.267  1.1356 -0.0009  1.1473
11307TIP3    H255337   5.628   4.353  15.194 -0.8168 -1.0283  0.1579
11308TIP3   OH255338   4.676   5.838   0.673  0.2415  0.2260 -0.6387
11308TIP3    H155339   4.679   5.922   0.628  1.4444  0.5818  0.0243
11308TIP3    H255340   4.720   5.855   0.757 -0.5212 -0.7845 -0.0136
11309TIP3   OH255341   4.546   5.070   1.967  0.2339  0.0507  0.1965
11309TIP3    H155342   4.531   5.012   2.042 -0.6964 -0.6533 -0.5108
11309TIP3    H255343   4.617   5.029   1.919 -0.2952 -0.4212 -0.1994
11310TIP3   OH255344   2.605   1.929  13.087  0.6615 -0.4751 -0.7369
11310TIP3    H155345   2.572   2.011  13.049  0.1364 -0.6757 -0.7248
11310TIP3    H255346   2.583   1.936  13.180 -2.3894 -2.0220 -1.2326
11311TIP3   OH255347   1.535   5.241   5.510 -0.0514 -0.1802  0.0499
11311TIP3    H155348   1.585   5.309   5.555  0.1465 -0.6968  0.6255
11311TIP3    H255349   1.563   5.159   5.551  0.6026 -0.7338 -1.4447
11312TIP3   OH255350   0.059   2.657   0.676  0.2663  0.1497  0.1400
11312TIP3    H155351   0.082   2.571   0.711  0.0749  0.1201  0.1916
11312TIP3    H255352   0.061   2.645   0.581  0.6007  0.1825  0.1433
11313TIP3   OH255353   0.116   3.476  14.110 -0.2907 -0.6964 -0.2327
11313TIP3    H155354   0.139   3.440  14.025  0.9054  2.0760 -1.1830
11313TIP3    H255355   0.198   3.477  14.159 -0.1256  1.2666 -0.4859
11314TIP3   OH255356   1.742   5.478  14.896  0.2604  0.2716  0.6153
11314TIP3    H155357   1.652   5.508  14.881  1.0772  1.9060 -1.3174
11314TIP3    H255358   1.767   5.436  14.814  1.1438 -0.5697  1.2958
11315TIP3   OH255359   0.197   2.616  11.656 -0.0871 -0.1186 -0.5122
11315TIP3    H155360   0.192   2.655  11.743  0.5209  0.4721 -0.7263
11315TIP3    H255361   0.131   2.663  11.605  0.6376  0.6566 -0.7673
11316TIP3   OH255362   4.069   4.436   0.373 -0.4853  0.1547  0.1729
11316TIP3    H155363   4.002   4.387   0.421  0.5785 -0.4553  1.1000
11316TIP3    H255364   4.152   4.404   0.409  0.3409  0.3367 -1.4602
11317TIP3   OH255365   5.491   1.394   0.427 -0.7695  0.3769 -0.7346
11317TIP3    H155366   5.529   1.458   0.368  0.3039  1.5195  1.0896
11317TIP3    H255367   5.562   1.371   0.487 -2.2756  0.7558  1.2938
11318TIP3   OH255368   6.379   0.757  17.103  0.2445 -0.3601  0.0447
11318TIP3    H155369   6.420   0.823  17.047  1.7625  0.4854  2.0373
11318TIP3    H255370   6.290   0.790  17.117  0.2265  0.0187 -0.8870
11319TIP3   OH255371   2.603   5.668  14.078 -0.0498 -0.2320  0.3662
11319TIP3    H155372   2.685   5.630  14.047  1.3588  0.0731  3.3424
11319TIP3    H255373   2.607   5.760  14.051  0.9394 -0.0657  1.0238
11320TIP3   OH255374   4.165   0.850  16.477  0.5939  0.3121  0.5072
11320TIP3    H155375   4.077   0.842  16.439  1.1743 -0.6736 -0.6841
11320TIP3    H255376   4.215   0.900  16.413  1.2100 -0.1115  0.6453
11321TIP3   OH255377   3.985   3.167  11.075  0.2425 -0.2615 -0.0871
11321TIP3    H155378   4.060   3.117  11.045  0.4064 -0.0468 -0.0352
11321TIP3    H255379   3.979   3.240  11.014  0.5562  0.1567  0.3836
11322TIP3   OH255380   6.123   2.124  12.956  0.8714  0.0965 -0.2766
11322TIP3    H155381   6.072   2.197  12.922  0.6617 -0.6371 -1.6017
11322TIP3    H255382   6.178   2.096  12.883  2.6480  0.3747  0.8917
11323TIP3   OH255383   3.152   2.308  16.940 -0.3965 -0.6761  0.4273
11323TIP3    H155384   3.098   2.330  16.864 -0.4856  2.1390  1.2091
11323TIP3    H255385   3.190   2.223  16.918  0.7078  0.6074 -3.4441
11324TIP3   OH255386   2.949   1.048   3.862  0.6532 -0.5527  0.2201
11324TIP3    H155387   2.867   0.998   3.855  0.7991 -0.6738 -0.7165
11324TIP3    H255388   2.943   1.091   3.948  0.4986 -2.1451  1.0503
11325TIP3   OH255389   5.471   1.398   2.171 -0.0966 -0.4189  0.2900
11325TIP3    H155390   5.522   1.464   2.124  0.9406 -2.9579 -2.4542
11325TIP3    H255391   5.534   1.359   2.232 -0.2813  0.0676  0.7963
11326TIP3   OH255392   3.120   2.118   4.985  0.4133 -0.0734  0.7744
11326TIP3    H155393   3.122   2.197   5.039  1.5704  1.3941 -1.2519
11326TIP3    H255394   3.173   2.055   5.033  0.2490  0.6800  1.9943
11327TIP3   OH255395   6.299   1.868  16.802 -0.5486 -0.4955  0.2062
11327TIP3    H155396   6.252   1.796  16.844 -1.0873  1.0786  2.4641
11327TIP3    H255397   6.388   1.861  16.837 -0.3205 -0.6716 -0.3998
11328TIP3   OH255398   3.509   0.344   5.224 -0.1578  0.4949  0.3345
11328TIP3    H155399   3.517   0.284   5.298  0.5025  0.3329  0.1365
11328TIP3    H255400   3.589   0.397   5.226 -0.2179  0.6124 -0.1545
11329TIP3   OH255401   0.091   0.371   3.587 -0.4547  0.3694  0.3609
11329TIP3    H155402   0.148   0.437   3.549  0.8412 -0.5719  0.6131
11329TIP3    H255403   0.023   0.357   3.521 -2.9556  4.4894  1.6769
11330TIP3   OH255404   5.717   5.676  14.132  1.0530 -0.4199 -0.0608
11330TIP3    H155405   5.648   5.610  14.124  0.1203  0.6661 -1.8010
11330TIP3    H255406   5.794   5.627  14.158 -0.0647 -1.8780  0.6788
11331TIP3   OH255407   2.680   5.729   0.691  0.4968 -0.3142  0.7175
11331TIP3    H155408   2.709   5.801   0.634 -0.1545 -0.2803  0.4249
11331TIP3    H255409   2.605   5.691   0.645 -0.5552  0.2280  1.9184
11332TIP3   OH255410   0.318   4.903   2.709 -0.6037  0.2099 -0.0687
11332TIP3    H155411   0.298   4.948   2.626 -3.2367 -1.4161 -0.4383
11332TIP3    H255412   0.387   4.955   2.748 -1.6363  3.0419 -1.6905
11333TIP3   OH255413   2.642   6.647  15.513 -0.3202  0.6315  0.0098
11333TIP3    H155414   2.735   6.653  15.494 -0.5778  0.3615 -1.5038
11333TIP3    H255415   2.621   6.726  15.563  0.8575  0.2850  1.1060
11334TIP3   OH255416   1.490   2.158  14.445  0.2567 -0.4097  0.0877
11334TIP3    H155417   1.521   2.115  14.366 -0.3926 -0.1127 -0.3453
11334TIP3    H255418   1.569   2.181  14.493  0.6277 -1.4081 -0.0338
11335TIP3   OH255419   4.883   1.911  12.214  0.0830  0.2322 -0.0423
11335TIP3    H155420   4.862   1.907  12.121 -1.1793 -0.1262  0.2358
11335TIP3    H255421   4.798   1.915  12.258  0.5197 -2.0957  1.2134
11336TIP3   OH255422   2.817   3.783   2.586  0.3918  0.2337  0.0957
11336TIP3    H155423   2.903   3.743   2.579  0.8655  1.3672 -0.9858
11336TIP3    H255424   2.830   3.861   2.640 -0.2280 -0.2660  0.9948
11337TIP3   OH255425   6.750   5.671  15.903 -0.1912  0.1296 -0.7999
11337TIP3    H155426   6.830   5.632  15.866 -1.0450 -0.2838 -2.2723
11337TIP3    H255427   6.731   5.617  15.980  1.2877  0.6439 -0.0163
11338TIP3   OH255428   2.864   0.648   4.584 -0.3516 -0.1511 -0.4005
11338TIP3    H155429   2.893   0.621   4.496  0.1494  2.4850 -1.1268
11338TIP3    H255430   2.849   0.742   4.577 -1.8827 -0.1377  1.9646
11339TIP3   OH255431   2.003   0.201   1.990  0.2057 -0.1173  0.0619
11339TIP3    H155432   2.026   0.288   2.024 -2.2854  0.9441 -0.6897
11339TIP3    H255433   2.036   0.201   1.900 -3.0065  1.6856 -1.2710
11340TIP3   OH255434   6.400   1.750   6.077 -0.2089 -0.3410  0.2594
11340TIP3    H155435   6.444   1.666   6.086  1.3791  0.2658 -1.1260
11340TIP3    H255436   6.355   1.764   6.160  2.6280 -0.8184  1.9992
11341TIP3   OH255437   2.058   2.770   5.917 -0.2720  0.4477 -0.5180
11341TIP3    H155438   2.124   2.709   5.950 -0.8594  0.0407 -0.0834
11341TIP3    H255439   2.039   2.739   5.828  1.0773  1.3565 -1.1628
11342TIP3   OH255440   3.752   4.348  13.149 -0.3202  0.2886  0.4831
11342TIP3    H155441   3.836   4.378  13.184  0.2378 -0.8818  0.1732
11342TIP3    H255442   3.689   4.370  13.218  0.5252 -0.5262  1.5429
11343TIP3   OH255443   0.054   0.648  11.230  0.1980  0.2216  0.3762
11343TIP3    H155444   0.047   0.578  11.165 -1.0682  0.0934  0.6236
11343TIP3    H255445   0.148   0.665  11.236  0.9414 -3.4331  2.4162
11344TIP3   OH255446   5.590   5.797   4.588  0.2595 -0.6380  0.1108
11344TIP3    H155447   5.645   5.766   4.660  1.4136 -1.5599 -1.1339
11344TIP3    H255448   5.543   5.720   4.559 -1.2709  0.0172  0.7441
11345TIP3   OH255449   2.025   3.785  16.555  0.2722  0.0386  0.2592
11345TIP3    H155450   1.959   3.845  16.590  1.2473  1.1628  0.2290
11345TIP3    H255451   2.043   3.819  16.467  2.8395  1.4208  1.2386
11346TIP3   OH255452   0.866   1.805  10.900 -0.3171  0.2460 -0.6249
11346TIP3    H155453   0.958   1.829  10.901 -0.4192  0.7421  1.0408
11346TIP3    H255454   0.844   1.794  10.993 -1.8541 -0.1547 -1.0118
11347TIP3   OH255455   0.240   1.151  12.527 -0.6184  0.5568  0.1341
11347TIP3    H155456   0.212   1.117  12.442 -0.3771  0.1597  0.2121
11347TIP3    H255457   0.315   1.097  12.551 -0.6449  0.7100  0.5719
11348TIP3   OH255458   1.475   3.991  16.536  0.1585  0.5945 -0.2886
11348TIP3    H155459   1.466   4.081  16.505 -1.0802  0.1430 -1.3141
11348TIP3    H255460   1.451   3.995  16.629 -2.2287  0.9961 -0.8458
11349TIP3   OH255461   1.183   1.465   2.902  0.0950  0.3190 -0.0627
11349TIP3    H155462   1.123   1.539   2.898 -0.1031  0.1685  0.0977
11349TIP3    H255463   1.189   1.444   2.996 -0.3353 -0.2595 -0.1600
11350TIP3   OH255464   3.695   0.504  16.464  0.3205  0.0059 -0.1667
11350TIP3    H155465   3.753   0.559  16.411 -0.8724  0.9645 -0.5084
11350TIP3    H255466   3.684   0.424  16.412  1.0294 -0.0402 -0.2645
11351TIP3   OH255467   0.577   0.607  11.584 -0.3043  0.2400  0.1065
11351TIP3    H155468   0.549   0.562  11.505  1.1320  0.1443 -0.3742
11351TIP3    H255469   0.648   0.664  11.555  0.3335  0.1094  1.3522
11352TIP3   OH255470   3.704   3.615  14.270  0.4888 -0.2552  0.5094
11352TIP3    H155471   3.667   3.691  14.315 -2.5341 -1.1362 -0.2217
11352TIP3    H255472   3.628   3.571  14.232  2.5200 -1.4506 -2.5247
11353TIP3   OH255473   5.056   1.608  16.306  0.0016  0.3197  0.7989
11353TIP3    H155474   5.014   1.560  16.235  0.3300  0.8279  0.2460
11353TIP3    H255475   5.080   1.692  16.267  1.3474  0.1195  1.1418
11354TIP3   OH255476   5.728   0.406  14.111  0.1209  0.7377  0.2461
11354TIP3    H155477   5.657   0.343  14.120 -0.2016  0.9181 -0.9477
11354TIP3    H255478   5.780   0.375  14.038  1.0771  0.8076  0.8838
11355TIP3   OH255479   0.076   1.176   0.204 -0.5643  0.4655 -0.0569
11355TIP3    H155480   0.022   1.255   0.207 -0.4032  0.5802 -0.1719
11355TIP3    H255481   0.163   1.206   0.178 -1.1341 -0.0462 -2.9330
11356TIP3   OH255482   4.600   5.878   4.368  0.3880  0.0100  0.1927
11356TIP3    H155483   4.676   5.825   4.391  0.1673  0.0064  0.9307
11356TIP3    H255484   4.559   5.831   4.296  2.0535  0.9126 -1.4235
11357TIP3   OH255485   1.762   5.178  16.761 -0.1571 -0.2020 -1.1986
11357TIP3    H155486   1.828   5.108  16.758  0.6204  0.5330 -1.6483
11357TIP3    H255487   1.742   5.197  16.670 -2.7839 -2.0139 -1.1042
11358TIP3   OH255488   5.861   4.195   4.746  0.4468  0.1353  0.1144
11358TIP3    H155489   5.914   4.206   4.825  2.6225 -0.1045 -1.2198
11358TIP3    H255490   5.898   4.118   4.703  0.0521  0.9112 -1.6950
11359TIP3   OH255491   1.203   0.156  16.391 -0.0825 -0.0323  0.6753
11359TIP3    H155492   1.110   0.169  16.408 -0.1972  0.3518 -0.2126
11359TIP3    H255493   1.209   0.068  16.354 -0.2446  0.3855 -0.3627
11360TIP3   OH255494   1.638   0.318   4.273  0.0537  0.1394 -0.3106
11360TIP3    H155495   1.553   0.320   4.318  0.8097 -0.1634  1.2190
11360TIP3    H255496   1.621   0.271   4.192 -1.3060  0.3736 -0.1937
11361TIP3   OH255497   1.878   4.088   2.619  0.4681 -0.9701  0.6867
11361TIP3    H155498   1.937   4.067   2.691  1.9813  1.0493  0.1174
11361TIP3    H255499   1.791   4.091   2.659  1.2672  0.0650  2.4446
11362TIP3   OH255500   5.856   1.254  16.277  0.2373  0.2617 -0.5883
11362TIP3    H155501   5.813   1.328  16.233 -0.7204  0.3127  0.3692
11362TIP3    H255502   5.783   1.205  16.315  0.9007 -0.9503 -0.8542
11363TIP3   OH255503   0.721   5.740   2.537 -0.4809 -0.3067  1.0351
11363TIP3    H155504   0.718   5.676   2.608  1.5916 -2.6800 -0.8391
11363TIP3    H255505   0.806   5.782   2.546 -1.1482  1.0520  1.2515
11364TIP3   OH255506   6.693   3.702   6.039  1.4554  0.6457 -0.0304
11364TIP3    H155507   6.751   3.637   6.080 -0.2584  0.4061  2.1905
11364TIP3    H255508   6.656   3.751   6.112 -1.2688  0.6764 -1.3023
11365TIP3   OH255509   1.346   4.892   1.178 -0.4510  0.3627 -0.3017
11365TIP3    H155510   1.375   4.806   1.209  0.6047  1.0436  0.6605
11365TIP3    H255511   1.321   4.877   1.086  1.5136 -0.6050 -0.7370
11366TIP3   OH255512   6.670   2.985  14.565 -0.2480  0.6990 -0.2709
11366TIP3    H155513   6.700   3.040  14.493  0.2326  0.6505 -0.1072
11366TIP3    H255514   6.592   3.031  14.599  0.4959  1.6112  0.2551
11367TIP3   OH255515   4.713   3.509  11.511 -0.1102  0.1483  0.6551
11367TIP3    H155516   4.769   3.502  11.588 -0.1286 -1.5600  0.5389
11367TIP3    H255517   4.774   3.521  11.438  0.1148 -1.4240  0.5641
11368TIP3   OH255518   2.385   6.263  16.065 -0.2729  0.2777 -0.1614
11368TIP3    H155519   2.371   6.342  16.013  1.6598  1.7045  1.2887
11368TIP3    H255520   2.310   6.259  16.123 -0.3606  1.1357 -0.1986
11369TIP3   OH255521   6.245   6.371   2.749  0.2915 -0.2286  0.3238
11369TIP3    H155522   6.330   6.329   2.761  0.6480 -0.0637 -1.3143
11369TIP3    H255523   6.183   6.315   2.795  0.8410 -2.2852 -1.2780
11370TIP3   OH255524   4.228   4.788  11.783  0.0361  0.0142 -0.0887
11370TIP3    H155525   4.177   4.757  11.858 -0.2739 -0.0025 -0.3048
11370TIP3    H255526   4.278   4.711  11.755  1.0637  0.3140  0.8262
11371TIP3   OH255527   2.769   2.788   1.618  1.1497 -0.2022 -0.3347
11371TIP3    H155528   2.841   2.778   1.555 -0.2297 -0.5751 -1.9042
11371TIP3    H255529   2.720   2.864   1.586  1.2735  0.5857  1.2150
11372TIP3   OH255530   0.397   1.817  12.889 -0.1930 -0.1453  0.2225
11372TIP3    H155531   0.382   1.912  12.885  1.2554  0.0740 -1.4322
11372TIP3    H255532   0.486   1.808  12.923  1.1874 -0.6408 -3.1187
11373TIP3   OH255533   3.576   3.963   4.152 -0.0805 -0.3454 -0.1217
11373TIP3    H155534   3.652   3.932   4.101 -0.1888 -1.0156  0.1159
11373TIP3    H255535   3.613   4.024   4.216 -0.0180  1.0284 -1.4075
11374TIP3   OH255536   2.592   4.754  10.515 -0.2274 -0.1858 -0.5954
11374TIP3    H155537   2.609   4.692  10.445 -0.0349  0.3592 -1.0403
11374TIP3    H255538   2.646   4.725  10.588  0.8065  0.1709 -1.2098
11375TIP3   OH255539   5.541   6.143  15.809 -0.6409  0.1666  0.0318
11375TIP3    H155540   5.447   6.130  15.822 -0.5042 -0.0800  0.8572
11375TIP3    H255541   5.579   6.056  15.816 -0.5343 -0.0148 -2.2349
11376TIP3   OH255542   1.928   1.192  11.705 -0.6425  0.3437 -0.3034
11376TIP3    H155543   1.886   1.106  11.705  0.9341 -0.4968 -1.7801
11376TIP3    H255544   1.974   1.196  11.789  1.1862 -1.3284 -1.1313
11377TIP3   OH255545   5.374   3.584   0.300 -0.1269  0.0486  0.1244
11377TIP3    H155546   5.450   3.639   0.318  0.6349 -0.6347 -0.8995
11377TIP3    H255547   5.399   3.532   0.223 -0.3838 -2.5184  1.6604
11378TIP3   OH255548   2.719   5.871  13.255  0.1166  0.3483  0.4202
11378TIP3    H155549   2.704   5.936  13.187  2.1659  0.0220 -0.4015
11378TIP3    H255550   2.732   5.789  13.207  1.4632  0.0881  1.1935
11379TIP3   OH255551   2.613   2.136  15.797 -0.2015  0.0177  0.8320
11379TIP3    H155552   2.647   2.220  15.768 -0.5366 -0.1474 -0.0894
11379TIP3    H255553   2.518   2.146  15.791 -0.3877  0.5106  3.4548
11380TIP3   OH255554   2.398   5.338  16.476  0.3774  0.1539  0.4098
11380TIP3    H155555   2.415   5.257  16.525 -0.6474 -0.1790  0.2395
11380TIP3    H255556   2.380   5.308  16.387  3.3567  0.8281 -0.5214
11381TIP3   OH255557   1.083   1.112  12.481  0.0042 -0.3828  0.8758
11381TIP3    H155558   1.012   1.090  12.420 -0.4651 -0.0349  1.2854
11381TIP3    H255559   1.055   1.195  12.521  2.2723  1.7418 -1.5332
11382TIP3   OH255560   1.279   4.722  15.288  0.5366  0.3665  0.3806
11382TIP3    H155561   1.214   4.745  15.221  0.8338 -0.6926 -0.2952
11382TIP3    H255562   1.254   4.775  15.364 -1.4161 -0.3436  0.2894
11383TIP3   OH255563   0.821   5.463  12.576 -0.6316 -0.0135 -0.1118
11383TIP3    H155564   0.885   5.396  12.552  0.4244  0.7805  0.3859
11383TIP3    H255565   0.856   5.502  12.656 -2.9064 -1.0581  1.5093
11384TIP3   OH255566   5.578   6.779   2.260  0.0255 -0.1216  0.0155
11384TIP3    H155567   5.541   6.820   2.338  0.2061 -1.8170  1.0491
11384TIP3    H255568   5.506   6.778   2.197 -0.4640  0.2386  0.5603
11385TIP3   OH255569   1.201   1.727   0.343  0.3030  0.1573 -0.3234
11385TIP3    H155570   1.217   1.754   0.434  2.7848 -1.6930 -0.1170
11385TIP3    H255571   1.208   1.632   0.344 -1.1322 -0.0332 -2.2361
11386TIP3   OH255572   1.753   1.791  15.424  0.1804 -0.6331 -0.0472
11386TIP3    H155573   1.677   1.830  15.467 -0.2955 -1.4106 -0.1664
11386TIP3    H255574   1.740   1.807  15.331  0.9859  0.6519  0.0395
11387TIP3   OH255575   5.991   4.692  13.608  0.2092 -0.0597 -0.1718
11387TIP3    H155576   5.953   4.654  13.687  2.8331 -1.9514  0.3164
11387TIP3    H255577   6.056   4.754  13.640  0.0442  0.5159 -0.9084
11388TIP3   OH255578   2.248   1.887   3.199 -0.3847  0.5248 -0.7652
11388TIP3    H155579   2.341   1.901   3.181  0.2163  0.5806  1.9635
11388TIP3    H255580   2.236   1.793   3.190  0.1838  0.3882 -0.1497
11389TIP3   OH255581   1.428   1.639  13.905 -0.4878  0.1385  0.1133
11389TIP3    H155582   1.381   1.666  13.826  0.2520 -1.3190 -0.8677
11389TIP3    H255583   1.399   1.549  13.922  0.4685 -0.0927  0.6290
11390TIP3   OH255584   4.930   0.246   3.603  0.2309 -0.6856 -0.2084
11390TIP3    H155585   5.019   0.279   3.593  0.3306 -0.3632  1.3985
11390TIP3    H255586   4.937   0.181   3.672 -0.8501 -0.3330  0.2508
11391TIP3   OH255587   0.167   3.708   5.629  0.1546  0.1375  0.3664
11391TIP3    H155588   0.210   3.701   5.544  0.8901  1.3963  0.6085
11391TIP3    H255589   0.200   3.790   5.666 -1.1561  0.2684  1.3093
11392TIP3   OH255590   1.048   4.771  13.717 -0.1998  0.0628  1.1909
11392TIP3    H155591   1.072   4.856  13.679  1.3417  0.0825  2.1169
11392TIP3    H255592   0.973   4.791  13.774 -2.8610 -0.0500 -2.0115
11393TIP3   OH255593   6.673   0.357  17.073  0.0971  0.0348  0.2747
11393TIP3    H155594   6.633   0.371  17.159  2.6095 -0.2440  1.5753
11393TIP3    H255595   6.746   0.419  17.070  2.8344 -2.9537  0.2988
11394TIP3   OH255596   5.395   2.432   5.330  0.2368 -0.1653  0.0202
11394TIP3    H155597   5.400   2.486   5.251  1.6673  1.5663  1.2390
11394TIP3    H255598   5.307   2.393   5.326 -0.1225  0.7099 -1.8707
11395TIP3   OH255599   0.507   6.388   4.056  0.3094  0.4837  0.2832
11395TIP3    H155600   0.431   6.435   4.022  0.0170 -1.4518 -2.0551
11395TIP3    H255601   0.473   6.334   4.127 -0.4614 -0.1013 -0.5138
11396TIP3   OH255602   4.555   3.494  16.704  0.1084  0.0449  0.8319
11396TIP3    H155603   4.591   3.407  16.719  0.7197  0.2304  0.4600
11396TIP3    H255604   4.482   3.501  16.766  0.3272 -0.5646  1.1597
11397TIP3   OH255605   4.426   3.194   3.071 -0.4098  0.1169 -0.2124
11397TIP3    H155606   4.486   3.189   2.997  1.0958  0.2126  0.9528
11397TIP3    H255607   4.473   3.152   3.143 -1.1228  1.5157  1.1342
11398TIP3   OH255608   1.107   0.018  11.407  0.1364 -0.2666  0.0217
11398TIP3    H155609   1.130  -0.052  11.468  0.7772 -0.9369 -0.9582
11398TIP3    H255610   1.037   0.067  11.451  1.9191  0.5229  2.1799
11399TIP3   OH255611   5.303   1.980   4.894  0.1216 -0.4338  0.3904
11399TIP3    H155612   5.366   1.907   4.890  1.8382  0.9752  0.6607
11399TIP3    H255613   5.343   2.043   4.954 -1.3784  0.7037  0.2393
11400TIP3   OH255614   5.675   5.895  15.809 -0.2244 -0.4828 -0.6041
11400TIP3    H155615   5.625   5.840  15.870 -0.6930 -0.2415 -0.7608
11400TIP3    H255616   5.667   5.850  15.725  0.4081 -0.8069 -0.4948
11401TIP3   OH255617   6.217   3.186  16.178  0.1379 -0.4937  0.6391
11401TIP3    H155618   6.177   3.244  16.113  0.8398 -1.0373 -0.3036
11401TIP3    H255619   6.168   3.203  16.258  0.4134  1.5541  0.4535
11402TIP3   OH255620   4.287   3.906  12.473 -0.1755  0.4965 -0.0724
11402TIP3    H155621   4.285   3.869  12.562  3.5453  0.4092  0.1280
11402TIP3    H255622   4.227   3.851  12.423  0.7445 -2.1683  1.5047
11403TIP3   OH255623   0.506   3.138  13.075  0.1607 -0.1052 -0.4957
11403TIP3    H155624   0.425   3.096  13.047 -0.6014  0.8813  0.1304
11403TIP3    H255625   0.495   3.230  13.049 -0.0988  0.6119  1.8966
11404TIP3   OH255626   2.110   3.581  15.152  0.6086  0.3627 -0.7821
11404TIP3    H155627   2.059   3.590  15.072  0.7121  1.6976 -0.7107
11404TIP3    H255628   2.117   3.670  15.187  1.3025 -0.0758  0.2518
11405TIP3   OH255629   2.762   0.630  16.718 -0.4905  0.1427 -0.0679
11405TIP3    H155630   2.766   0.663  16.808 -0.4189  0.0908 -0.0516
11405TIP3    H255631   2.837   0.670  16.675  1.0272 -1.8500  0.5798
11406TIP3   OH255632   6.563   5.414  14.754  0.3754  0.4029 -0.7206
11406TIP3    H155633   6.637   5.471  14.778  0.5363  0.1142 -0.5263
11406TIP3    H255634   6.560   5.348  14.823  0.4495 -0.0736 -1.1702
11407TIP3   OH255635   5.089   6.526  13.676 -0.5295 -0.1584  0.3435
11407TIP3    H155636   5.107   6.613  13.641 -0.5804  1.4963  3.9764
11407TIP3    H255637   5.170   6.476  13.660 -0.1572  0.7980 -0.9320
11408TIP3   OH255638   0.703   1.000   3.253 -0.0863 -1.0676  0.3378
11408TIP3    H155639   0.732   1.010   3.162 -1.6894  0.4624 -0.0384
11408TIP3    H255640   0.623   0.948   3.247 -0.7788 -0.0674  0.7532
11409TIP3   OH255641   3.915   4.041  16.128  0.5760  0.1050 -0.6944
11409TIP3    H155642   3.872   3.962  16.095  1.4112 -0.2271 -0.9950
11409TIP3    H255643   3.904   4.105  16.058 -0.9767  0.5869 -0.0512
11410TIP3   OH255644   0.140   6.172  13.003 -0.0546 -0.4291  0.5996
11410TIP3    H155645   0.165   6.080  12.997  1.4028 -0.0201  0.0024
11410TIP3    H255646   0.209   6.212  13.056 -0.4107  0.4040  0.4420
11411TIP3   OH255647   5.914   4.332  12.806 -0.1312  0.0594 -0.4038
11411TIP3    H155648   5.818   4.337  12.812 -0.1397 -0.7854  0.4725
11411TIP3    H255649   5.945   4.408  12.854 -0.3600 -0.4655  0.5996
11412TIP3   OH255650   4.202   5.453   2.562  0.2144  0.6424 -0.0346
11412TIP3    H155651   4.180   5.375   2.613 -1.0146  1.5304  0.8589
11412TIP3    H255652   4.296   5.445   2.545 -0.1910 -2.0230 -1.7369
11413TIP3   OH255653   1.706   0.718  11.801 -0.3998 -0.4672  0.4068
11413TIP3    H155654   1.669   0.633  11.776  1.4925 -1.2764  0.1958
11413TIP3    H255655   1.784   0.696  11.852 -0.5823  1.1712  1.4524
11414TIP3   OH255656   6.021   4.227   0.090 -0.5474 -0.2539  0.0723
11414TIP3    H155657   6.041   4.135   0.108  1.2779 -0.0786 -0.7746
11414TIP3    H255658   6.025   4.234  -0.005  1.8930  1.1416  0.1807
11415TIP3   OH255659   6.583   3.563  11.748 -0.4003 -0.1876  0.8343
11415TIP3    H155660   6.511   3.509  11.782 -1.4235  1.6439  1.7236
11415TIP3    H255661   6.603   3.623  11.819 -0.5356  1.8012 -0.7311
11416TIP3   OH255662   5.343   4.397   4.627  0.8532  0.0162  0.5661
11416TIP3    H155663   5.270   4.459   4.633  0.1949 -0.8211  1.5227
11416TIP3    H255664   5.394   4.428   4.552 -0.4106  0.6851 -0.0542
11417TIP3   OH255665   2.148   5.851   1.801 -0.2098  0.1758  0.1901
11417TIP3    H155666   2.125   5.930   1.850 -1.5397  0.1997 -0.4456
11417TIP3    H255667   2.079   5.842   1.735  0.3902 -1.0435 -0.3074
11418TIP3   OH255668   5.170   0.176  14.989 -0.2104  0.9906 -0.4357
11418TIP3    H155669   5.092   0.121  14.995 -0.3095  1.2381  1.3381
11418TIP3    H255670   5.138   0.262  14.962 -0.4960  0.9720 -0.1603
11419TIP3   OH255671   2.193   1.544   3.439 -1.0302  0.2957 -0.5599
11419TIP3    H155672   2.136   1.569   3.366  0.4803  2.8901 -0.9982
11419TIP3    H255673   2.235   1.626   3.465  0.3430 -1.0064  1.6094
11420TIP3   OH255674   0.826   4.070  16.418 -0.4489 -0.0804 -0.1961
11420TIP3    H155675   0.824   3.975  16.403 -0.4526 -0.0932 -0.1142
11420TIP3    H255676   0.849   4.107  16.332  2.7211 -0.3092  0.4320
11421TIP3   OH255677   6.300   1.335  14.279  0.4601  0.7381  0.0130
11421TIP3    H155678   6.371   1.397  14.266  1.2833  0.0716  1.2057
11421TIP3    H255679   6.277   1.343  14.372 -1.7593  1.6995 -0.5472
11422TIP3   OH255680   4.551   6.682  14.833  0.0399  0.0341  0.0542
11422TIP3    H155681   4.632   6.675  14.783  0.6557 -2.3248  1.2437
11422TIP3    H255682   4.483   6.655  14.773  0.3831  0.0888 -0.3659
11423TIP3   OH255683   3.067   6.508  13.346  0.0875  0.0889  0.3164
11423TIP3    H155684   3.092   6.568  13.276 -0.9914  0.5299  0.2934
11423TIP3    H255685   3.069   6.561  13.426 -2.5469  0.6870  0.0826
11424TIP3   OH255686   2.355   2.799   6.253 -0.6468  0.3403 -0.5690
11424TIP3    H155687   2.329   2.889   6.271  0.0796 -0.0783  3.5718
11424TIP3    H255688   2.449   2.797   6.271 -0.8968 -1.4614  0.8217
11425TIP3   OH255689   3.266   1.970  12.058  0.1506  0.0047 -0.0175
11425TIP3    H155690   3.318   2.038  12.100  0.4626 -0.6967  0.7646
11425TIP3    H255691   3.324   1.935  11.989 -0.0469  0.5875 -0.4838
11426TIP3   OH255692   0.263   5.130  13.808 -0.6279 -0.1126 -0.3357
11426TIP3    H155693   0.191   5.190  13.791 -0.1580  0.2272 -1.1737
11426TIP3    H255694   0.342   5.179  13.783 -0.1707 -0.7709 -0.2177
11427TIP3   OH255695   5.349   5.536   4.692 -0.7713 -0.0397 -0.8265
11427TIP3    H155696   5.417   5.503   4.751 -2.0695  0.0783  0.7837
11427TIP3    H255697   5.377   5.505   4.605  1.6664  0.5702 -0.3402
11428TIP3   OH255698   1.013   6.174  13.990  0.1867 -0.1699 -0.3690
11428TIP3    H155699   0.969   6.108  13.936  0.2050 -0.9215  0.5195
11428TIP3    H255700   1.048   6.125  14.064 -0.9217  1.0390  0.9883
11429TIP3   OH255701   5.902   0.669   5.003 -0.3640 -0.2958  0.1381
11429TIP3    H155702   5.937   0.608   5.068 -0.8528  0.0967  0.7742
11429TIP3    H255703   5.808   0.668   5.017 -0.3701  0.6669  0.2133
11430TIP3   OH255704   6.595   5.285  16.458  0.3268 -0.1955  0.0452
11430TIP3    H155705   6.578   5.277  16.364  0.3470  2.5084 -0.2930
11430TIP3    H255706   6.545   5.215  16.498 -1.7707  0.1364 -1.8027
11431TIP3   OH255707   4.381   5.123  11.216 -0.0147  0.3643 -0.4638
11431TIP3    H155708   4.326   5.096  11.143 -0.3413  1.3278 -0.5866
11431TIP3    H255709   4.374   5.219  11.218  0.6848  0.4160  0.2801
11432TIP3   OH255710   3.933   3.594   0.885  0.7082  0.4003 -0.6321
11432TIP3    H155711   3.972   3.642   0.958  1.5908  0.0110 -0.8362
11432TIP3    H255712   3.875   3.657   0.843 -0.3518  0.4393  0.7952
11433TIP3   OH255713   6.305   5.859  13.821 -0.2158  0.2670 -0.8996
11433TIP3    H155714   6.314   5.892  13.910 -0.4328 -0.7052 -0.5084
11433TIP3    H255715   6.322   5.935  13.765  0.6187  0.7253 -0.0432
11434TIP3   OH255716   0.649   3.007   2.371  0.2449  0.1434  0.6256
11434TIP3    H155717   0.678   2.974   2.456 -0.0031  0.0741  0.6827
11434TIP3    H255718   0.564   3.048   2.388  0.9200  1.5576  0.7242
11435TIP3   OH255719   6.763   0.279   2.809  0.0113 -0.3285  0.8103
11435TIP3    H155720   6.699   0.291   2.879 -0.0191  2.0641  0.4381
11435TIP3    H255721   6.725   0.325   2.734  2.0824  1.0374  0.5468
11436TIP3   OH255722   4.286   6.279   1.270 -0.1431  0.6481 -0.0920
11436TIP3    H155723   4.224   6.308   1.203 -0.5372  1.2564  0.5137
11436TIP3    H255724   4.231   6.254   1.344  0.2283 -1.0079 -0.3262
11437TIP3   OH255725   3.041   1.818   0.054  0.1671 -0.5801 -0.3677
11437TIP3    H155726   3.093   1.847  -0.020 -0.1148  1.9777  0.3288
11437TIP3    H255727   2.957   1.863   0.044 -0.6510 -1.8611  0.3909
11438TIP3   OH255728   5.473   5.272   4.433 -0.2611 -0.7075 -0.0037
11438TIP3    H155729   5.478   5.192   4.380 -1.1206 -2.0616  1.8569
11438TIP3    H255730   5.380   5.288   4.444 -0.1277  1.1013 -1.0413
11439TIP3   OH255731   1.766   1.732   0.520  0.3742 -0.5203  0.3902
11439TIP3    H155732   1.672   1.716   0.508  0.4648 -0.9915  0.3189
11439TIP3    H255733   1.775   1.756   0.612  0.6112 -3.6712  1.2912
11440TIP3   OH255734   3.476   2.873   3.516  0.2807  0.1397  0.1844
11440TIP3    H155735   3.499   2.925   3.439 -1.0842 -0.0030 -0.3408
11440TIP3    H255736   3.424   2.931   3.570 -0.4430 -0.3647  0.0480
11441TIP3   OH255737   5.712   5.193  14.697 -0.1819 -0.4363 -0.4172
11441TIP3    H155738   5.699   5.148  14.613  1.0161  0.7155 -1.2665
11441TIP3    H255739   5.796   5.160  14.730 -0.8797 -1.2481  0.5979
11442TIP3   OH255740   1.031   0.244  16.991  0.4599  0.1110 -0.3536
11442TIP3    H155741   0.972   0.211  16.922  0.8909  0.5925 -0.9684
11442TIP3    H255742   0.983   0.229  17.072  0.4253 -1.5371 -0.6398
11443TIP3   OH255743   3.935   2.012   6.401  0.0597  0.3982  0.5501
11443TIP3    H155744   4.015   1.967   6.429  0.0922 -0.2567 -0.5377
11443TIP3    H255745   3.872   1.996   6.471 -0.3510 -2.5348 -0.3667
11444TIP3   OH255746   4.276   0.001   2.576  0.1333 -0.5688 -0.5051
11444TIP3    H155747   4.232  -0.062   2.633  0.3545  1.0590  1.6130
11444TIP3    H255748   4.218   0.011   2.501 -1.7677 -0.5659  0.8912
11445TIP3   OH255749   3.456   4.441  14.073 -0.3938 -0.4670 -0.0005
11445TIP3    H155750   3.462   4.426  14.167 -1.5839 -1.3720 -0.0386
11445TIP3    H255751   3.413   4.526  14.065 -0.5593 -0.5220  0.2840
11446TIP3   OH255752   0.767   5.881  15.885  0.4720  0.2744  0.7240
11446TIP3    H155753   0.844   5.938  15.879  0.0603  1.0356  2.2432
11446TIP3    H255754   0.692   5.939  15.874  0.0666 -0.0956  1.4449
11447TIP3   OH255755   4.026   4.399   2.226  0.2310  0.3522  0.1470
11447TIP3    H155756   4.045   4.438   2.311  0.3323  1.0118 -0.1741
11447TIP3    H255757   4.101   4.342   2.208  1.9261  2.7263 -0.9935
11448TIP3   OH255758   0.948   6.338   1.206 -0.8729 -0.7920 -0.0976
11448TIP3    H155759   0.970   6.282   1.132 -0.6894 -0.4201 -0.3264
11448TIP3    H255760   0.883   6.399   1.172  1.9016  1.8385 -1.0481
11449TIP3   OH255761   5.152   4.391  10.699 -0.0326 -0.0636 -0.3540
11449TIP3    H155762   5.069   4.423  10.662  1.2004 -0.1344 -3.4328
11449TIP3    H255763   5.218   4.453  10.668  1.1180  0.1052  2.2056
11450TIP3   OH255764   5.255   5.060  11.967  0.0103 -0.6793  0.4245
11450TIP3    H155765   5.247   4.996  11.896  1.2267 -0.9375  0.4961
11450TIP3    H255766   5.171   5.107  11.967 -0.2675 -1.1476 -0.7147
11451TIP3   OH255767   4.786   3.267   4.620 -0.2209  0.5526 -0.1744
11451TIP3    H155768   4.867   3.218   4.615 -0.7432 -0.2509 -1.1387
11451TIP3    H255769   4.810   3.350   4.662  0.5516 -0.7605  2.1876
11452TIP3   OH255770   6.053   3.457  16.651 -0.1155 -0.3667 -0.1454
11452TIP3    H155771   6.136   3.422  16.684 -0.5952 -0.6118  0.8469
11452TIP3    H255772   6.027   3.522  16.716 -0.8764 -0.5615 -0.2505
11453TIP3   OH255773   0.725   2.596   5.449  0.3961  0.2458 -0.2938
11453TIP3    H155774   0.798   2.551   5.405  1.3164  1.5132 -0.1039
11453TIP3    H255775   0.742   2.584   5.542  0.7313  1.1076 -0.2407
11454TIP3   OH255776   0.922   2.391   4.116  0.4172 -0.3267  0.2897
11454TIP3    H155777   0.858   2.421   4.052 -1.4763  0.1800  2.2991
11454TIP3    H255778   0.899   2.438   4.197  2.1263 -1.5873  1.5746
11455TIP3   OH255779   2.521   1.910   2.042  0.3993  0.2380  0.0221
11455TIP3    H155780   2.429   1.928   2.060  0.5055  0.6239  0.1882
11455TIP3    H255781   2.553   1.990   2.001  0.4699 -0.1799 -0.7508
11456TIP3   OH255782   5.666   4.139   2.965  0.1307  0.2867 -0.1373
11456TIP3    H155783   5.747   4.101   2.930  1.0006  0.2203  1.7782
11456TIP3    H255784   5.598   4.078   2.939  0.6921  0.2782 -1.6974
11457TIP3   OH255785   6.425   2.195  14.326 -0.3241 -0.0763 -0.3003
11457TIP3    H155786   6.507   2.150  14.305  0.0548  1.0677 -1.3972
11457TIP3    H255787   6.390   2.222  14.241 -0.8408  1.1362  0.2692
11458TIP3   OH255788   6.275   6.320  13.449 -0.0855  0.2167  0.3217
11458TIP3    H155789   6.237   6.308  13.362 -0.0603 -1.1746  0.4794
11458TIP3    H255790   6.203   6.354  13.502 -0.0934  1.0999 -0.2453
11459TIP3   OH255791   1.736   3.617  14.526  0.3848 -0.6775 -0.5819
11459TIP3    H155792   1.651   3.575  14.537  0.8086 -1.6107 -0.7891
11459TIP3    H255793   1.723   3.681  14.456 -0.6854  0.7309  0.8308
11460TIP3   OH255794   6.400   3.881  11.809 -0.5201  0.1753  0.0526
11460TIP3    H155795   6.381   3.975  11.815  1.7708  0.6418  5.5158
11460TIP3    H255796   6.495   3.876  11.801 -0.0577 -1.3975  4.2934
11461TIP3   OH255797   3.109   5.208  12.021 -1.1165 -0.2603  0.5287
11461TIP3    H155798   3.147   5.133  11.975  0.6494  1.6084 -1.2614
11461TIP3    H255799   3.169   5.223  12.094  0.1539  1.0017 -0.7055
11462TIP3   OH255800   4.896   5.266  15.104 -0.4600  0.3923  0.1618
11462TIP3    H155801   4.920   5.359  15.108  1.2961 -0.0409  0.8364
11462TIP3    H255802   4.973   5.221  15.137 -1.1984 -1.3355 -0.3836
11463TIP3   OH255803   4.151   2.653  12.861  0.0033  0.3148 -0.6732
11463TIP3    H155804   4.070   2.641  12.912  0.2411  0.2248 -0.3131
11463TIP3    H255805   4.162   2.570  12.815 -0.5061  0.5845 -1.3102
11464TIP3   OH255806   0.267   0.576   3.908  0.0764 -0.3059 -0.0986
11464TIP3    H155807   0.333   0.531   3.857 -0.2397 -0.4882 -0.3489
11464TIP3    H255808   0.199   0.511   3.923 -0.6733  0.2521 -0.9943
11465TIP3   OH255809   6.263   2.780   3.281 -0.6527  0.0824 -0.5044
11465TIP3    H155810   6.285   2.737   3.198 -1.1742 -0.9804 -0.1070
11465TIP3    H255811   6.241   2.870   3.256  1.6268  0.4980 -1.2013
11466TIP3   OH255812   2.273   4.373   4.333 -0.3713  0.4987  0.1647
11466TIP3    H155813   2.330   4.356   4.407 -1.4713 -1.0078  0.7231
11466TIP3    H255814   2.325   4.427   4.273  2.0823 -1.8100  0.0475
11467TIP3   OH255815   2.486   0.176  11.798  0.8170  0.3028 -0.4261
11467TIP3    H155816   2.524   0.192  11.711  1.1870  0.1597 -0.2912
11467TIP3    H255817   2.420   0.245  11.808 -1.3524 -1.3910 -2.0603
11468TIP3   OH255818   3.440   2.670  12.492  0.0174  0.2568 -0.3279
11468TIP3    H155819   3.477   2.736  12.433 -0.2110 -0.2579 -1.0606
11468TIP3    H255820   3.405   2.720  12.565 -0.7541  1.0218 -1.1911
11469TIP3   OH255821   5.203   0.437   4.301  0.1614 -0.3322 -0.5876
11469TIP3    H155822   5.230   0.521   4.338  0.3095 -0.7778  0.3364
11469TIP3    H255823   5.257   0.427   4.223  1.1250 -0.1892  0.0419
11470TIP3   OH255824   2.150   3.298   5.754 -0.2918  0.4032  0.0874
11470TIP3    H155825   2.191   3.215   5.730  1.4980  1.5240 -0.9489
11470TIP3    H255826   2.209   3.336   5.819  0.9169  2.4375 -2.0519
11471TIP3   OH255827   5.358   5.536  16.857 -0.0258 -1.0547  0.7952
11471TIP3    H155828   5.268   5.505  16.865 -1.5417  1.8446 -2.2824
11471TIP3    H255829   5.370   5.595  16.931 -2.1847  1.4154 -0.6499
11472TIP3   OH255830   6.426   0.947  16.736  0.0223 -0.4119  0.2522
11472TIP3    H155831   6.381   1.032  16.738  1.6334  0.5862 -1.7343
11472TIP3    H255832   6.358   0.885  16.708 -0.4840  0.8336 -1.4579
11473TIP3   OH255833   1.671   5.328  10.941  0.2574 -0.2806 -0.4010
11473TIP3    H155834   1.729   5.306  10.868  0.2598 -0.6954 -0.2766
11473TIP3    H255835   1.651   5.421  10.929  2.3042  0.3394  0.4856
11474TIP3   OH255836   6.686   6.019   2.504 -0.1741  0.3070 -0.3165
11474TIP3    H155837   6.647   5.936   2.475 -2.2787  1.2205 -0.2620
11474TIP3    H255838   6.631   6.087   2.464 -0.1239  1.6510  1.7456
11475TIP3   OH255839   4.422   2.842  16.901 -0.4893  0.4314 -0.6555
11475TIP3    H155840   4.344   2.870  16.949  0.0646  0.5845  0.1737
11475TIP3    H255841   4.494   2.890  16.942  0.2837 -1.0613 -0.2012
11476TIP3   OH255842   0.842   5.768  11.240  0.2405 -0.0974  0.1087
11476TIP3    H155843   0.867   5.815  11.161  0.1865  1.4369  0.9620
11476TIP3    H255844   0.903   5.799  11.307  0.0241 -1.0573  0.7750
11477TIP3   OH255845   5.664   3.765   2.973 -0.0388 -0.7948 -0.1286
11477TIP3    H155846   5.741   3.746   2.919  0.2332 -1.5648  0.5106
11477TIP3    H255847   5.617   3.682   2.977 -0.2761 -0.6318  0.4707
11478TIP3   OH255848   1.974   2.113  11.244  0.1768 -0.4471 -0.1631
11478TIP3    H155849   2.066   2.095  11.261  0.2870  0.9912  1.0550
11478TIP3    H255850   1.972   2.149  11.155  1.0369  0.9540  0.3537
11479TIP3   OH255851   5.804   0.807   5.932 -0.4303 -0.3361 -0.1557
11479TIP3    H155852   5.738   0.757   5.980  0.1561 -1.4478 -0.4793
11479TIP3    H255853   5.887   0.787   5.975 -0.0116 -0.6848 -1.0850
11480TIP3   OH255854   4.934   6.687   0.026 -0.2308  0.4131  0.8674
11480TIP3    H155855   4.923   6.704  -0.067 -0.7100 -1.7480  0.4653
11480TIP3    H255856   5.019   6.725   0.048  0.8660 -0.8231 -0.9765
11481TIP3   OH255857   3.395   3.512   0.103  0.3668 -0.0539  0.4356
11481TIP3    H155858   3.437   3.589   0.065 -4.0692  3.2129  1.4316
11481TIP3    H255859   3.352   3.468   0.030 -1.4649  1.5634  0.4915
11482TIP3   OH255860   6.716   6.622   5.674 -0.3652  0.8280  0.1700
11482TIP3    H155861   6.789   6.560   5.666 -0.7779  0.3056  0.4703
11482TIP3    H255862   6.677   6.603   5.758 -0.9455  1.0168 -0.0530
11483TIP3   OH255863   1.403   2.273  15.053  0.1129  0.1050 -0.0474
11483TIP3    H155864   1.428   2.216  15.125 -0.1311 -1.7894 -1.3969
11483TIP3    H255865   1.322   2.315  15.082 -0.3951 -1.2129  0.5023
11484TIP3   OH255866   3.798   1.777   6.253 -0.0450  0.2466  0.3067
11484TIP3    H155867   3.873   1.750   6.305  0.1380 -2.0965 -1.0522
11484TIP3    H255868   3.728   1.792   6.317  1.0796  0.7372  1.4479
11485TIP3   OH255869   2.806   5.933   3.796  0.2319 -0.3429  0.5101
11485TIP3    H155870   2.796   5.982   3.715  1.2011 -0.5452  0.2565
11485TIP3    H255871   2.875   5.980   3.844 -0.0327 -0.4731  1.0283
11486TIP3   OH255872   4.100   4.541  11.520 -0.0975  0.4397 -0.3051
11486TIP3    H155873   4.135   4.458  11.552 -0.1138  0.0612 -1.2264
11486TIP3    H255874   4.174   4.583  11.476 -0.9460 -0.8388 -3.1802
11487TIP3   OH255875   5.058   1.536  12.790 -0.2875  0.1885  0.4225
11487TIP3    H155876   5.109   1.604  12.747 -0.0074 -0.8602 -1.0157
11487TIP3    H255877   5.113   1.506  12.862  0.7886 -0.3011 -0.5531
11488TIP3   OH255878   4.703   5.750  14.391  0.3476  0.0467 -0.2832
11488TIP3    H155879   4.781   5.749  14.447  0.9261 -2.3617 -1.0214
11488TIP3    H255880   4.734   5.719  14.306 -0.7211  2.6914 -1.7697
11489TIP3   OH255881   3.559   0.156   0.077  0.7794  0.1443  0.5682
11489TIP3    H155882   3.544   0.232   0.133 -0.8455 -1.5197  2.5669
11489TIP3    H255883   3.647   0.126   0.098  2.2170  2.4295 -1.6162
11490TIP3   OH255884   2.238   0.009   6.681  0.2563 -0.0031  0.0682
11490TIP3    H155885   2.177   0.082   6.690 -1.4027 -1.4781  1.4740
11490TIP3    H255886   2.249  -0.001   6.586  0.8189  2.2284 -0.1593
11491TIP3   OH255887   1.240   4.143  13.473 -0.3892 -0.0799  0.4310
11491TIP3    H155888   1.184   4.136  13.396 -0.3563  0.0194  0.3979
11491TIP3    H255889   1.267   4.235  13.475 -1.4523  0.2294  1.3197
11492TIP3   OH255890   3.407   1.993   5.825  0.1209  0.3744 -0.2834
11492TIP3    H155891   3.320   1.957   5.809  0.2344  0.2002 -0.5034
11492TIP3    H255892   3.390   2.082   5.858 -0.1514  0.1541  0.1753
11493TIP3   OH255893   5.835   6.285  12.369  0.0106 -0.4347  0.9216
11493TIP3    H155894   5.888   6.288  12.289 -1.1542  0.5528  0.1712
11493TIP3    H255895   5.877   6.217  12.422 -0.4264 -2.6796 -1.4078
11494TIP3   OH255896   4.048   6.337  14.111  0.5858 -0.1490 -0.8855
11494TIP3    H155897   4.089   6.404  14.166  1.1306  0.2260 -1.7190
11494TIP3    H255898   4.101   6.259  14.125 -0.5723 -0.6974  0.7668
11495TIP3   OH255899   2.769   6.009  16.497 -0.0077  0.1385 -0.4515
11495TIP3    H155900   2.733   5.927  16.530  0.0964 -0.9041 -2.7064
11495TIP3    H255901   2.703   6.075  16.517  0.0822 -0.3728  1.7618
11496TIP3   OH255902   2.515   2.597   4.916  0.0498 -0.3586 -0.6928
11496TIP3    H155903   2.511   2.668   4.852  1.5806 -1.1388 -1.7185
11496TIP3    H255904   2.431   2.552   4.907 -0.4231  0.5484 -0.9390
11497TIP3   OH255905   5.619   3.113  15.557  0.1988 -0.5720  0.1598
11497TIP3    H155906   5.614   3.046  15.489  0.9199  0.0253 -0.5074
11497TIP3    H255907   5.712   3.119  15.578  0.0372 -0.4163  0.8750
11498TIP3   OH255908   5.309   5.676   0.369 -0.2217 -0.3558 -0.2723
11498TIP3    H155909   5.400   5.706   0.362  0.2638 -0.6920  3.2242
11498TIP3    H255910   5.257   5.755   0.351  0.8689  0.6839  0.9156
11499TIP3   OH255911   2.507   2.729  11.172  0.0286  0.0418 -0.1605
11499TIP3    H155912   2.492   2.646  11.126  0.2088  0.0659 -0.2652
11499TIP3    H255913   2.602   2.740  11.170 -0.0937  1.3923 -2.1944
11500TIP3   OH255914   3.660   2.015   6.048 -0.5491 -0.0171  0.5529
11500TIP3    H155915   3.637   2.079   5.981  0.0061 -0.3252  0.0543
11500TIP3    H255916   3.684   2.068   6.125  0.5566  0.3982 -0.0639
11501TIP3   OH255917   4.676   2.154  13.358  0.0535  0.3049 -0.3662
11501TIP3    H155918   4.629   2.210  13.419 -0.9104 -0.4450 -0.3903
11501TIP3    H255919   4.664   2.066  13.392 -0.0180 -0.0667 -1.3292
11502TIP3   OH255920   4.119   0.288  16.106  0.3396  0.0471 -0.4379
11502TIP3    H155921   4.031   0.268  16.075  0.2569 -0.9994  0.4151
11502TIP3    H255922   4.175   0.274  16.029 -0.0319 -1.0934 -0.5223
11503TIP3   OH255923   4.294   2.292   5.350 -0.5639 -0.2651  0.5903
11503TIP3    H155924   4.337   2.212   5.319 -0.9588  0.0393 -0.7952
11503TIP3    H255925   4.206   2.263   5.374 -1.0482 -0.1016 -0.8768
11504TIP3   OH255926   1.440   4.153   1.380 -0.1343 -0.1466  0.2432
11504TIP3    H155927   1.373   4.085   1.382  1.4365 -1.7604  0.2550
11504TIP3    H255928   1.425   4.204   1.460  0.1747 -2.0386  1.5781
11505TIP3   OH255929   4.645   0.578   6.317  0.8178 -0.2760 -0.0312
11505TIP3    H155930   4.553   0.603   6.310  0.8419  0.3476  1.3850
11505TIP3    H255931   4.648   0.486   6.289 -0.1826 -0.2148 -0.3583
11506TIP3   OH255932   5.235   1.360   5.457 -1.5165 -0.3037 -0.3453
11506TIP3    H155933   5.170   1.315   5.404 -0.1134 -1.1969 -1.3856
11506TIP3    H255934   5.250   1.443   5.411 -1.8087 -0.1597 -0.1829
11507TIP3   OH255935   5.621   4.936   1.537 -0.3153  0.1177  0.5284
11507TIP3    H155936   5.587   4.997   1.602 -1.0299 -1.0201  1.2745
11507TIP3    H255937   5.596   4.849   1.570  1.4661 -0.6537 -0.0013
11508TIP3   OH255938   1.209   5.371  14.600 -0.0306  0.0634  0.0552
11508TIP3    H155939   1.119   5.355  14.626  0.4266 -0.2271  1.5738
11508TIP3    H255940   1.235   5.292  14.552  0.3240 -1.2386  2.2574
11509TIP3   OH255941   1.516   3.974   3.138  0.3035 -0.4259 -0.4476
11509TIP3    H155942   1.493   3.891   3.097  2.7790 -1.4185 -0.0006
11509TIP3    H255943   1.516   3.955   3.232 -0.0822  0.3762 -0.2735
11510TIP3   OH255944   0.137   0.490  12.304 -0.2218 -0.3902  0.0956
11510TIP3    H155945   0.121   0.579  12.273 -2.6620  0.1313  2.4137
11510TIP3    H255946   0.229   0.490  12.331 -0.2436  1.5554  0.3454
11511TIP3   OH255947   4.988   0.955  12.152 -0.7998 -0.5205 -0.3298
11511TIP3    H155948   4.949   0.890  12.093  0.2271 -0.9181 -0.5890
11511TIP3    H255949   5.003   0.906  12.233  0.4972 -0.7889 -0.7061
11512TIP3   OH255950   1.540   6.055   5.922  0.1627 -0.2840  0.0530
11512TIP3    H155951   1.603   6.127   5.920  0.0540 -0.0608  2.3746
11512TIP3    H255952   1.472   6.083   5.983 -1.5688 -1.0550 -1.4110
11513TIP3   OH255953   1.547   2.185   3.899 -0.8867  0.0892 -0.3805
11513TIP3    H155954   1.596   2.181   3.981 -1.6752  1.5682  0.2095
11513TIP3    H255955   1.613   2.174   3.830 -0.2033 -1.1187  0.4303
11514TIP3   OH255956   4.356   5.285  11.783 -0.1728  0.2766 -0.0127
11514TIP3    H155957   4.294   5.229  11.736  0.1489  0.5997 -0.8553
11514TIP3    H255958   4.417   5.315  11.715  1.6376 -0.9741  0.9491
11515TIP3   OH255959   3.026   2.380   0.834 -0.3236  0.3143 -0.4343
11515TIP3    H155960   3.026   2.474   0.852 -0.3100  0.5424 -1.5724
11515TIP3    H255961   3.065   2.371   0.747  1.9341 -0.9532  0.6018
11516TIP3   OH255962   4.501   1.260  11.042 -0.3215 -1.0144 -0.1295
11516TIP3    H155963   4.506   1.190  11.108 -2.4089  0.1709  1.4249
11516TIP3    H255964   4.514   1.341  11.092 -0.2128 -0.1519 -1.4968
11517TIP3   OH255965   4.577   6.511  13.015 -0.6278  0.0203  0.3318
11517TIP3    H155966   4.518   6.438  12.994 -1.4819  0.3666  1.4614
11517TIP3    H255967   4.660   6.469  13.035 -0.5247 -0.4921 -1.0870
11518TIP3   OH255968   5.961   0.175  12.355  0.2132 -0.9979 -0.6532
11518TIP3    H155969   5.888   0.223  12.395 -0.4729 -2.8505  0.4336
11518TIP3    H255970   5.919   0.114  12.295  0.8883 -1.7402 -0.3875
11519TIP3   OH255971   1.688   5.052   3.658  0.3121 -0.1989 -0.1301
11519TIP3    H155972   1.744   4.986   3.699 -1.4976 -1.7779 -0.0373
11519TIP3    H255973   1.699   5.037   3.564  0.8537  0.2403 -0.1439
11520TIP3   OH255974   1.364   2.816  12.294  0.1139  0.2816  0.1109
11520TIP3    H155975   1.376   2.725  12.323 -1.3180 -0.5384 -1.6936
11520TIP3    H255976   1.375   2.868  12.374 -0.0289 -1.5519  1.3824
11521TIP3   OH255977   6.267   4.420  13.237 -0.5391 -0.3846  0.7152
11521TIP3    H155978   6.351   4.444  13.276 -1.1358  1.0457  1.2041
11521TIP3    H255979   6.289   4.377  13.155  0.6955 -1.4367  1.5615
11522TIP3   OH255980   0.266   0.740   4.628  0.3559 -0.3800 -0.0148
11522TIP3    H155981   0.307   0.695   4.553  2.1250  0.5010  0.3786
11522TIP3    H255982   0.329   0.808   4.652 -1.5325  1.2896  0.4216
11523TIP3   OH255983   5.360   0.973   2.667 -0.2862 -0.1079  0.1084
11523TIP3    H155984   5.304   0.922   2.726 -0.1384 -1.9666 -1.2653
11523TIP3    H255985   5.344   0.936   2.581  2.1563  0.1112 -0.5171
11524TIP3   OH255986   6.015   6.058   0.525 -0.7062 -0.4674  0.3782
11524TIP3    H155987   6.035   5.972   0.488 -0.3058 -0.1238 -0.2276
11524TIP3    H255988   6.044   6.053   0.616  2.0407 -0.0766 -0.3743
11525TIP3   OH255989   6.413   5.113  12.000 -0.3566  0.2097 -0.6479
11525TIP3    H155990   6.489   5.163  12.031 -0.4705 -0.1007  0.1660
11525TIP3    H255991   6.338   5.161  12.036 -0.4354 -1.5957  1.9221
11526TIP3   OH255992   6.707   0.035   4.593 -0.1129 -0.0750 -0.3008
11526TIP3    H155993   6.757   0.030   4.511 -2.9193  0.3264 -2.1632
11526TIP3    H255994   6.712  -0.054   4.630  3.0558  0.2823  0.3964
11527TIP3   OH255995   5.096   4.592   3.315 -0.0482  0.3069  0.5572
11527TIP3    H155996   5.018   4.557   3.273 -0.0001 -0.1752  0.8615
11527TIP3    H255997   5.089   4.687   3.304 -0.4105  0.2314  0.1244
11528TIP3   OH255998   0.665   3.671  15.770 -0.0441 -0.0352 -0.1011
11528TIP3    H155999   0.625   3.721  15.698 -0.6790 -0.8221 -0.3121
11528TIP3    H256000   0.727   3.612  15.727  0.2780  0.1589  0.0930
11529TIP3   OH256001   2.884   1.112  13.815 -0.4023  0.5908  0.1085
11529TIP3    H156002   2.937   1.161  13.751 -1.9128  1.0930 -0.8004
11529TIP3    H256003   2.878   1.170  13.891 -3.3868  2.6350 -1.4793
11530TIP3   OH256004   2.054   5.003   1.867 -0.2432 -0.4112 -0.3845
11530TIP3    H156005   2.105   4.922   1.875  0.7818  0.2227 -0.3301
11530TIP3    H256006   2.087   5.059   1.937  1.6318  1.3918 -2.5774
11531TIP3   OH256007   5.487   3.311  15.399 -0.0280  0.3785  0.2174
11531TIP3    H156008   5.558   3.300  15.462 -1.7662  0.0014  2.2045
11531TIP3    H256009   5.460   3.402  15.409  0.4670  0.6734 -0.9199
11532TIP3   OH256010   0.341   6.194   0.714 -0.2943  0.1469  0.0964
11532TIP3    H156011   0.296   6.151   0.641 -0.2903 -0.3793  0.4022
11532TIP3    H256012   0.432   6.202   0.686 -0.4691  0.7394 -0.3118
11533TIP3   OH256013   5.822   2.316   2.274  0.3739 -0.2998 -0.0647
11533TIP3    H156014   5.766   2.384   2.237  1.8636  0.9009 -0.2075
11533TIP3    H256015   5.856   2.269   2.198 -0.6115 -1.2075  0.0321
11534TIP3   OH256016   4.442   3.903  15.137  0.3135 -0.1704 -0.0664
11534TIP3    H156017   4.470   3.973  15.077  0.8902 -0.2542  0.1000
11534TIP3    H256018   4.461   3.822  15.089  1.0360 -0.2456  0.3341
11535TIP3   OH256019   5.426   0.277   0.784  0.2194  0.2246 -0.1213
11535TIP3    H156020   5.385   0.271   0.870 -1.6403  1.4989 -0.8483
11535TIP3    H256021   5.411   0.368   0.757  2.2455  0.3186 -1.1106
11536TIP3   OH256022   1.131   0.268   6.467  0.7973  0.0530 -0.4789
11536TIP3    H156023   1.049   0.314   6.451  0.9551  0.2941 -0.6164
11536TIP3    H256024   1.119   0.182   6.427  0.4289 -0.0962 -0.0538
11537TIP3   OH256025   6.042   2.027  14.971 -0.1080  0.1925  0.2844
11537TIP3    H156026   5.967   2.030  14.912  1.8083 -0.6686 -2.4520
11537TIP3    H256027   6.072   2.118  14.977  1.0468  0.0737 -2.2072
11538TIP3   OH256028   4.733   5.174   3.900  0.1466 -0.1271  0.9566
11538TIP3    H156029   4.688   5.256   3.923 -1.7985 -0.9053  0.2121
11538TIP3    H256030   4.663   5.109   3.897  0.9854 -1.0703 -2.1363
11539TIP3   OH256031   5.690   1.833  15.264 -0.3650  0.8409  0.1956
11539TIP3    H156032   5.769   1.846  15.318 -0.9623 -0.0050  1.3163
11539TIP3    H256033   5.637   1.772  15.314 -0.5799 -0.6956 -1.7652
11540TIP3   OH256034   2.736   5.009   2.284  0.2891 -0.1081  0.0391
11540TIP3    H156035   2.717   5.063   2.361  0.5217 -0.7100  0.5290
11540TIP3    H256036   2.698   5.057   2.210 -2.3479 -0.8188  0.8423
11541TIP3   OH256037   1.805   1.533   4.072 -0.0854 -0.0746 -0.0755
11541TIP3    H156038   1.774   1.536   3.981 -1.6930 -1.1853  0.3974
11541TIP3    H256039   1.751   1.596   4.119  0.3168  0.0422  0.2368
11542TIP3   OH256040   2.410   3.441  15.353  0.1100  0.3731  0.8755
11542TIP3    H156041   2.434   3.498  15.280  0.1638  0.2832  0.8229
11542TIP3    H256042   2.350   3.377  15.315  0.7384 -0.1412  0.7347
11543TIP3   OH256043   1.442   5.462  12.297 -0.1322  0.3061 -0.1900
11543TIP3    H156044   1.460   5.400  12.226 -1.8204 -0.3671 -0.0719
11543TIP3    H256045   1.349   5.480  12.290 -0.5148 -0.3153  2.2676
11544TIP3   OH256046   4.483   3.190   2.286 -0.1740  0.0487  0.6398
11544TIP3    H156047   4.395   3.221   2.308 -0.1766 -0.7512  1.8809
11544TIP3    H256048   4.538   3.227   2.356  0.5321  0.7474 -0.2643
11545TIP3   OH256049   4.228   5.567  15.263  0.3946 -0.3221  0.0550
11545TIP3    H156050   4.150   5.575  15.209  1.9808 -1.2498 -2.5100
11545TIP3    H256051   4.270   5.653  15.257 -0.2058  0.0699  1.1605
11546TIP3   OH256052   2.835   0.717  12.849  0.4529 -0.5377 -0.3589
11546TIP3    H156053   2.816   0.795  12.797  1.5934 -0.0489 -0.0677
11546TIP3    H256054   2.749   0.677  12.864 -0.1174  0.5074 -0.7388
11547TIP3   OH256055   3.755   1.427   4.831  0.4712 -0.3980  0.2055
11547TIP3    H156056   3.801   1.366   4.889  0.3052  0.0594  0.8365
11547TIP3    H256057   3.825   1.475   4.786  0.6829 -2.9299 -2.4414
11548TIP3   OH256058   3.851   0.914   4.002  0.3265 -0.1680 -0.2124
11548TIP3    H156059   3.768   0.922   4.049  0.3510 -0.6386 -0.0826
11548TIP3    H256060   3.898   0.995   4.021  0.4861 -0.5093  0.8719
11549TIP3   OH256061   5.217   0.136  11.705 -0.2512  0.7445  0.3004
11549TIP3    H156062   5.174   0.134  11.790 -2.1612  1.4710 -0.5829
11549TIP3    H256063   5.154   0.096  11.645  0.4812  1.4577 -1.0026
11550TIP3   OH256064   4.766   5.387  15.391 -0.4043  0.0318 -0.4257
11550TIP3    H156065   4.804   5.371  15.305 -1.4784  1.1876 -1.1477
11550TIP3    H256066   4.841   5.404  15.448  0.3087 -0.5889 -1.1590
11551TIP3   OH256067   0.756   2.033   0.794  0.3325 -0.0218  0.2324
11551TIP3    H156068   0.833   2.024   0.737 -0.6838  0.3330 -1.2644
11551TIP3    H256069   0.760   2.123   0.826  0.0367  0.3114 -0.6371
11552TIP3   OH256070   4.746   2.306   4.089  0.1372 -0.1694  0.2657
11552TIP3    H156071   4.724   2.399   4.087 -2.4629 -0.6732  1.2692
11552TIP3    H256072   4.744   2.284   4.182 -1.6350 -1.6465 -0.0584
11553TIP3   OH256073   2.659   3.576  13.138 -0.1801  0.4723  0.2590
11553TIP3    H156074   2.626   3.665  13.150  2.5976  1.4688  1.1419
11553TIP3    H256075   2.596   3.535  13.078 -0.9511  3.3553 -1.0510
11554TIP3   OH256076   5.686   2.450  14.376 -0.6211 -0.5370 -0.5108
11554TIP3    H156077   5.717   2.443  14.286 -0.7667 -0.7605 -0.5434
11554TIP3    H256078   5.764   2.470  14.427 -0.5609 -0.2708 -0.7053
11555TIP3   OH256079   4.957   4.555  14.822 -0.3368  0.0329  0.4278
11555TIP3    H156080   4.870   4.529  14.850 -0.1894 -0.0072  0.8573
11555TIP3    H256081   4.967   4.645  14.854 -0.9101  0.6952 -1.1969
11556TIP3   OH256082   4.368   0.098  14.377  0.2190  0.1718 -0.2477
11556TIP3    H156083   4.381   0.067  14.466  2.2099 -1.7167 -1.0964
11556TIP3    H256084   4.273   0.096  14.364 -0.0085 -1.1773  1.3067
11557TIP3   OH256085   5.676   5.632   1.825  0.7211  0.0561  0.1234
11557TIP3    H156086   5.754   5.597   1.869  2.0086 -0.4898 -2.3891
11557TIP3    H256087   5.695   5.725   1.813  0.0034  0.3853  1.3841
11558TIP3   OH256088   2.678   2.612   0.785  0.5569  0.6811  0.1290
11558TIP3    H156089   2.680   2.593   0.691  1.5325  0.2595  0.2245
11558TIP3    H256090   2.587   2.595   0.810  0.3722  0.4271 -0.6662
11559TIP3   OH256091   6.177   5.516   0.385 -0.0632  0.1910  0.2592
11559TIP3    H156092   6.118   5.589   0.367 -0.0997  0.0762 -0.0880
11559TIP3    H256093   6.233   5.548   0.456 -0.4683  0.3387  0.5126
11560TIP3   OH256094   3.446   4.940  16.878  0.7279  0.5438 -0.0431
11560TIP3    H156095   3.374   4.934  16.816  0.7503 -2.4149  0.0913
11560TIP3    H256096   3.404   4.929  16.964  1.1291  0.9300  0.2091
11561TIP3   OH256097   3.551   3.789   1.651  0.1234  0.4812  0.0130
11561TIP3    H156098   3.583   3.878   1.637  1.0253  0.4619  1.6586
11561TIP3    H256099   3.572   3.742   1.571 -1.8392  2.1043 -1.5701
11562TIP3   OH256100   2.479   6.450   4.491 -0.2074 -0.2248  0.8537
11562TIP3    H156101   2.490   6.426   4.399 -1.7712 -0.3786  0.6850
11562TIP3    H256102   2.567   6.441   4.528 -0.0875 -3.3807  0.1431
11563TIP3   OH256103   3.745   6.305   0.777 -0.0132  0.0133 -0.2806
11563TIP3    H156104   3.771   6.358   0.852  1.9044 -0.5511 -0.4765
11563TIP3    H256105   3.696   6.232   0.815  0.3833  0.0769  0.3673
11564TIP3   OH256106   2.775   2.412  13.912  0.0381  0.3536  0.8723
11564TIP3    H156107   2.792   2.453  13.997  2.1898 -0.1265  0.7213
11564TIP3    H256108   2.824   2.465  13.849  0.7918 -0.9164  0.3400
11565TIP3   OH256109   4.034   0.578  16.865 -0.3893 -0.2401 -0.1458
11565TIP3    H156110   4.020   0.543  16.777  0.0841  0.1592 -0.3827
11565TIP3    H256111   4.066   0.667  16.851  1.0138 -0.6319  0.3966
11566TIP3   OH256112   2.790   1.550  14.188  0.1925  0.1027 -0.0441
11566TIP3    H156113   2.816   1.559  14.279  0.3671  1.8595 -0.2251
11566TIP3    H256114   2.813   1.460  14.165  0.7386 -0.1675  1.4480
11567TIP3   OH256115   5.755   0.273  11.541 -0.3027 -0.2122 -0.3003
11567TIP3    H156116   5.788   0.235  11.622  0.3988  0.7343 -0.1226
11567TIP3    H256117   5.791   0.362  11.540 -1.3768  0.2293 -1.0047
11568TIP3   OH256118   3.479   0.676  15.683  0.6960  0.3432  0.4278
11568TIP3    H156119   3.513   0.636  15.763  0.0810  0.4977  0.7710
11568TIP3    H256120   3.385   0.688  15.699  0.3380 -0.6814 -0.7651
11569TIP3   OH256121   0.038   2.877   5.459  0.2649 -0.1118  0.0949
11569TIP3    H156122   0.003   2.966   5.453 -2.8108 -1.1888  0.0279
11569TIP3    H256123   0.065   2.868   5.550  0.1192  0.7416  0.2330
11570TIP3   OH256124   5.053   1.942   0.715 -0.8586 -0.3629  0.3171
11570TIP3    H156125   5.061   2.015   0.775 -1.6796  1.0504 -1.2024
11570TIP3    H256126   5.102   1.969   0.637 -2.0580 -0.9433 -0.6748
11571TIP3   OH256127   1.264   1.264  16.551  0.6891 -0.2180 -0.1620
11571TIP3    H156128   1.288   1.322  16.624  2.9872 -1.6914  0.3661
11571TIP3    H256129   1.255   1.323  16.476  0.1484  1.1181  0.9159
11572TIP3   OH256130   1.127   4.686  13.461 -0.5442  0.3227 -0.2292
11572TIP3    H156131   1.089   4.605  13.426 -0.4736  0.6462 -1.0957
11572TIP3    H256132   1.123   4.676  13.556 -1.2711 -0.3526 -0.3203
11573TIP3   OH256133   5.994   2.687   0.105 -0.0221  0.4600  0.1115
11573TIP3    H156134   6.018   2.669   0.015 -1.2768 -0.1398 -0.1288
11573TIP3    H256135   5.898   2.690   0.104 -0.0119  2.3042  1.0829
11574TIP3   OH256136   0.578   5.818  11.891  0.0255 -0.2079  0.2994
11574TIP3    H156137   0.488   5.848  11.882  0.1150 -0.2304 -0.8028
11574TIP3    H256138   0.599   5.833  11.983 -1.2696 -0.7064  0.6907
11575TIP3   OH256139   1.603   0.468   1.196 -0.1237  0.1603  0.2847
11575TIP3    H156140   1.662   0.538   1.225 -0.8623  0.4455  1.1261
11575TIP3    H256141   1.565   0.434   1.277  0.6259 -1.5960 -0.0465
11576TIP3   OH256142   4.655   0.725  13.148  0.5979 -0.1320  0.5614
11576TIP3    H156143   4.563   0.734  13.126  0.1432 -0.4854  2.1920
11576TIP3    H256144   4.698   0.703  13.065 -1.0474 -1.9114  0.1140
11577TIP3   OH256145   4.970   6.192   4.079  0.2496  0.0359 -0.4508
11577TIP3    H156146   5.038   6.128   4.057 -1.1183 -1.9755  0.8983
11577TIP3    H256147   4.912   6.191   4.003  0.9292  0.7092 -0.9995
11578TIP3   OH256148   5.282   6.432  12.496 -0.5560  0.4777  0.4473
11578TIP3    H156149   5.303   6.518  12.459  1.1959 -0.4916 -0.9264
11578TIP3    H256150   5.351   6.374  12.465 -0.6691 -1.0834  2.8284
11579TIP3   OH256151   6.480   2.781   1.703  0.0435 -0.3998 -0.0689
11579TIP3    H156152   6.501   2.875   1.699  0.8658 -0.5792 -0.0924
11579TIP3    H256153   6.458   2.766   1.795  0.1719 -0.2297 -0.0086
11580TIP3   OH256154   0.718   4.385  13.555  0.3336 -0.1956 -0.1524
11580TIP3    H156155   0.642   4.384  13.613  1.2391 -0.2462  1.0720
11580TIP3    H256156   0.747   4.476  13.556  0.8430 -0.3574  0.1539
11581TIP3   OH256157   5.329   3.992  14.804  0.4329  0.1035  0.2194
11581TIP3    H156158   5.314   4.000  14.710  0.0899 -1.8399  0.0703
11581TIP3    H256159   5.287   3.909  14.828  1.5944 -0.0647  1.8370
11582TIP3   OH256160   2.486   0.733   0.175 -0.0784 -0.1633  0.3700
11582TIP3    H156161   2.501   0.658   0.118 -1.2957  0.8012 -1.3145
11582TIP3    H256162   2.573   0.761   0.203  0.5044 -1.0332 -0.5240
11583TIP3   OH256163   2.296   1.348  13.550 -0.3354 -0.0983  0.0437
11583TIP3    H156164   2.287   1.254  13.560  1.0189 -0.0284  2.9432
11583TIP3    H256165   2.318   1.361  13.458  0.0154 -2.6537 -0.2876
11584TIP3   OH256166   5.738   3.987  15.915 -0.1010 -0.1205 -0.1101
11584TIP3    H156167   5.760   3.895  15.907 -2.2283 -0.6966  0.1644
11584TIP3    H256168   5.653   3.996  15.871  1.7991  2.5267 -3.8193
11585TIP3   OH256169   3.764   0.312  12.114 -0.4105 -0.3864 -0.5408
11585TIP3    H156170   3.689   0.260  12.143  1.0319 -1.7857  0.8862
11585TIP3    H256171   3.811   0.254  12.054  1.1823 -0.8120  1.0207
11586TIP3   OH256172   4.033   4.172   0.745  0.4267 -0.4575 -0.5440
11586TIP3    H156173   3.992   4.173   0.659 -1.2811  0.5501  0.2279
11586TIP3    H256174   4.047   4.265   0.766  1.6019 -0.7237 -0.0858
11587TIP3   OH256175   6.020   3.969   0.217 -0.1543  0.6990 -0.3722
11587TIP3    H156176   6.097   3.928   0.255  0.0654  0.7412 -0.7694
11587TIP3    H256177   6.000   4.042   0.277 -1.4372 -0.8388  1.1738
11588TIP3   OH256178   4.657   1.487   0.229  0.4463 -0.0266  0.1391
11588TIP3    H156179   4.616   1.401   0.236 -0.0129  0.3170  2.0751
11588TIP3    H256180   4.648   1.510   0.136  1.7502 -2.6008 -0.7470
11589TIP3   OH256181   4.942   5.476  12.663  0.1782  0.3189  0.2247
11589TIP3    H156182   4.956   5.564  12.630  1.0392 -0.3439 -1.3329
11589TIP3    H256183   4.946   5.421  12.584  1.4500 -1.2838  1.3349
11590TIP3   OH256184   5.670   2.904  16.372 -0.2888  0.3561  0.2169
11590TIP3    H156185   5.677   2.808  16.372  0.2862  0.3982  0.8329
11590TIP3    H256186   5.633   2.924  16.286 -0.1870 -0.4029 -0.0176
11591TIP3   OH256187   4.942   3.824   0.958  0.3560  0.4557 -0.5721
11591TIP3    H156188   4.910   3.769   0.886  2.7296  0.0281 -1.3686
11591TIP3    H256189   4.925   3.771   1.037  0.1405 -0.2242 -1.0617
11592TIP3   OH256190   2.981   1.491   1.700  0.3784 -0.0468 -0.1806
11592TIP3    H156191   2.939   1.421   1.751  0.9912 -2.2557 -2.4991
11592TIP3    H256192   2.910   1.553   1.681 -0.3550 -0.4044  1.2813
11593TIP3   OH256193   1.011   6.128  12.425  0.2203 -0.2311 -0.3798
11593TIP3    H156194   0.940   6.185  12.452  0.2869  0.0162 -0.7206
11593TIP3    H256195   1.090   6.170  12.461  0.6189  1.4986 -3.0214
11594TIP3   OH256196   1.363   5.490   5.437 -0.4519  0.0516  0.4600
11594TIP3    H156197   1.407   5.556   5.384 -0.5840 -1.6948 -2.0105
11594TIP3    H256198   1.433   5.444   5.482  0.0944 -0.9400 -1.3108
11595TIP3   OH256199   6.631   3.654  12.962 -0.1786  0.6702  0.3451
11595TIP3    H156200   6.661   3.731  13.011  0.7003 -0.2151  1.2621
11595TIP3    H256201   6.553   3.624  13.009  1.5461 -1.1169  2.3252
11596TIP3   OH256202   5.403   5.947  14.108 -0.3310  0.4098 -0.4041
11596TIP3    H156203   5.360   5.943  14.023 -0.2461 -2.7452 -0.4250
11596TIP3    H256204   5.489   5.908  14.093 -0.6661 -1.0788  1.2478
11597TIP3   OH256205   1.463   4.648  16.904  0.2462 -0.4637  0.0092
11597TIP3    H156206   1.435   4.654  16.995 -1.5010 -0.2011 -0.5037
11597TIP3    H256207   1.382   4.638  16.855  1.1855 -1.0264 -1.4945
11598TIP3   OH256208   5.511   3.535   3.326  0.3893  0.2945  0.2899
11598TIP3    H156209   5.419   3.558   3.335 -0.1250 -1.9502  1.4001
11598TIP3    H256210   5.554   3.617   3.301 -1.7994  1.5124  0.2997
11599TIP3   OH256211   0.721   4.783  14.213 -0.1868  0.2505  0.3680
11599TIP3    H156212   0.672   4.842  14.156 -0.5005  2.0389  2.3302
11599TIP3    H256213   0.735   4.834  14.293  1.3634 -1.6522  1.3991
11600TIP3   OH256214   5.743   5.018  16.958 -0.3276 -0.1368 -0.2659
11600TIP3    H156215   5.831   5.053  16.940 -0.2952  0.7252  1.3458
11600TIP3    H256216   5.760   4.939  17.009 -0.4675 -1.3801 -2.0458
11601TIP3   OH256217   2.900   4.474  14.877 -0.2444  0.1537  0.1747
11601TIP3    H156218   2.865   4.385  14.878  0.1378 -0.0246 -0.9237
11601TIP3    H256219   2.967   4.473  14.809  0.6572  0.9623  1.0273
11602TIP3   OH256220   2.504   3.541  15.108 -0.1132  0.1279 -0.2267
11602TIP3    H156221   2.576   3.488  15.142  0.7410  2.0194  1.1427
11602TIP3    H256222   2.490   3.509  15.019  1.2017 -1.4854  0.0925
11603TIP3   OH256223   4.135   2.084   1.384 -0.6942  0.6284 -0.1576
11603TIP3    H156224   4.111   2.124   1.467 -0.9446  0.3791 -0.1060
11603TIP3    H256225   4.204   2.140   1.349 -0.0324  0.2919  0.5831
11604TIP3   OH256226   3.597   4.184   2.674  0.0476  0.5071  0.0564
11604TIP3    H156227   3.531   4.155   2.612  0.5280  0.1634 -0.3014
11604TIP3    H256228   3.668   4.217   2.619  0.3070  0.5753  0.4289
11605TIP3   OH256229   3.916   2.201  13.347 -0.1500 -0.3598 -0.1081
11605TIP3    H156230   3.856   2.218  13.420  0.3555  0.0498  0.2172
11605TIP3    H256231   3.925   2.286  13.304 -0.8123 -0.6951 -0.9369
11606TIP3   OH256232   5.986   2.334   2.961  0.1448 -0.2731 -0.2419
11606TIP3    H156233   5.955   2.249   2.990  0.2160 -0.2696 -0.1578
11606TIP3    H256234   5.923   2.397   2.996  0.3824 -0.2437  0.1361
11607TIP3   OH256235   4.459   6.313  17.017 -0.0834  0.4937 -0.2507
11607TIP3    H156236   4.416   6.288  17.098 -0.3652 -0.2804 -0.6259
11607TIP3    H256237   4.524   6.378  17.043  0.1506 -0.0833  0.6646
11608TIP3   OH256238   2.101   4.415  13.357  0.0464  0.3105 -0.5288
11608TIP3    H156239   2.081   4.499  13.317  1.4168  0.3804 -1.1293
11608TIP3    H256240   2.180   4.431  13.409  1.2519 -0.9033 -1.8856
11609TIP3   OH256241   0.328   4.732  14.159 -0.0698 -0.2852 -0.4149
11609TIP3    H156242   0.314   4.825  14.141  1.7100 -0.0705 -0.8269
11609TIP3    H256243   0.264   4.688  14.103 -0.1970  0.6513 -1.0335
11610TIP3   OH256244   1.041   5.716  12.573 -0.3856 -0.3564 -0.4931
11610TIP3    H156245   0.975   5.678  12.515 -0.0257 -3.8069  1.0834
11610TIP3    H256246   0.992   5.740  12.652 -0.0064 -1.5503  0.1196
11611TIP3   OH256247   2.975   6.362  12.832 -0.0171 -0.5434 -0.3889
11611TIP3    H156248   3.027   6.300  12.782 -0.5656 -1.2786 -0.0663
11611TIP3    H256249   3.011   6.357  12.921  1.3809  1.2277 -0.7938
11612TIP3   OH256250   5.835   3.486   4.751 -0.3705 -0.0936 -0.3450
11612TIP3    H156251   5.849   3.469   4.845  0.2968  0.4325 -0.3405
11612TIP3    H256252   5.801   3.576   4.748  2.8758  1.2386 -0.7887
11613TIP3   OH256253   6.530   4.055  14.070 -0.1051 -0.0397 -0.5659
11613TIP3    H156254   6.568   4.131  14.113 -1.3450  0.5588 -0.5137
11613TIP3    H256255   6.585   4.042  13.992  0.7095  0.2843 -0.0640
11614TIP3   OH256256   5.946   0.624   5.490  0.1162  0.3448  0.0855
11614TIP3    H156257   6.019   0.584   5.538 -0.6414 -0.7957  0.3331
11614TIP3    H256258   5.892   0.663   5.559 -1.0503 -1.4225  0.2227
11615TIP3   OH256259   4.413   4.392   2.118  0.6314 -0.1298 -0.2138
11615TIP3    H156260   4.474   4.413   2.189 -0.4467  1.1474  0.3797
11615TIP3    H256261   4.366   4.315   2.148  0.3078  0.2974  0.4075
11616TIP3   OH256262   4.327   4.478  14.396 -0.2456 -0.1099 -0.0451
11616TIP3    H156263   4.291   4.489  14.485  0.7692  0.2197  0.3378
11616TIP3    H256264   4.379   4.557  14.382  0.4404 -0.6400 -0.5367
11617TIP3   OH256265   0.025   0.576   5.737 -0.6276  0.2175  0.2915
11617TIP3    H156266   0.063   0.643   5.680 -0.8303  0.0145 -0.0900
11617TIP3    H256267   0.101   0.528   5.770 -0.5473 -0.9086 -1.3639
11618TIP3   OH256268   3.935   4.144   3.990 -0.2349 -0.8065  0.2241
11618TIP3    H156269   3.908   4.186   3.908  0.7156  0.4473  0.5287
11618TIP3    H256270   3.913   4.207   4.058  2.5955 -0.0568  0.5722
11619TIP3   OH256271   5.569   3.788  12.982  0.4501  0.1722  0.5491
11619TIP3    H156272   5.531   3.875  12.976  0.5296  0.3228  1.9953
11619TIP3    H256273   5.494   3.730  12.998  0.4283 -0.0034 -0.1506
11620TIP3   OH256274   1.296   3.239  16.162  0.0210  0.0971 -0.4216
11620TIP3    H156275   1.261   3.262  16.248  2.9618  0.3730  0.8173
11620TIP3    H256276   1.275   3.314  16.107 -0.6923  0.5243  0.4035
11621TIP3   OH256277   5.921   3.219  10.904 -0.3512 -0.5568 -0.0511
11621TIP3    H156278   5.903   3.153  10.837 -1.6035 -0.3753  0.0766
11621TIP3    H256279   5.977   3.283  10.860 -0.2879 -0.9788 -0.5960
11622TIP3   OH256280   3.418   4.193  15.900  0.2497  0.6240  0.3784
11622TIP3    H156281   3.356   4.236  15.841  0.4534  2.3433  1.3471
11622TIP3    H256282   3.473   4.140  15.842 -0.8060  0.6891 -0.7280
11623TIP3   OH256283   2.661   4.214  14.506  0.1220  0.7696 -0.0471
11623TIP3    H156284   2.673   4.266  14.585  0.7174  1.5689 -0.6537
11623TIP3    H256285   2.733   4.150  14.508 -1.0598 -0.6022  1.1029
11624TIP3   OH256286   4.304   6.010  16.407 -0.1811  0.3618 -0.2378
11624TIP3    H156287   4.366   5.938  16.393 -1.5280 -0.6337 -1.3914
11624TIP3    H256288   4.329   6.076  16.342  0.4354  0.5061  0.1435
11625TIP3   OH256289   6.127   5.237  13.531 -0.0702  0.0057 -0.4372
11625TIP3    H156290   6.123   5.326  13.498  1.4293  0.8030  1.3559
11625TIP3    H256291   6.056   5.232  13.595  2.2106  1.3309  2.4294
11626TIP3   OH256292   1.748   0.365  13.213  0.5584  0.4008 -0.2662
11626TIP3    H156293   1.791   0.427  13.271  1.7085  0.5526 -1.2348
11626TIP3    H256294   1.812   0.295  13.202  0.5016  0.5293 -1.5744
11627TIP3   OH256295   4.869   2.364  14.805  0.2949  0.1622 -0.3282
11627TIP3    H156296   4.927   2.327  14.872  0.0677  0.9266  0.3061
11627TIP3    H256297   4.921   2.360  14.724  1.5677  1.5552  0.3623
11628TIP3   OH256298   5.917   6.361   5.034 -0.2428  0.1074  0.4901
11628TIP3    H156299   5.835   6.321   5.062 -1.1523  1.3227 -0.3441
11628TIP3    H256300   5.941   6.312   4.955  0.7140 -1.3035  1.6131
11629TIP3   OH256301   2.360   4.709   5.411  0.0681 -0.0879  0.0485
11629TIP3    H156302   2.270   4.685   5.392 -0.0096 -0.3589  0.7447
11629TIP3    H256303   2.398   4.631   5.451  0.6947 -0.0693 -0.4884
11630TIP3   OH256304   5.735   3.427  10.655 -0.3388  0.7753 -0.1542
11630TIP3    H156305   5.827   3.449  10.663 -0.7204  2.0808  0.9792
11630TIP3    H256306   5.692   3.476  10.725 -1.5830 -1.8676  1.0561
11631TIP3   OH256307   0.831   0.129  10.103  0.4179  0.1659 -0.5156
11631TIP3    H156308   0.894   0.058  10.091 -0.0891 -0.3849  0.0685
11631TIP3    H256309   0.878   0.194  10.156  0.6494 -0.0338 -0.4754
11632TIP3   OH256310   5.126   0.667   5.210 -0.5892  0.0582 -0.0071
11632TIP3    H156311   5.162   0.640   5.126 -0.5531 -0.7742  0.2594
11632TIP3    H256312   5.053   0.606   5.225 -2.2047  1.7668 -0.5935
11633TIP3   OH256313   6.028   0.763   0.568  0.1883 -0.6683 -0.3813
11633TIP3    H156314   5.977   0.689   0.602  0.3669 -0.5965  0.0494
11633TIP3    H256315   5.977   0.840   0.592  0.2300 -0.6279 -0.4246
11634TIP3   OH256316   0.312   6.185  16.384  0.0687  0.2602  0.3719
11634TIP3    H156317   0.294   6.098  16.349 -1.4719  0.5581  0.3193
11634TIP3    H256318   0.324   6.171  16.478  0.4017 -0.0730  0.2825
11635TIP3   OH256319   5.476   0.973   3.034  0.1598 -0.4492  0.0990
11635TIP3    H156320   5.497   0.885   3.066 -0.0335 -0.9696 -1.1354
11635TIP3    H256321   5.529   1.031   3.088 -0.3865 -1.2450  1.5514
11636TIP3   OH256322   6.225   0.483  13.090  0.3807  0.2454  0.0766
11636TIP3    H156323   6.253   0.408  13.038 -0.9214  0.5959 -1.1831
11636TIP3    H256324   6.228   0.557  13.029  1.8777  1.2945  1.3578
11637TIP3   OH256325   3.518   4.850  11.822 -0.6804  0.3833  0.2091
11637TIP3    H156326   3.484   4.933  11.788 -0.6839 -0.4726 -2.0227
11637TIP3    H256327   3.611   4.853  11.802 -0.4805  0.2708  1.0855
11638TIP3   OH256328   4.329   2.527  14.596 -0.1114  0.3589  0.3101
11638TIP3    H156329   4.274   2.574  14.658  0.2673  1.4333 -0.1422
11638TIP3    H256330   4.405   2.499  14.648  0.3112  1.4463  0.3039
11639TIP3   OH256331   4.174   2.636   4.023  0.2021  0.2203  0.0507
11639TIP3    H156332   4.088   2.662   4.055 -0.4713 -2.7111  0.9962
11639TIP3    H256333   4.155   2.570   3.956  1.6175 -1.3433  1.0836
11640TIP3   OH256334   6.240   3.916   4.216 -0.1230  0.5675  0.0159
11640TIP3    H156335   6.230   4.001   4.172  0.6446  0.3309 -0.6617
11640TIP3    H256336   6.165   3.910   4.275 -1.5614  0.6393 -1.7206
11641TIP3   OH256337   6.387   5.861  16.020  0.0309  1.1358 -0.4932
11641TIP3    H156338   6.430   5.808  15.953 -0.0760 -0.8131  0.9111
11641TIP3    H256339   6.344   5.797  16.077 -0.8160  2.7931  0.8007
11642TIP3   OH256340   1.126   0.615  13.919  0.2425 -0.0430 -0.4303
11642TIP3    H156341   1.078   0.661  13.989  0.3979  0.9203 -0.9307
11642TIP3    H256342   1.201   0.575  13.963 -1.4536 -2.3888  0.5495
11643TIP3   OH256343   6.282   2.267   1.182  0.1249 -0.2286  0.0261
11643TIP3    H156344   6.223   2.223   1.121 -0.2920 -1.4167  1.2478
11643TIP3    H256345   6.346   2.200   1.206  0.6840  0.4219  0.3789
11644TIP3   OH256346   4.726   0.540   3.727 -0.2676 -0.7343  0.5719
11644TIP3    H156347   4.698   0.596   3.800  0.2658 -1.2901  1.2201
11644TIP3    H256348   4.721   0.596   3.650  0.2461  0.2034  1.2032
11645TIP3   OH256349   6.468   5.084  11.075  0.0648  0.3945  0.6978
11645TIP3    H156350   6.474   5.133  10.994  2.4031  0.5064  0.8803
11645TIP3    H256351   6.498   5.144  11.143 -0.1775 -0.2597  1.4140
11646TIP3   OH256352   2.939   6.475   4.714 -0.2217 -1.2851  0.0458
11646TIP3    H156353   2.986   6.394   4.735 -1.1055 -1.7274  0.3639
11646TIP3    H256354   2.863   6.446   4.663 -0.6923 -0.6885  0.3899
11647TIP3   OH256355   1.407   5.789   4.772 -0.4995 -0.0308 -0.1429
11647TIP3    H156356   1.384   5.863   4.827  0.1554  0.0918 -0.0204
11647TIP3    H256357   1.357   5.716   4.807 -0.4353  0.1477  0.3234
11648TIP3   OH256358   3.943   6.189  11.791 -0.0765 -0.2409  0.8627
11648TIP3    H156359   3.876   6.154  11.850  0.1202 -1.7086  0.2394
11648TIP3    H256360   3.903   6.183  11.704  0.9262 -1.3557  0.4544
11649TIP3   OH256361   0.457   5.703  13.035 -0.4227 -0.2144 -0.6160
11649TIP3    H156362   0.460   5.707  12.939  0.4576 -0.9331 -0.6346
11649TIP3    H256363   0.446   5.610  13.055  0.0266 -0.1472 -0.0210
11650TIP3   OH256364   5.554   4.288  17.133 -0.4858 -0.2038 -0.0516
11650TIP3    H156365   5.517   4.375  17.115 -1.7786 -0.5405  0.8804
11650TIP3    H256366   5.573   4.289  17.226  1.2886 -0.2857 -0.3760
11651TIP3   OH256367   5.049   2.711  16.715 -0.2101  0.7872 -0.6093
11651TIP3    H156368   5.085   2.800  16.708 -0.2090  0.9685  1.1991
11651TIP3    H256369   5.125   2.657  16.737 -0.6981  0.9459  1.8021
11652TIP3   OH256370   5.512   2.827  11.483  0.0090  0.0529  0.1630
11652TIP3    H156371   5.461   2.903  11.454 -0.0926 -0.5946 -1.4576
11652TIP3    H256372   5.597   2.837  11.440  1.1546  0.8428  2.4251
11653TIP3   OH256373   1.245   3.484  14.766  0.1728 -0.1570 -0.1670
11653TIP3    H156374   1.282   3.523  14.845 -2.3868 -1.4676  1.7986
11653TIP3    H256375   1.293   3.527  14.694  2.5474  1.1433  2.0167
11654TIP3   OH256376   3.172   6.598   4.552  0.5521 -0.2218  0.4503
11654TIP3    H156377   3.177   6.545   4.472 -0.9156 -0.8863  0.7692
11654TIP3    H256378   3.081   6.590   4.580  0.0798  3.0258  0.1545
11655TIP3   OH256379   0.816   3.058   0.799  0.3182  0.1311 -0.1321
11655TIP3    H156380   0.778   3.080   0.714  0.8830 -0.4460 -0.5408
11655TIP3    H256381   0.880   2.990   0.780  1.8295  1.3195  0.4738
11656TIP3   OH256382   6.639   3.072  12.220  0.0035  0.3383  0.6974
11656TIP3    H156383   6.545   3.054  12.225  0.0031 -0.4974 -1.4012
11656TIP3    H256384   6.674   3.038  12.302 -1.3507 -0.6227  0.9148
11657TIP3   OH256385   5.489   3.121   3.470 -0.4396  0.9399 -0.1422
11657TIP3    H156386   5.439   3.196   3.500  1.7032  2.7115 -0.7443
11657TIP3    H256387   5.559   3.158   3.417  1.3714 -1.3746  0.4312
11658TIP3   OH256388   2.369   5.214  12.272 -0.0582  0.4724 -0.4826
11658TIP3    H156389   2.277   5.193  12.290  0.1812 -4.0561 -3.0929
11658TIP3    H256390   2.417   5.174  12.344  0.0339  2.1151  0.4302
11659TIP3   OH256391   2.037   5.848   0.883  0.2296  0.6426  0.1145
11659TIP3    H156392   1.965   5.792   0.852 -0.3820  1.0312  0.7857
11659TIP3    H256393   2.115   5.793   0.879 -0.0817  0.2608 -0.7779
11660TIP3   OH256394   4.135   4.454   5.460  0.6346 -0.1468 -0.0756
11660TIP3    H156395   4.142   4.444   5.365 -0.1483  0.7195 -0.2405
11660TIP3    H256396   4.186   4.532   5.480 -1.5116  1.3918 -0.2115
11661TIP3   OH256397   0.177   3.690  15.220 -0.4735  0.5424  0.1428
11661TIP3    H156398   0.174   3.785  15.234  0.2065  0.6439 -0.3571
11661TIP3    H256399   0.137   3.677  15.134  1.4073  0.6114 -0.7757
11662TIP3   OH256400   0.654   6.225  13.458  0.1776  0.1812  0.9035
11662TIP3    H156401   0.576   6.169  13.463  1.4096 -1.6997  0.1076
11662TIP3    H256402   0.652   6.260  13.369  2.3822 -3.3724 -0.7790
11663TIP3   OH256403   3.703   1.079  15.601  0.8507  0.5688  0.1597
11663TIP3    H156404   3.705   0.983  15.601  0.9556  0.5669 -0.5935
11663TIP3    H256405   3.739   1.104  15.516  0.3256  1.2731  0.1346
11664TIP3   OH256406   0.274   2.983   2.215 -0.8696 -0.0960 -0.3644
11664TIP3    H156407   0.209   2.923   2.179  0.0033 -1.3159  0.0328
11664TIP3    H256408   0.343   2.986   2.148 -0.4985 -0.2340  0.0082
11665TIP3   OH256409   5.416   5.368  11.831 -0.1000 -0.0925  0.3581
11665TIP3    H156410   5.420   5.275  11.808 -0.1954 -0.2213  0.8411
11665TIP3    H256411   5.339   5.401  11.785  0.9564  0.1803 -1.2948
11666TIP3   OH256412   0.602   1.684   3.683 -0.1519 -0.1256 -0.0642
11666TIP3    H156413   0.596   1.649   3.772  0.3692 -0.4536 -0.1524
11666TIP3    H256414   0.543   1.629   3.631 -2.1389  1.4109  0.4587
11667TIP3   OH256415   4.413   4.154   5.714 -0.0315 -0.1094 -0.7898
11667TIP3    H156416   4.376   4.152   5.626  1.0610 -1.0556 -1.2454
11667TIP3    H256417   4.507   4.144   5.701  0.3668  1.6275  0.3836
11668TIP3   OH256418   1.704   1.000   6.107  0.3357  0.8329  0.0362
11668TIP3    H156419   1.720   1.092   6.091 -0.4224  0.7555 -1.2950
11668TIP3    H256420   1.615   0.997   6.143 -0.2462  0.5196 -1.3680
11669TIP3   OH256421   4.198   1.910  16.036  0.1652  0.0879 -0.3809
11669TIP3    H156422   4.243   1.848  16.093 -0.3402  1.2004  1.3346
11669TIP3    H256423   4.106   1.903  16.062 -0.1738  0.1540 -1.5441
11670TIP3   OH256424   6.739   3.954   2.789  0.2313 -0.0594  0.2013
11670TIP3    H156425   6.701   3.965   2.702 -0.4559 -0.0580  0.4902
11670TIP3    H256426   6.669   3.913   2.840  0.5035  0.2673  0.8469
11671TIP3   OH256427   4.665   3.970   1.802 -0.0160  0.0873 -0.3693
11671TIP3    H156428   4.652   3.971   1.707 -0.8016 -2.1314 -0.3535
11671TIP3    H256429   4.664   3.877   1.825  0.7152  0.5505  1.7546
11672TIP3   OH256430   1.087   0.626  14.730  0.8076  0.0413 -0.5650
11672TIP3    H156431   1.054   0.666  14.650  0.3132 -0.9505 -0.8706
11672TIP3    H256432   1.076   0.693  14.797  1.8657  1.1312 -1.4491
11673TIP3   OH256433   4.487   6.660   0.623 -0.1796  0.1526  0.7534
11673TIP3    H156434   4.494   6.648   0.528  0.4273  1.2332  0.6533
11673TIP3    H256435   4.562   6.612   0.658  0.6038  1.1886  0.5495
11674TIP3   OH256436   3.285   2.826   6.705  0.0288 -0.1840 -0.5669
11674TIP3    H156437   3.267   2.907   6.658  1.6639 -0.2586 -1.4155
11674TIP3    H256438   3.365   2.792   6.663  1.3036 -0.4959  1.9433
11675TIP3   OH256439   2.964   2.902   4.050  0.2302  0.8288  0.2155
11675TIP3    H156440   2.900   2.942   4.110 -0.1287 -0.5342  0.7758
11675TIP3    H256441   3.029   2.862   4.108  1.2772  1.6589 -0.3500
11676TIP3   OH256442   6.034   0.938   5.416 -0.0446 -0.1476  0.2557
11676TIP3    H156443   6.077   1.004   5.361 -0.2043  0.0384  0.3545
11676TIP3    H256444   6.075   0.855   5.390 -0.3332 -0.0984 -0.3611
11677TIP3   OH256445   5.081   5.912  14.825  0.3746 -0.6995 -0.4907
11677TIP3    H156446   5.016   5.852  14.789 -1.7088  0.1515  1.5572
11677TIP3    H256447   5.078   5.989  14.768  0.3062 -1.0477 -0.9619
11678TIP3   OH256448   4.425   1.601  10.451  0.0125  0.0784  0.0076
11678TIP3    H156449   4.403   1.538  10.519 -2.5200 -0.0599 -0.8390
11678TIP3    H256450   4.365   1.674  10.465  0.0288  0.4269 -1.5553
11679TIP3   OH256451   3.014   0.684  13.999  0.2316  0.5328  0.0409
11679TIP3    H156452   2.942   0.748  13.992  0.5404  0.9448  0.4894
11679TIP3    H256453   2.971   0.599  13.994 -0.3546  0.7709  0.7826
11680TIP3   OH256454   6.688   4.950  12.450 -0.0694 -0.1612  0.1939
11680TIP3    H156455   6.620   5.001  12.495 -2.3016 -1.1760 -1.7576
11680TIP3    H256456   6.638   4.884  12.401  2.4719 -1.8102 -0.3353
11681TIP3   OH256457   3.023   5.693   3.375  0.1206 -0.1970 -0.8639
11681TIP3    H156458   3.080   5.769   3.381 -0.0882 -0.0140 -1.1505
11681TIP3    H256459   3.083   5.618   3.373  0.3298 -0.0334 -0.6910
11682TIP3   OH256460   4.972   4.352  13.522 -0.1924  0.3666  0.5622
11682TIP3    H156461   4.936   4.301  13.595 -0.3665  0.6787  0.6942
11682TIP3    H256462   4.914   4.334  13.449  0.2723 -0.3542  0.3525
11683TIP3   OH256463   3.644   2.769   4.244 -0.0772 -0.9725 -0.1836
11683TIP3    H156464   3.573   2.705   4.236  0.2127 -1.1799 -1.2531
11683TIP3    H256465   3.723   2.716   4.255 -0.1602 -0.7367  2.1397
11684TIP3   OH256466   3.508   4.358  16.107  0.7737 -0.0751 -0.2133
11684TIP3    H156467   3.437   4.422  16.095  1.8459  0.7664 -3.2317
11684TIP3    H256468   3.502   4.302  16.030  1.8975 -1.5482  0.7236
11685TIP3   OH256469   0.541   5.223  15.936 -0.0687 -0.0694  0.4738
11685TIP3    H156470   0.559   5.207  16.028 -0.1213 -0.3553  0.4349
11685TIP3    H256471   0.490   5.147  15.908 -2.3158  1.2036  0.8695
11686TIP3   OH256472   3.105   0.264   3.520 -0.0920 -0.0532  0.1455
11686TIP3    H156473   3.149   0.345   3.548  0.3685 -0.5816  0.9880
11686TIP3    H256474   3.168   0.221   3.463  0.7054 -1.0204  1.6948
11687TIP3   OH256475   4.978   1.472  11.884  0.1363  0.4589 -0.0123
11687TIP3    H156476   4.917   1.493  11.955 -0.1854  2.2259 -0.7472
11687TIP3    H256477   5.002   1.557  11.848  2.0170 -0.2797 -0.6066
11688TIP3   OH256478   6.213   5.369  15.256 -0.0506  0.3999  0.6825
11688TIP3    H156479   6.158   5.406  15.325 -0.6208 -1.3443  1.2032
11688TIP3    H256480   6.198   5.275  15.260  2.7733 -0.1363  0.6218
11689TIP3   OH256481   6.695   2.192   3.014  0.6594  0.4441  0.2111
11689TIP3    H156482   6.772   2.137   2.995  1.6620  2.3773 -1.8682
11689TIP3    H256483   6.687   2.248   2.937 -2.2150  1.0836  0.8770
11690TIP3   OH256484   5.948   4.731  11.107  0.2384  0.0424 -0.1942
11690TIP3    H156485   5.950   4.644  11.147  0.1882  0.1556  0.0595
11690TIP3    H256486   6.037   4.765  11.119  0.2986 -0.0306 -0.4242
11691TIP3   OH256487   1.211   6.472  11.215  0.0197  0.2004  0.2904
11691TIP3    H156488   1.130   6.439  11.178  0.4057 -1.2078  0.6263
11691TIP3    H256489   1.184   6.538  11.279 -0.8580 -0.2212  0.3624
11692TIP3   OH256490   2.922   3.407   5.206 -0.1240  0.0509 -0.0811
11692TIP3    H156491   2.858   3.371   5.267 -1.2346  1.2602 -0.4765
11692TIP3    H256492   3.004   3.365   5.230 -0.5952  0.1999  1.9916
11693TIP3   OH256493   5.657   0.361   4.329 -0.3795  0.2064  0.0024
11693TIP3    H156494   5.712   0.438   4.346  2.3644 -1.4010 -1.0011
11693TIP3    H256495   5.616   0.378   4.244  0.0463  0.6238 -0.1189
11694TIP3   OH256496   0.896   0.528   2.188  0.3171  0.1565  0.0200
11694TIP3    H156497   0.910   0.560   2.277  0.9460  0.4057 -0.1596
11694TIP3    H256498   0.909   0.433   2.194 -1.6621 -0.1056  0.5771
11695TIP3   OH256499   1.446   4.214   3.898 -0.4168  0.2738  0.1050
11695TIP3    H156500   1.441   4.270   3.821 -1.0034 -0.8732 -0.7344
11695TIP3    H256501   1.374   4.152   3.888  1.1585 -1.6966  0.0999
11696TIP3   OH256502   2.440   0.237  12.986  0.0342 -0.2721 -0.2706
11696TIP3    H156503   2.410   0.320  12.949 -1.7100  0.0303  1.6304
11696TIP3    H256504   2.426   0.246  13.080  1.8388 -1.9480  0.2285
11697TIP3   OH256505   3.679   3.942   1.323 -0.2935  0.3325  0.6125
11697TIP3    H156506   3.620   3.959   1.397 -1.0823  1.4997 -0.2475
11697TIP3    H256507   3.652   4.005   1.256  2.1814  1.1585  0.3093
11698TIP3   OH256508   0.392   6.649   4.252 -0.3403  0.2741  0.1149
11698TIP3    H156509   0.321   6.586   4.267 -0.7579  0.8138  0.4289
11698TIP3    H256510   0.353   6.716   4.197 -0.3606  1.0773  1.0912
11699TIP3   OH256511   4.587   2.246  16.369 -0.2648  0.2262 -0.1091
11699TIP3    H156512   4.590   2.334  16.330 -0.9769  0.0374 -0.6092
11699TIP3    H256513   4.562   2.189  16.297  1.3778 -0.5745 -0.0751
11700TIP3   OH256514   2.281   3.447  13.197 -0.1667 -0.1342  0.5067
11700TIP3    H156515   2.354   3.413  13.144 -0.9796 -1.0819 -0.0383
11700TIP3    H256516   2.303   3.421  13.286 -1.4057 -3.5362 -0.0051
11701TIP3   OH256517   1.322   4.328  11.260 -0.4878  0.6076 -0.3642
11701TIP3    H156518   1.267   4.280  11.197  0.5453 -0.3042 -0.5923
11701TIP3    H256519   1.308   4.283  11.343  0.3605 -0.0052 -0.5452
11702TIP3   OH256520   5.420   4.730   3.773 -0.6584 -0.0555  0.4424
11702TIP3    H156521   5.361   4.796   3.737 -0.7940 -1.4873 -2.2035
11702TIP3    H256522   5.361   4.663   3.810 -0.8881 -1.6240 -2.4501
11703TIP3   OH256523   4.152   6.305  16.636 -0.1200  0.3760 -0.5183
11703TIP3    H156524   4.237   6.302  16.593  0.0285  2.3606 -0.4306
11703TIP3    H256525   4.112   6.386  16.606 -2.6750 -1.2179 -1.7761
11704TIP3   OH256526   5.987   4.885  15.963  0.5785  0.3678 -0.0991
11704TIP3    H156527   5.941   4.956  15.919  1.2555  0.5152 -0.5783
11704TIP3    H256528   5.944   4.805  15.930 -0.5249  0.5516  0.8343
11705TIP3   OH256529   2.144   2.114   3.837  0.1821  0.0249  0.5491
11705TIP3    H156530   2.183   2.121   3.923 -1.2055  0.5440  1.1682
11705TIP3    H256531   2.207   2.063   3.786  1.4442  0.4855  1.5892
11706TIP3   OH256532   2.176   3.135   1.517  0.0932  0.2772 -0.0897
11706TIP3    H156533   2.201   3.159   1.428 -1.9915 -1.2313 -1.1708
11706TIP3    H256534   2.154   3.042   1.512 -0.2724  0.2061  1.9502
11707TIP3   OH256535   6.341   4.156   0.091 -0.1628 -0.0715 -0.1125
11707TIP3    H156536   6.341   4.182  -0.001 -1.0523  0.2157 -0.0314
11707TIP3    H256537   6.434   4.141   0.111 -0.1198 -2.5203 -1.7220
11708TIP3   OH256538   4.252   0.467  12.479 -0.4581  0.4459 -0.2262
11708TIP3    H156539   4.262   0.560  12.459  1.2452  0.1473 -0.9008
11708TIP3    H256540   4.327   0.447  12.534 -0.3878 -0.7048 -0.7287
11709TIP3   OH256541   0.957   6.252   3.003  0.1920 -0.0595 -0.4486
11709TIP3    H156542   0.864   6.229   3.003 -0.4106  2.0926  0.0062
11709TIP3    H256543   0.989   6.224   3.089  0.1221 -1.2658 -0.7993
11710TIP3   OH256544   5.479   4.071   0.545  0.3536  0.6294  0.3249
11710TIP3    H156545   5.459   4.105   0.632 -2.8647 -0.7473  0.2700
11710TIP3    H256546   5.488   3.976   0.558  0.2130  0.4538 -0.7820
11711TIP3   OH256547   3.398   5.305  14.742  0.0608  0.6927  0.9338
11711TIP3    H156548   3.440   5.381  14.701  0.7467  1.5423  3.0642
11711TIP3    H256549   3.464   5.236  14.739  0.7258  1.2596  2.0413
11712TIP3   OH256550   2.229   2.368   5.724  0.3688  0.1846 -0.3337
11712TIP3    H156551   2.147   2.413   5.745  0.7149  0.1357  1.2897
11712TIP3    H256552   2.296   2.436   5.733  0.6659 -0.1514  0.0237
11713TIP3   OH256553   3.112   4.745  15.009  0.3370 -0.1267  0.2673
11713TIP3    H156554   3.132   4.693  15.087 -0.0899 -1.1079 -0.2498
11713TIP3    H256555   3.019   4.729  14.993  0.3807  0.2002 -0.3363
11714TIP3   OH256556   3.880   4.442  16.042  0.4414  0.3316  0.1569
11714TIP3    H156557   3.949   4.471  16.101  0.6617  0.9046 -0.3706
11714TIP3    H256558   3.809   4.505  16.055  0.2775  0.1386  0.2092
11715TIP3   OH256559   5.204   0.128  12.498  0.0863 -0.4010  0.0197
11715TIP3    H156560   5.258   0.070  12.552 -1.4205  0.1632  2.2324
11715TIP3    H256561   5.183   0.201  12.555 -1.9426  0.0147 -1.1896
11716TIP3   OH256562   4.282   1.590   2.315 -0.3951 -0.2826 -0.1291
11716TIP3    H156563   4.216   1.638   2.265  0.9847  2.2987  0.3102
11716TIP3    H256564   4.232   1.549   2.387 -1.7362  0.0460 -0.8372
11717TIP3   OH256565   1.880   5.169  17.130  0.1692 -0.3147 -0.4069
11717TIP3    H156566   1.976   5.160  17.127  0.1295 -1.6554  1.0044
11717TIP3    H256567   1.850   5.085  17.166 -1.4126  0.6761  0.6817
11718TIP3   OH256568   5.093   1.947  12.462  0.0290  0.1867  0.0501
11718TIP3    H156569   5.090   2.043  12.471 -3.8331  0.3293 -0.8180
11718TIP3    H256570   5.017   1.917  12.512  0.0779 -2.2605 -1.2381
11719TIP3   OH256571   2.528   0.280   4.817  0.0678  0.1469 -0.0837
11719TIP3    H156572   2.598   0.344   4.799  1.5195 -1.1697  0.6367
11719TIP3    H256573   2.529   0.222   4.741 -0.7384  0.5047 -0.3838
11720TIP3   OH256574   4.559   1.720   0.664  0.0969  0.5689 -0.1814
11720TIP3    H156575   4.493   1.687   0.603  0.2115  0.3832 -0.2071
11720TIP3    H256576   4.530   1.689   0.750 -0.5375  1.5763 -0.0203
11721TIP3   OH256577   0.518   4.197  15.336  0.3205  0.3590 -0.3452
11721TIP3    H156578   0.441   4.141  15.339  0.5295  0.0418 -0.8233
11721TIP3    H256579   0.485   4.285  15.354  0.2553 -0.1481  2.4733
11722TIP3   OH256580   3.695   4.176  14.708 -0.9482  0.1454  0.0836
11722TIP3    H156581   3.675   4.257  14.755 -0.2004  1.2765 -1.4731
11722TIP3    H256582   3.703   4.110  14.777 -2.4609  1.1811  1.3277
11723TIP3   OH256583   5.824   0.264   5.955 -0.5367  0.2130 -0.4552
11723TIP3    H156584   5.900   0.298   5.909  0.7261 -0.8346  0.7725
11723TIP3    H256585   5.854   0.183   5.995 -1.1136  1.5691  3.1671
11724TIP3   OH256586   2.316   4.222   3.060 -0.3547 -0.2924  0.3056
11724TIP3    H156587   2.312   4.149   3.122 -1.0619 -0.2559  0.3015
11724TIP3    H256588   2.281   4.188   2.979  0.2210 -0.2263  0.0203
11725TIP3   OH256589   6.751   2.589   0.999  0.0022  0.3004 -0.2147
11725TIP3    H156590   6.675   2.608   0.943 -0.6002  1.1437  0.8435
11725TIP3    H256591   6.803   2.669   0.996  2.0229 -1.0070 -2.6453
11726TIP3   OH256592   0.625   0.620  16.570 -0.2788 -0.4975  0.1540
11726TIP3    H156593   0.629   0.557  16.641  0.3806 -1.7433 -0.9537
11726TIP3    H256594   0.574   0.693  16.606 -2.1282 -2.1624  1.0448
11727TIP3   OH256595   5.700   4.489  12.825 -0.0914  0.0742 -0.0151
11727TIP3    H156596   5.709   4.467  12.918  0.6951  2.2401  0.4668
11727TIP3    H256597   5.619   4.539  12.820 -0.1047  0.0053 -0.5092
11728TIP3   OH256598   3.499   0.031   2.570 -0.1784  0.2422  0.1257
11728TIP3    H156599   3.582   0.003   2.529 -0.1230  0.2539  0.2296
11728TIP3    H256600   3.465   0.098   2.511 -0.4381 -0.2227 -0.2621
11729TIP3   OH256601   4.318   6.273  10.760 -0.5360 -0.2794  0.2380
11729TIP3    H156602   4.283   6.333  10.825  0.3011  0.5868 -0.0820
11729TIP3    H256603   4.385   6.222  10.807  0.3410  0.6106 -0.0052
11730TIP3   OH256604   1.923   2.073  16.045  0.1185 -0.5734 -0.1028
11730TIP3    H156605   1.911   1.996  15.989  0.5798 -2.0013  1.6509
11730TIP3    H256606   1.999   2.118  16.007 -0.1436 -0.9854 -1.1559
11731TIP3   OH256607   4.641   4.855   5.001 -0.1237 -0.2042 -0.1194
11731TIP3    H156608   4.728   4.816   4.992  1.1643  1.6343  2.7330
11731TIP3    H256609   4.591   4.793   5.054 -0.5009 -1.1055 -1.4787
11732TIP3   OH256610   6.196   0.589  13.427  0.0352 -0.3391 -0.3103
11732TIP3    H156611   6.242   0.650  13.484 -0.6273 -0.6143  0.5357
11732TIP3    H256612   6.143   0.645  13.369  1.4603 -0.0174 -1.3585
11733TIP3   OH256613   0.638   5.073  11.719  0.1497  0.0306  0.0638
11733TIP3    H156614   0.562   5.117  11.758  0.1916  0.9567 -0.8624
11733TIP3    H256615   0.711   5.096  11.778 -0.1038 -0.0819  0.4289
11734TIP3   OH256616   1.482   4.444   0.399  0.0476  0.0495  0.4681
11734TIP3    H156617   1.537   4.372   0.369  0.1253  0.3224 -0.0438
11734TIP3    H256618   1.423   4.404   0.463 -0.8485 -0.7558 -0.8302
11735TIP3   OH256619   5.224   3.097   0.568  0.4549 -0.3831  0.2816
11735TIP3    H156620   5.238   3.140   0.483  0.5894 -2.4269 -0.7767
11735TIP3    H256621   5.267   3.012   0.560  0.2423 -0.7380  2.3250
11736TIP3   OH256622   6.534   5.498   0.820 -0.2764 -0.2402  0.0577
11736TIP3    H156623   6.602   5.533   0.761 -0.5550  0.6614  0.2661
11736TIP3    H256624   6.535   5.404   0.803  0.0466 -0.0681 -0.9824
11737TIP3   OH256625   4.167   5.546   0.392 -0.5060  0.1871  0.5474
11737TIP3    H156626   4.211   5.475   0.438  0.3802 -0.0456 -0.6172
11737TIP3    H256627   4.162   5.517   0.301 -2.1498  0.6633  0.4476
11738TIP3   OH256628   2.898   6.709  15.484 -0.1689 -0.3292  0.0203
11738TIP3    H156629   2.919   6.681  15.395 -1.8735  1.6096 -1.0741
11738TIP3    H256630   2.891   6.804  15.478 -0.3899 -0.1575  2.2345
11739TIP3   OH256631   0.070   4.860  16.229 -0.4720 -0.3292  0.0490
11739TIP3    H156632   0.151   4.890  16.187 -0.6064 -0.4478 -0.2923
11739TIP3    H256633   0.018   4.940  16.239 -2.0692 -0.7613 -3.4982
11740TIP3   OH256634   4.444   4.341   1.589  0.2207 -0.0335  0.1011
11740TIP3    H156635   4.445   4.246   1.573 -0.8758  0.1879 -1.4099
11740TIP3    H256636   4.520   4.373   1.540  0.1186 -0.0351 -0.0592
11741TIP3   OH256637   2.542   3.244   1.542 -0.1381 -0.0272 -0.8273
11741TIP3    H156638   2.636   3.225   1.537 -0.2630 -1.2374  0.6681
11741TIP3    H256639   2.524   3.254   1.635 -1.4925  0.1960 -1.0897
11742TIP3   OH256640   4.788   3.860  11.585  0.0648 -0.3762  0.1559
11742TIP3    H156641   4.720   3.910  11.540 -0.1037 -0.1584  0.6409
11742TIP3    H256642   4.868   3.910  11.571  0.3038 -1.0936 -1.1695
11743TIP3   OH256643   5.678   5.782  14.643 -0.3470  0.3324  0.0904
11743TIP3    H156644   5.657   5.787  14.737 -1.0945  2.0890 -0.1347
11743TIP3    H256645   5.768   5.814  14.636 -0.3049  0.2382  0.1914
11744TIP3   OH256646   3.992   0.793  11.500  0.2521  0.4043  0.3784
11744TIP3    H156647   3.925   0.857  11.479  1.1511  0.9242 -1.0393
11744TIP3    H256648   4.033   0.772  11.416  2.6218  0.9921  1.3068
11745TIP3   OH256649   4.216   4.152  16.279 -0.0688  0.4133  0.2464
11745TIP3    H156650   4.311   4.155  16.281 -0.0860  0.5860  1.8123
11745TIP3    H256651   4.194   4.154  16.186  1.5073 -1.7219 -0.2498
11746TIP3   OH256652   3.430   6.047   2.021 -0.1088 -0.1826 -0.5916
11746TIP3    H156653   3.496   6.116   2.025  0.7227 -0.9659  3.4490
11746TIP3    H256654   3.469   5.981   1.963 -0.0614  1.7624 -2.9343
11747TIP3   OH256655   3.167   5.394   4.493  0.1933 -0.6404 -0.1623
11747TIP3    H156656   3.194   5.305   4.517  0.3770  0.0279  2.3997
11747TIP3    H256657   3.072   5.394   4.504  0.3352 -0.1763  1.3381
11748TIP3   OH256658   4.069   5.311  11.062  0.5168  0.5728 -0.1265
11748TIP3    H156659   4.121   5.319  11.142  0.5314  1.4790 -0.2165
11748TIP3    H256660   4.124   5.260  11.002  1.3253  1.5450 -0.2334
11749TIP3   OH256661   0.903   1.839   0.543  0.3634  0.0800  0.6122
11749TIP3    H156662   0.967   1.790   0.594  0.8671  1.6996  1.6104
11749TIP3    H256663   0.955   1.898   0.488 -0.2091  1.8940  1.9180
11750TIP3   OH256664   0.312   6.716   1.479  0.0714  0.0024 -0.1851
11750TIP3    H156665   0.394   6.669   1.466 -0.0469 -0.0900 -0.6157
11750TIP3    H256666   0.338   6.804   1.507  0.3165  0.0161 -0.4586
11751TIP3   OH256667   2.389   4.459   3.148 -0.3128  0.3832  0.5293
11751TIP3    H156668   2.355   4.375   3.118  0.1739  0.8198 -1.3444
11751TIP3    H256669   2.421   4.502   3.069  1.5947  1.3651  1.7553
11752TIP3   OH256670   4.470   6.227  15.505 -0.7083 -1.2082  0.2163
11752TIP3    H156671   4.543   6.167  15.492 -0.8479 -1.3584  0.1310
11752TIP3    H256672   4.433   6.240  15.418 -0.9487 -1.3412  0.2963
11753TIP3   OH256673   0.535   2.264   0.958 -0.1081 -0.6552 -0.2038
11753TIP3    H156674   0.492   2.186   0.993 -0.6888 -0.9058 -1.4254
11753TIP3    H256675   0.590   2.295   1.030  0.0194 -2.1020  0.3659
11754TIP3   OH256676   6.181   1.670  13.071  0.3716 -0.0687  0.0957
11754TIP3    H156677   6.122   1.738  13.102 -1.1802  0.3932 -3.3527
11754TIP3    H256678   6.175   1.675  12.975  2.9276 -2.7497 -0.3589
11755TIP3   OH256679   4.536   3.094   5.035  0.1881 -0.1848 -0.3784
11755TIP3    H156680   4.585   3.019   5.070  0.5167  0.1402 -0.1317
11755TIP3    H256681   4.521   3.072   4.943  2.0657  0.3271 -0.8574
11756TIP3   OH256682   6.261   3.446   2.474 -0.1100 -0.3510 -0.0447
11756TIP3    H156683   6.258   3.497   2.555  1.0546 -0.6169  0.1863
11756TIP3    H256684   6.342   3.396   2.481  0.5638  0.4303 -1.8573
11757TIP3   OH256685   2.132   1.110   5.484  0.0022 -0.6975 -0.1310
11757TIP3    H156686   2.187   1.032   5.487 -0.3091 -0.9733 -1.0558
11757TIP3    H256687   2.042   1.076   5.487 -0.1462 -0.2373  1.6195
11758TIP3   OH256688   0.818   2.019   1.760 -0.1906  0.1240  0.6416
11758TIP3    H156689   0.904   1.982   1.778  0.0794  0.3858 -0.1073
11758TIP3    H256690   0.757   1.946   1.774  0.1903 -0.1736  0.7535
11759TIP3   OH256691   4.024   1.315   0.362  0.0085  0.0295 -0.3734
11759TIP3    H156692   3.972   1.259   0.305  0.0765  0.2086 -0.6123
11759TIP3    H256693   4.044   1.391   0.309 -0.0219  0.2496 -0.0727
11760TIP3   OH256694   6.214   0.682  14.436 -0.1401 -0.6872  0.2364
11760TIP3    H156695   6.281   0.746  14.411 -1.7330  0.6117 -0.9380
11760TIP3    H256696   6.263   0.609  14.474  1.8747  0.4675 -0.0155
11761TIP3   OH256697   2.649   1.297   3.854 -0.0158  0.3822  0.2232
11761TIP3    H156698   2.616   1.246   3.780  0.2874 -0.0212  0.3653
11761TIP3    H256699   2.710   1.359   3.815 -0.0834  0.3711  0.0990
11762TIP3   OH256700   3.248   3.785   3.660  0.0742 -0.0529  0.0467
11762TIP3    H156701   3.335   3.760   3.690 -0.4742 -0.8212  1.0709
11762TIP3    H256702   3.257   3.798   3.566  1.3687  0.2366  0.1944
11763TIP3   OH256703   0.327   0.199  15.643 -0.4433 -0.8023  0.4454
11763TIP3    H156704   0.351   0.223  15.554  1.0307 -0.5953  0.8783
11763TIP3    H256705   0.385   0.126  15.665 -1.1951 -1.2376  1.0337
11764TIP3   OH256706   4.432   6.569   2.747  0.1931  0.5679 -0.3092
11764TIP3    H156707   4.479   6.570   2.664  0.2661  2.2073 -0.2796
11764TIP3    H256708   4.359   6.630   2.734 -1.1687 -0.9082  0.0867
11765TIP3   OH256709   1.149   3.793  13.386 -0.0198 -0.5733 -0.5122
11765TIP3    H156710   1.242   3.782  13.363 -0.0662 -0.1591 -0.9221
11765TIP3    H256711   1.125   3.876  13.345 -0.4392 -0.4266  0.0332
11766TIP3   OH256712   0.315   3.674   2.797 -0.0316 -0.0335 -0.2285
11766TIP3    H156713   0.317   3.699   2.704 -1.4325 -1.3892 -0.6756
11766TIP3    H256714   0.225   3.647   2.812  0.1616  0.2390  1.5758
11767TIP3   OH256715   1.993   3.211  11.607  0.3158  0.1179 -0.1904
11767TIP3    H156716   2.045   3.145  11.652  0.7052  1.2517  1.1018
11767TIP3    H256717   1.914   3.219  11.661 -0.4167 -0.3509 -1.1716
11768TIP3   OH256718   6.572   3.653   4.282  0.4543  0.1488  0.0464
11768TIP3    H156719   6.513   3.582   4.310  1.2917 -0.5170  0.1797
11768TIP3    H256720   6.569   3.650   4.187 -0.2537  0.5823  0.0441
11769TIP3   OH256721   6.201   4.863  12.959 -0.4912  0.4204  0.0504
11769TIP3    H156722   6.197   4.835  13.050 -0.8789  1.5998  0.4240
11769TIP3    H256723   6.184   4.958  12.962  0.5043  0.6661 -1.1499
11770TIP3   OH256724   0.321   1.473  14.444 -0.6742  0.5434  0.4562
11770TIP3    H156725   0.301   1.380  14.454 -0.8508  0.6133  0.8005
11770TIP3    H256726   0.267   1.516  14.511 -0.8246  0.9199  0.0971
11771TIP3   OH256727   4.728   1.650  16.955  0.1618 -0.5107  0.2743
11771TIP3    H156728   4.710   1.595  16.879  1.2782 -1.0485  0.3719
11771TIP3    H256729   4.673   1.728  16.942  0.3650 -0.5622 -1.1081
11772TIP3   OH256730   2.275   6.220  11.104 -0.0407  0.2605  0.0535
11772TIP3    H156731   2.189   6.235  11.144 -0.9444 -1.6932 -0.9993
11772TIP3    H256732   2.255   6.189  11.016  1.8148  1.0917 -0.7034
11773TIP3   OH256733   5.451   3.712  12.717 -0.0322 -0.0538  0.1850
11773TIP3    H156734   5.390   3.686  12.786 -0.5666 -1.2050 -0.6918
11773TIP3    H256735   5.530   3.738  12.764 -0.4079 -0.7435  1.2298
11774TIP3   OH256736   3.975   4.084   2.389  0.0092 -0.1657  0.1649
11774TIP3    H156737   4.037   4.077   2.462 -0.7729 -1.5235  0.7187
11774TIP3    H256738   3.893   4.112   2.429  0.3406  2.3094 -0.6530
11775TIP3   OH256739   3.340   5.966   2.274 -0.0296 -0.0678 -0.0727
11775TIP3    H156740   3.376   5.940   2.190 -0.9647 -0.1267 -0.4734
11775TIP3    H256741   3.393   5.919   2.339  0.2740 -0.5412 -0.6552
11776TIP3   OH256742   0.703   4.590  16.866 -0.3143  0.1328 -0.1708
11776TIP3    H156743   0.651   4.613  16.789 -0.7935  1.3703  0.4925
11776TIP3    H256744   0.651   4.523  16.911 -0.2478 -0.2624 -0.6691
11777TIP3   OH256745   0.994   4.295   1.143 -1.2236  0.1387  0.7325
11777TIP3    H156746   0.987   4.201   1.125  1.4863 -0.4857  2.3400
11777TIP3    H256747   1.044   4.330   1.070 -1.8254  0.2543  0.3712
11778TIP3   OH256748   4.155   4.577  12.355  0.0422 -1.2459 -0.2504
11778TIP3    H156749   4.185   4.644  12.416 -0.1047 -0.7500 -0.7133
11778TIP3    H256750   4.158   4.496  12.405  0.4519 -0.9324  0.2450
11779TIP3   OH256751   0.633   6.653  16.778  0.7842  0.4033  0.4062
11779TIP3    H156752   0.713   6.604  16.765  0.7926 -0.6115  3.5368
11779TIP3    H256753   0.621   6.701  16.696  3.4566 -0.9462 -0.9047
11780TIP3   OH256754   5.714   1.568  16.803 -0.1634 -0.2247  0.4678
11780TIP3    H156755   5.728   1.528  16.717 -0.4260  0.6792 -0.0135
11780TIP3    H256756   5.797   1.554  16.849 -0.4344 -1.7648  0.5190
11781TIP3   OH256757   4.891   5.262   6.378 -0.3518 -0.2494 -0.3106
11781TIP3    H156758   4.880   5.193   6.443  1.1806 -1.0006 -0.7897
11781TIP3    H256759   4.819   5.323   6.394  0.9193  0.5429  3.2618
11782TIP3   OH256760   0.913   6.505  15.918 -0.5021 -0.4299 -0.1168
11782TIP3    H156761   0.896   6.556  15.997 -1.9989  1.4913 -1.6083
11782TIP3    H256762   0.837   6.447  15.910  0.1305 -1.3490  0.3632
11783TIP3   OH256763   6.265   0.663   0.638  0.4265  0.2363  0.6773
11783TIP3    H156764   6.195   0.727   0.622  1.2524  1.0667  0.2785
11783TIP3    H256765   6.229   0.604   0.704 -0.2469  1.3229  1.3245
11784TIP3   OH256766   2.330   4.784  15.043  0.3102  0.0133  0.2344
11784TIP3    H156767   2.420   4.763  15.021  0.3998  1.2544 -0.7806
11784TIP3    H256768   2.278   4.716  15.000  0.7845 -1.2452  1.6174
11785TIP3   OH256769   5.044   3.459   1.762  0.2902 -0.0729 -0.1314
11785TIP3    H156770   4.960   3.480   1.720  0.2279  0.8537  0.4163
11785TIP3    H256771   5.050   3.363   1.757 -1.7729 -0.3849  1.5395
11786TIP3   OH256772   2.933   0.665   0.722  0.5868 -0.0341 -0.4573
11786TIP3    H156773   2.916   0.668   0.627 -1.9661  0.9331 -0.0546
11786TIP3    H256774   3.024   0.695   0.731  0.3354  1.5714 -2.4961
11787TIP3   OH256775   4.184   0.347  13.545 -0.0627 -0.3239 -0.2783
11787TIP3    H156776   4.194   0.435  13.582 -0.4863 -0.1727 -0.5204
11787TIP3    H256777   4.102   0.315  13.580 -0.0204 -0.5345 -0.3693
11788TIP3   OH256778   1.856   0.516  11.498  0.1669  0.3524  0.1044
11788TIP3    H156779   1.820   0.482  11.580 -0.1595  0.8716  0.1798
11788TIP3    H256780   1.781   0.521  11.439  0.4300 -0.1651 -0.2793
11789TIP3   OH256781   3.165   2.366   0.593  0.5044  0.4220 -0.1946
11789TIP3    H156782   3.184   2.302   0.524 -1.1705  0.1748 -0.4678
11789TIP3    H256783   3.117   2.436   0.549  1.6721  1.5364  0.2496
11790TIP3   OH256784   6.352   3.054   3.230  0.3539 -0.1412 -0.3735
11790TIP3    H156785   6.368   3.096   3.146  1.5831 -0.3700 -0.2678
11790TIP3    H256786   6.435   3.062   3.277 -0.3673  0.1519  0.8910
11791TIP3   OH256787   5.053   4.765   5.823  0.3457 -0.6050  0.1624
11791TIP3    H156788   5.142   4.754   5.858  0.6270  1.0640  0.0308
11791TIP3    H256789   4.999   4.782   5.900  0.4544  0.1431  0.0767
11792TIP3   OH256790   4.336   3.842  11.955 -0.2916 -0.4372 -0.2166
11792TIP3    H156791   4.322   3.773  11.891 -1.7415 -1.1851  0.8455
11792TIP3    H256792   4.250   3.854  11.996 -0.1544  2.1373 -0.4913
11793TIP3   OH256793   2.922   1.393  13.507  0.6199  0.1331  0.2175
11793TIP3    H156794   2.925   1.355  13.420  2.3160 -0.2474  0.4097
11793TIP3    H256795   2.923   1.488  13.492  0.4577  0.0724 -0.1779
11794TIP3   OH256796   2.893   5.089  11.111  0.3252  0.1578  0.1256
11794TIP3    H156797   2.834   5.090  11.036  0.3501  0.0756  0.1040
11794TIP3    H256798   2.890   4.998  11.142  0.6177  0.0956 -0.0193
11795TIP3   OH256799   0.117   5.427  16.943 -0.4709  0.0345  0.0800
11795TIP3    H156800   0.044   5.481  16.974 -1.1962 -1.5377  1.2717
11795TIP3    H256801   0.121   5.354  17.005  0.5342 -1.2152 -1.3769
11796TIP3   OH256802   4.127   5.276   0.887 -0.8368 -0.1098 -0.4268
11796TIP3    H156803   4.208   5.327   0.887 -0.9387  0.0791 -1.4067
11796TIP3    H256804   4.063   5.334   0.846 -1.2482 -0.5748 -0.4420
11797TIP3   OH256805   0.127   4.838   1.173 -0.0550 -0.1823 -0.2405
11797TIP3    H156806   0.216   4.867   1.194  0.6266 -1.1144 -1.6610
11797TIP3    H256807   0.113   4.866   1.082 -0.7761 -1.0360 -0.4118
11798TIP3   OH256808   0.967   0.909  12.732  0.3574  0.1205  0.5317
11798TIP3    H156809   1.037   0.936  12.672  0.5342 -1.2767  0.0684
11798TIP3    H256810   0.971   0.971  12.804  3.0583 -0.7795  1.2523
11799TIP3   OH256811   5.223   4.280  13.897  0.4225  0.6044  0.1997
11799TIP3    H156812   5.268   4.259  13.979  0.3041  1.6185  0.5352
11799TIP3    H256813   5.146   4.330  13.924  1.0819  2.1295 -0.5881
11800TIP3   OH256814   5.463   3.924  15.559 -0.4456 -0.1905 -0.3454
11800TIP3    H156815   5.534   3.878  15.515 -0.7327  0.3342 -1.3967
11800TIP3    H256816   5.400   3.943  15.489 -1.5669 -0.5484  0.5467
11801TIP3   OH256817   3.444   1.021   6.567 -0.1689  0.2808 -0.2190
11801TIP3    H156818   3.454   1.115   6.551 -0.4916  0.5774  1.1519
11801TIP3    H256819   3.519   0.980   6.524 -0.3422  1.0901 -1.3412
11802TIP3   OH256820   0.996   3.655   3.101  0.0675  0.2819  0.0258
11802TIP3    H156821   1.056   3.582   3.116 -0.9393 -0.7932 -1.0198
11802TIP3    H256822   0.921   3.616   3.055 -0.4227  1.9948 -0.7094
11803TIP3   OH256823   2.398   6.417   3.043 -0.6698  0.8623 -0.2360
11803TIP3    H156824   2.467   6.371   2.995 -1.0012 -2.2689  1.9667
11803TIP3    H256825   2.327   6.428   2.979  0.6586  1.3441 -1.6916
11804TIP3   OH256826   6.330   3.304  15.600 -0.1903  0.2235 -0.0735
11804TIP3    H156827   6.386   3.229  15.620 -1.3119 -1.3718 -2.4426
11804TIP3    H256828   6.390   3.369  15.564  0.4699 -0.6151 -0.5409
11805TIP3   OH256829   0.008   4.159  12.431 -0.3321 -0.5516  0.2216
11805TIP3    H156830   0.002   4.200  12.345 -0.6151  3.7114  2.0660
11805TIP3    H256831   0.094   4.117  12.432  0.1716  0.3199 -1.7036
11806TIP3   OH256832   3.959   5.877   5.152  0.0147 -0.6923 -0.4071
11806TIP3    H156833   4.000   5.797   5.118  0.0799 -0.1226 -1.7347
11806TIP3    H256834   3.900   5.846   5.220 -0.1605 -1.9165 -1.0764
11807TIP3   OH256835   1.821   5.463  16.713  0.5780 -0.6137 -0.0601
11807TIP3    H156836   1.822   5.416  16.630  0.1530 -1.9931  0.6710
11807TIP3    H256837   1.729   5.486  16.726  0.5558 -0.8602  0.2522
11808TIP3   OH256838   6.256   4.125  16.702  0.5095 -0.1201 -0.3964
11808TIP3    H156839   6.341   4.147  16.663  0.0031  0.1159 -1.4018
11808TIP3    H256840   6.233   4.201  16.755  0.6690  0.0542 -0.5732
11809TIP3   OH256841   2.562   5.938  13.015 -0.3402 -0.1516 -0.4448
11809TIP3    H156842   2.492   5.986  13.059  0.4165 -0.2996  0.9968
11809TIP3    H256843   2.532   5.847  13.015  0.4381 -0.4616  1.5277
11810TIP3   OH256844   3.349   6.542  13.024  0.1442 -0.0343 -0.0369
11810TIP3    H156845   3.351   6.577  13.113  1.4840 -0.0523 -0.0462
11810TIP3    H256846   3.289   6.600  12.977  0.4637  0.7860  0.5448
11811TIP3   OH256847   0.529   1.296   1.262 -0.0984 -0.7153 -0.0457
11811TIP3    H156848   0.470   1.300   1.337  0.0094 -0.3504  0.0227
11811TIP3    H256849   0.600   1.238   1.290 -0.0482 -0.5640  0.1436
11812TIP3   OH256850   5.147   6.050  15.078 -0.1862 -0.3965 -0.3206
11812TIP3    H156851   5.115   5.984  15.016  1.5453  0.5515 -2.3595
11812TIP3    H256852   5.100   6.130  15.055 -0.1290 -0.2303  0.1356
11813TIP3   OH256853   1.735   4.895  12.102 -0.4343  0.0714  0.0842
11813TIP3    H156854   1.755   4.811  12.143 -2.6654 -0.1200  0.8703
11813TIP3    H256855   1.642   4.908  12.116 -0.7641  1.3260 -2.5683
11814TIP3   OH256856   2.041   4.037  17.041  0.1607  0.4693  0.5838
11814TIP3    H156857   2.130   4.002  17.033  0.1704  0.4392  0.8359
11814TIP3    H256858   2.043   4.092  17.119  0.2091  1.2281  0.0607
11815TIP3   OH256859   5.214   5.723   1.886 -0.5980 -0.0278  0.4594
11815TIP3    H156860   5.187   5.788   1.822 -0.6205 -0.2542  0.2386
11815TIP3    H256861   5.142   5.660   1.888 -2.1421  1.6492  3.0694
11816TIP3   OH256862   5.518   4.794  12.439  0.4753 -0.2098  0.1348
11816TIP3    H156863   5.422   4.801  12.440  0.4484  1.9640 -2.9738
11816TIP3    H256864   5.536   4.723  12.378  0.7529  1.3501 -1.6847
11817TIP3   OH256865   5.407   5.480   0.938 -0.3951  0.5309  0.2432
11817TIP3    H156866   5.436   5.482   1.030 -0.3744  1.3315  0.2317
11817TIP3    H256867   5.371   5.568   0.923 -0.9170  0.2193 -0.3523
11818TIP3   OH256868   0.759   3.307   1.110 -0.1289 -0.7751  0.8940
11818TIP3    H156869   0.679   3.254   1.105  0.1903 -1.2374  0.6077
11818TIP3    H256870   0.728   3.397   1.109 -0.5812 -0.8685 -1.7698
11819TIP3   OH256871   2.843   0.443  15.329  0.6180 -0.7172  0.2052
11819TIP3    H156872   2.876   0.519  15.375 -2.2435  0.4107  0.6241
11819TIP3    H256873   2.830   0.473  15.239  0.4069 -0.9906  0.1405
11820TIP3   OH256874   4.271   6.454   5.394 -0.2307  0.0267 -0.0261
11820TIP3    H156875   4.344   6.502   5.432 -0.7165 -1.4399  3.1121
11820TIP3    H256876   4.292   6.362   5.410 -2.4883 -0.4514  0.5346
11821TIP3   OH256877   6.188   4.675  12.752  0.1230 -0.1620  0.3072
11821TIP3    H156878   6.186   4.675  12.656  1.3476  0.4436  0.2608
11821TIP3    H256879   6.143   4.756  12.776 -0.5371 -0.5108  0.2658
11822TIP3   OH256880   1.012   0.585  16.452  0.1352 -0.0758  0.1837
11822TIP3    H156881   1.100   0.557  16.477  0.4805 -0.6169 -1.4874
11822TIP3    H256882   1.017   0.681  16.450  0.9750 -0.1178 -0.7637
11823TIP3   OH256883   2.032   2.275   4.443 -0.5826 -0.1095  0.6881
11823TIP3    H156884   2.052   2.369   4.436  0.0863 -0.2249  1.0641
11823TIP3    H256885   2.098   2.240   4.503 -1.0177 -0.7668  0.7946
11824TIP3   OH256886   6.228   6.763  15.483  0.1433 -0.0550 -0.4208
11824TIP3    H156887   6.227   6.766  15.387  2.0521  2.1569 -0.4833
11824TIP3    H256888   6.251   6.673  15.504  0.1877 -0.4714 -2.0642
11825TIP3   OH256889   0.810   1.153  12.368  0.5733 -0.1974 -0.0257
11825TIP3    H156890   0.765   1.214  12.310 -0.9468 -1.7795 -0.5940
11825TIP3    H256891   0.763   1.159  12.451 -0.4136 -1.4437 -0.4546
11826TIP3   OH256892   3.015   1.243   5.962  0.1840 -0.2410 -0.1669
11826TIP3    H156893   3.023   1.158   5.917  0.7364 -0.7673  0.8882
11826TIP3    H256894   3.001   1.220   6.053  0.1780  0.8159  0.1043
11827TIP3   OH256895   2.524   2.584   2.480  0.2019  0.1615  0.1535
11827TIP3    H156896   2.502   2.507   2.532  0.3349 -0.5264 -0.7791
11827TIP3    H256897   2.526   2.552   2.390 -1.2319  1.5522 -0.4336
11828TIP3   OH256898   5.931   4.009  15.495 -0.4097 -0.2985  0.7281
11828TIP3    H156899   6.018   4.012  15.532  0.2448  0.1890 -0.7570
11828TIP3    H256900   5.875   4.054  15.559  0.7046  0.7343  0.9987
11829TIP3   OH256901   0.198   0.211   4.115  0.0405  0.7022 -0.0025
11829TIP3    H156902   0.144   0.265   4.057 -1.1391 -0.4714 -0.0518
11829TIP3    H256903   0.287   0.218   4.079 -0.3983  1.2376 -1.0155
11830TIP3   OH256904   2.467   3.120  16.946 -0.1612  0.2598  0.4622
11830TIP3    H156905   2.428   3.052  16.891 -0.3700 -0.4126  1.4128
11830TIP3    H256906   2.562   3.106  16.937 -0.2027 -0.6309  1.1903
11831TIP3   OH256907   6.448   6.548  15.284  0.4218 -0.5217 -0.4805
11831TIP3    H156908   6.403   6.479  15.333  0.2476 -0.0812 -0.0120
11831TIP3    H256909   6.380   6.613  15.265  0.7279 -0.1383 -0.2906
11832TIP3   OH256910   5.135   6.551   0.272 -0.8081 -0.3500  0.2184
11832TIP3    H156911   5.180   6.467   0.278  0.6094  0.4580  1.5194
11832TIP3    H256912   5.159   6.585   0.186  1.5288  0.2620  1.0432
11833TIP3   OH256913   1.785   2.140  12.499 -0.5865 -0.1682 -0.0544
11833TIP3    H156914   1.803   2.228  12.467  2.1298 -0.6984 -0.2232
11833TIP3    H256915   1.795   2.147  12.594  3.2984 -0.8983 -0.2721
11834TIP3   OH256916   0.338   1.861   5.500 -0.4491  0.6676  0.8308
11834TIP3    H156917   0.400   1.797   5.466 -0.1334 -0.1829  2.9045
11834TIP3    H256918   0.304   1.905   5.422  2.5563  1.0210 -0.4096
11835TIP3   OH256919   3.846   5.856   2.726  0.1166  0.1892  0.2689
11835TIP3    H156920   3.792   5.780   2.745 -0.0536 -0.1166 -1.3061
11835TIP3    H256921   3.934   5.831   2.752 -0.0239 -0.3574  0.2167
11836TIP3   OH256922   0.429   0.035  16.932  0.3081 -0.0572  0.4493
11836TIP3    H156923   0.381   0.109  16.969  3.3971  2.0376  0.5832
11836TIP3    H256924   0.435   0.055  16.839  0.9839 -0.2429  0.4522
11837TIP3   OH256925   4.437   3.428  11.783  0.1681 -0.2400 -0.6133
11837TIP3    H156926   4.375   3.414  11.712 -1.2434 -0.0353  0.5128
11837TIP3    H256927   4.423   3.353  11.842 -0.8421  1.0839  0.8988
11838TIP3   OH256928   4.733   6.307   1.657 -0.1358 -0.5586 -0.2799
11838TIP3    H156929   4.819   6.349   1.647  0.1705 -1.0602  0.1699
11838TIP3    H256930   4.690   6.356   1.727  0.8972 -1.9958  1.4703
11839TIP3   OH256931   3.518   2.288  13.953  0.3374 -0.3842  0.3617
11839TIP3    H156932   3.565   2.227  14.010  1.3685 -0.9670 -1.0367
11839TIP3    H256933   3.547   2.375  13.980  0.0742 -0.5841  1.3274
11840TIP3   OH256934   2.919   4.171  12.897  0.3073 -0.1022 -0.2645
11840TIP3    H156935   2.956   4.128  12.820 -1.0021 -0.2451 -0.8298
11840TIP3    H256936   2.989   4.166  12.963  0.3946 -2.6272 -0.4651
11841TIP3   OH256937   5.874   5.860   2.730 -0.4780 -0.0910 -0.2710
11841TIP3    H156938   5.928   5.825   2.801 -0.2391  2.0632  0.7007
11841TIP3    H256939   5.796   5.805   2.730  0.2291 -1.1335  0.5958
11842TIP3   OH256940   0.898   1.289  11.143  0.3559 -0.2095  0.6013
11842TIP3    H156941   0.905   1.223  11.075  1.6686 -0.4560  0.9445
11842TIP3    H256942   0.943   1.251  11.219 -0.2815  0.4188  1.3237
11843TIP3   OH256943   2.828   1.614  12.448 -0.4562  0.4249  0.3861
11843TIP3    H156944   2.749   1.664  12.468 -0.7435 -0.5371  1.7617
11843TIP3    H256945   2.821   1.535  12.502  1.3630  0.2359  0.3868
11844TIP3   OH256946   5.593   0.858   1.832  0.0092  0.3143  0.8502
11844TIP3    H156947   5.499   0.841   1.836 -0.5208  1.8500 -2.0243
11844TIP3    H256948   5.628   0.784   1.782  0.0860  0.4100  0.7617
11845TIP3   OH256949   6.749   0.040  15.914 -0.5237 -0.0147  0.3811
11845TIP3    H156950   6.753   0.122  15.961 -3.5078  0.2502  0.3600
11845TIP3    H256951   6.831   0.037  15.864 -0.6898  3.3848 -0.3312
11846TIP3   OH256952   5.073   5.360  14.724  0.3732  0.1616 -0.2246
11846TIP3    H156953   5.111   5.390  14.807 -0.0741  0.6479 -0.1928
11846TIP3    H256954   5.125   5.402  14.656 -0.9363  1.9498 -0.1859
11847TIP3   OH256955   5.051   4.899  11.301  0.4420 -0.6920 -0.2637
11847TIP3    H156956   5.071   4.880  11.209  2.4246 -1.3924  0.2649
11847TIP3    H256957   5.075   4.991  11.313 -0.1874 -0.4896 -0.5303
11848TIP3   OH256958   4.238   4.338  11.920 -0.3660 -0.0247 -0.1809
11848TIP3    H156959   4.285   4.273  11.868 -0.8211 -0.5618  0.0663
11848TIP3    H256960   4.187   4.286  11.983 -0.4202  0.5859  0.2874
11849TIP3   OH256961   1.460   0.755   4.505 -0.7105 -0.1164  0.1280
11849TIP3    H156962   1.397   0.687   4.483 -0.2939 -0.1959 -0.8782
11849TIP3    H256963   1.490   0.788   4.420 -1.4573  1.8480  0.5602
11850TIP3   OH256964   1.086   1.942   2.851 -0.1172 -0.3693  0.8132
11850TIP3    H156965   1.001   1.898   2.855 -1.4480  1.9167 -0.4053
11850TIP3    H256966   1.089   1.997   2.929  0.6114 -0.9834  1.2379
11851TIP3   OH256967   4.375   5.420  13.796  0.4054 -0.2030  0.1101
11851TIP3    H156968   4.281   5.411  13.784  0.2754  1.4461 -0.3383
11851TIP3    H256969   4.391   5.389  13.885 -0.6636  0.1908  0.4537
11852TIP3   OH256970   5.363   0.242   2.038  0.4107  0.0375  0.2571
11852TIP3    H156971   5.303   0.188   1.986  0.7585 -0.3145  0.2130
11852TIP3    H256972   5.444   0.190   2.042  0.0640 -0.4217  2.0190
11853TIP3   OH256973   6.293   4.098  14.895 -0.4962 -0.1628 -0.5344
11853TIP3    H156974   6.351   4.165  14.931  2.2635 -1.9021 -1.4319
11853TIP3    H256975   6.282   4.035  14.966 -1.3315  0.1560 -0.3705
11854TIP3   OH256976   3.906   2.820  15.152 -0.0689 -0.2178 -0.0233
11854TIP3    H156977   3.983   2.861  15.193  0.0101  0.1444 -0.5262
11854TIP3    H256978   3.922   2.828  15.058  0.2383 -1.9369 -0.1613
11855TIP3   OH256979   1.306   6.248   5.007  0.1384 -0.2232 -0.4222
11855TIP3    H156980   1.287   6.337   4.978  0.2922  0.2622  0.9332
11855TIP3    H256981   1.352   6.209   4.933 -1.5361  0.2087 -1.7642
11856TIP3   OH256982   2.852   5.091   3.680  0.1231  0.3916 -0.1757
11856TIP3    H156983   2.872   5.005   3.717 -0.8351  0.4294  0.4773
11856TIP3    H256984   2.905   5.152   3.731 -0.2810  0.3245  0.3281
11857TIP3   OH256985   4.430   5.774   0.777  0.5528  0.2790 -0.1771
11857TIP3    H156986   4.525   5.777   0.761  1.0959 -0.4874  2.4997
11857TIP3    H256987   4.413   5.849   0.833 -0.1036 -0.5097  0.7082
11858TIP3   OH256988   3.408   0.319  11.361  0.8180  0.4749  0.1623
11858TIP3    H156989   3.357   0.352  11.435  0.3113 -0.0873  0.0695
11858TIP3    H256990   3.425   0.397  11.308 -2.2881  0.3744 -1.2222
11859TIP3   OH256991   0.037   6.788  12.818 -0.6967 -0.7517  0.8285
11859TIP3    H156992   0.033   6.841  12.738 -1.2186 -0.3732  1.1022
11859TIP3    H256993   0.078   6.845  12.883  2.0973 -1.8601  0.2313
11860TIP3   OH256994   4.418   2.653   2.784 -0.9146 -0.8600 -0.3886
11860TIP3    H156995   4.456   2.649   2.697 -1.5436 -1.5546 -0.6424
11860TIP3    H256996   4.422   2.563   2.816  1.7610 -0.2300  1.3961
11861TIP3   OH256997   0.203   1.661  14.599 -0.1314 -0.5483  0.2239
11861TIP3    H156998   0.197   1.627  14.688 -1.4186 -1.1084 -0.0444
11861TIP3    H256999   0.202   1.756  14.610 -1.1324 -0.5993  0.7964
11862TIP3   OH257000   1.447   3.578  16.327 -0.4262 -0.1959  0.4762
11862TIP3    H157001   1.499   3.554  16.251 -0.6952 -0.5535  0.4010
11862TIP3    H257002   1.405   3.661  16.302 -0.5554 -0.3375  0.2116
11863TIP3   OH257003   6.383   1.578  13.258  0.1993  0.0012  0.6153
11863TIP3    H157004   6.308   1.607  13.208 -1.6619 -1.8895  2.1206
11863TIP3    H257005   6.448   1.553  13.192 -0.7985  0.8682 -0.7363
11864TIP3   OH257006   4.939   6.706   4.854 -0.0538 -0.2665  0.3569
11864TIP3    H157007   4.879   6.780   4.837  0.6051  0.8024  2.3040
11864TIP3    H257008   4.881   6.634   4.878 -0.6700 -0.0056 -0.3110
11865TIP3   OH257009   3.451   4.123  14.559  0.5291 -0.0035  0.5672
11865TIP3    H157010   3.530   4.164  14.594  0.0220  1.8004 -0.2551
11865TIP3    H257011   3.455   4.141  14.465 -0.5240 -0.4621  0.4268
11866TIP3   OH257012   2.568   1.452  11.702  0.1432  0.6993  0.1377
11866TIP3    H157013   2.583   1.445  11.608 -0.6730  0.2700  0.0348
11866TIP3    H257014   2.549   1.545  11.717  1.2064  0.9510  0.0358
11867TIP3   OH257015   3.795   2.392  13.817 -0.5416  0.3112  0.5058
11867TIP3    H157016   3.775   2.431  13.902 -1.7823  2.5676 -0.7044
11867TIP3    H257017   3.885   2.419  13.799 -0.3653  0.0488  0.9823
11868TIP3   OH257018   6.428   0.034  11.756 -0.0258 -0.1084  0.1241
11868TIP3    H157019   6.432   0.113  11.811  1.0320 -0.3263  0.3822
11868TIP3    H257020   6.484   0.054  11.681 -0.4768 -0.2766 -0.2564
11869TIP3   OH257021   2.586   6.146  13.293 -0.1918  0.6764 -0.7071
11869TIP3    H157022   2.680   6.133  13.303 -0.4000  0.0349  0.6102
11869TIP3    H257023   2.547   6.096  13.365 -1.6022 -0.0376 -1.9205
11870TIP3   OH257024   1.553   4.419   5.903  0.3154  0.1333  0.5679
11870TIP3    H157025   1.474   4.367   5.906  0.1569  0.3775  0.6448
11870TIP3    H257026   1.524   4.509   5.919  0.4473  0.3896 -0.5422
11871TIP3   OH257027   4.362   6.338  12.950 -0.2305  0.0947 -0.0157
11871TIP3    H157028   4.387   6.267  12.891 -1.9475 -0.2371 -0.4023
11871TIP3    H257029   4.273   6.317  12.977  0.3947  0.3648  2.5670
11872TIP3   OH257030   3.052   6.244   5.898  0.3223  0.8004 -0.4864
11872TIP3    H157031   2.985   6.305   5.866  1.0791  1.3943 -0.9774
11872TIP3    H257032   3.053   6.257   5.993 -1.0149 -0.0085 -0.3480
11873TIP3   OH257033   0.066   4.195   4.549 -0.4541 -0.0024 -0.2646
11873TIP3    H157034   0.079   4.104   4.575  1.4712  0.7678  1.8745
11873TIP3    H257035   0.155   4.228   4.531 -1.0660  1.5396 -0.6501
11874TIP3   OH257036   2.136   4.416  17.098  0.6044  0.4085 -0.1073
11874TIP3    H157037   2.059   4.423  17.042  1.0303 -0.0787 -0.7562
11874TIP3    H257038   2.161   4.507  17.115  0.5528  0.5610 -0.8219
11875TIP3   OH257039   3.344   1.113  12.198 -0.1944  0.6038 -0.4626
11875TIP3    H157040   3.400   1.072  12.133 -1.3506 -0.2822 -0.9428
11875TIP3    H257041   3.380   1.086  12.283 -0.4076 -0.6869 -0.7729
11876TIP3   OH257042   3.201   5.227  14.566 -0.1405 -0.0570  0.1840
11876TIP3    H157043   3.271   5.212  14.503 -0.0733 -0.8902  0.4462
11876TIP3    H257044   3.244   5.229  14.651 -0.3203  0.3577  0.2680
11877TIP3   OH257045   5.536   3.834  11.476 -0.4382 -0.1900 -0.0172
11877TIP3    H157046   5.584   3.760  11.437  1.4199  0.9470 -0.0386
11877TIP3    H257047   5.518   3.893  11.402 -0.3528  0.1798  0.2549
11878TIP3   OH257048   2.347   3.359   4.149  0.0428  0.3106  0.4722
11878TIP3    H157049   2.313   3.288   4.095  1.1274 -0.3789  0.6596
11878TIP3    H257050   2.443   3.351   4.143  0.2049  2.0012  0.1836
11879TIP3   OH257051   1.609   5.362   1.296 -0.6855  0.3538  0.0119
11879TIP3    H157052   1.565   5.374   1.381 -1.2599 -1.6663  0.0668
11879TIP3    H257053   1.580   5.275   1.267 -0.9551  1.2339 -2.5441
11880TIP3   OH257054   3.557   5.415   3.315  0.6505 -0.2536 -0.2690
11880TIP3    H157055   3.579   5.483   3.379 -0.0301  0.8488 -1.1816
11880TIP3    H257056   3.470   5.439   3.283  1.0014 -0.7523 -1.6571
11881TIP3   OH257057   6.468   1.560  14.223  0.0121  0.1101  0.1366
11881TIP3    H157058   6.522   1.522  14.154 -0.4961  0.0849 -0.2468
11881TIP3    H257059   6.454   1.650  14.196  0.0205  0.1689  0.3286
11882TIP3   OH257060   5.692   2.330  15.183 -0.0309  0.4381  0.2559
11882TIP3    H157061   5.712   2.236  15.180  1.4242  0.6706  1.6189
11882TIP3    H257062   5.706   2.360  15.094  1.1154 -0.3451  0.1523
11883TIP3   OH257063   0.470   4.482   2.862  0.4583 -0.2305 -0.0405
11883TIP3    H157064   0.402   4.513   2.802 -1.0035  0.2277  1.7636
11883TIP3    H257065   0.544   4.541   2.847 -0.3611  0.7345 -0.4424
11884TIP3   OH257066   2.160   1.502  16.149 -0.2305 -0.4656 -0.1892
11884TIP3    H157067   2.149   1.586  16.194 -2.1691  0.3840 -2.0693
11884TIP3    H257068   2.082   1.452  16.173 -0.2863 -0.7752 -1.0125
11885TIP3   OH257069   4.035   2.649   4.541  0.1341  0.5679 -0.2409
11885TIP3    H157070   4.008   2.715   4.477 -1.9409  0.3292  0.3217
11885TIP3    H257071   3.992   2.674   4.622 -0.3863 -1.2468  0.0924
11886TIP3   OH257072   4.118   0.724   0.310  0.2178  0.2328 -0.0407
11886TIP3    H157073   4.137   0.811   0.275 -2.3353  0.0806 -2.1264
11886TIP3    H257074   4.060   0.740   0.384  0.6128  0.3321  0.2487
11887TIP3   OH257075   5.253   0.624  16.086 -0.0849  0.4362 -0.1955
11887TIP3    H157076   5.224   0.533  16.078 -1.9068  0.9268  0.2647
11887TIP3    H257077   5.315   0.636  16.015 -0.4169 -0.9473 -0.7457
11888TIP3   OH257078   5.203   3.705  11.524 -0.0285  0.2009  0.3292
11888TIP3    H157079   5.282   3.661  11.493  0.5196  0.2808  1.5427
11888TIP3    H257080   5.142   3.635  11.544  0.1639  0.0803  0.4958
11889TIP3   OH257081   2.774   5.611  15.022  0.2767 -0.5234 -0.0687
11889TIP3    H157082   2.855   5.601  14.973  1.2797  1.2918  1.1106
11889TIP3    H257083   2.734   5.524  15.020  3.6587 -2.3236  1.7171
11890TIP3   OH257084   5.623   1.892  10.470 -0.5727 -0.0631 -0.2078
11890TIP3    H157085   5.703   1.939  10.494  0.7096 -1.8839 -0.7303
11890TIP3    H257086   5.647   1.841  10.393 -1.3937 -2.7601  1.1853
11891TIP3   OH257087   1.239   3.449   0.483 -0.2550  0.6879 -0.0648
11891TIP3    H157088   1.279   3.501   0.554 -1.0321 -0.4770  1.2766
11891TIP3    H257089   1.187   3.383   0.528  0.4317 -1.0717 -1.7148
11892TIP3   OH257090   2.647   6.250  16.562 -0.6537 -0.0842 -0.0884
11892TIP3    H157091   2.642   6.330  16.615  1.3025  0.6996 -0.9902
11892TIP3    H257092   2.592   6.268  16.486 -0.8941  0.0656  0.1175
11893TIP3   OH257093   1.416   0.315  16.381  0.2337 -0.0327  0.3411
11893TIP3    H157094   1.465   0.278  16.308 -0.3505  0.2763 -0.2172
11893TIP3    H257095   1.345   0.253  16.396  0.0041  0.2002  0.2432
11894TIP3   OH257096   1.494   1.112   2.986  0.3232  0.2104  0.1950
11894TIP3    H157097   1.488   1.181   2.920  2.0078 -1.2054 -1.5824
11894TIP3    H257098   1.469   1.032   2.939  0.5854 -0.7115  1.5646
11895TIP3   OH257099   3.905   3.065   3.711 -0.1919 -0.8772  0.8890
11895TIP3    H157100   3.962   3.024   3.776  1.1374  0.9627  0.9883
11895TIP3    H257101   3.952   3.055   3.629  0.0269  0.1660  0.8743
11896TIP3   OH257102   5.643   6.050  16.425 -0.4560 -0.0613 -0.4559
11896TIP3    H157103   5.634   6.011  16.512 -0.7966  1.8280  0.3918
11896TIP3    H257104   5.559   6.032  16.382  0.7686 -3.8796 -1.7574
11897TIP3   OH257105   1.720   1.655  12.832 -0.1013  0.3324 -0.1251
11897TIP3    H157106   1.728   1.682  12.741 -0.2439  0.6732 -0.0388
11897TIP3    H257107   1.717   1.737  12.882 -0.3011  0.1564  0.1613
11898TIP3   OH257108   6.708   2.601   2.517 -0.0693 -0.2318  0.0895
11898TIP3    H157109   6.643   2.531   2.526  0.6161 -0.6089  3.1347
11898TIP3    H257110   6.659   2.681   2.535 -0.0370 -0.3575  0.7598
11899TIP3   OH257111   0.690   1.649  13.832  0.3910  0.0926 -0.5893
11899TIP3    H157112   0.703   1.696  13.914  2.1307 -1.9468  0.3990
11899TIP3    H257113   0.676   1.718  13.767  1.9323  1.9441  0.9021
11900TIP3   OH257114   0.577   0.768  12.287  0.3162  0.9143 -0.0297
11900TIP3    H157115   0.604   0.776  12.378  0.5725  1.4202 -0.1430
11900TIP3    H257116   0.659   0.771  12.238  0.1627  0.8993 -0.2904
11901TIP3   OH257117   4.201   3.719   4.156 -0.3234  0.6468  0.1634
11901TIP3    H157118   4.187   3.686   4.245  1.5909 -0.0117  0.2599
11901TIP3    H257119   4.164   3.651   4.100  1.5673 -0.6749  0.4190
11902TIP3   OH257120   2.840   2.916  12.799 -0.0833  0.0268  0.0922
11902TIP3    H157121   2.883   2.831  12.789  1.5264  0.9590 -1.3640
11902TIP3    H257122   2.814   2.919  12.891 -0.7465 -2.2704  0.0412
11903TIP3   OH257123   5.076   1.130  14.077 -0.6683 -0.3025 -0.1357
11903TIP3    H157124   5.122   1.052  14.108 -1.7029 -1.2094 -0.8520
11903TIP3    H257125   5.028   1.101  14.000 -1.2991  0.9790 -0.2436
11904TIP3   OH257126   3.650   6.721  13.568 -0.3369 -0.0117  0.2084
11904TIP3    H157127   3.688   6.723  13.480 -0.2465 -0.1555  0.2436
11904TIP3    H257128   3.715   6.675  13.621 -1.0482 -1.2589  0.0333
11905TIP3   OH257129   4.096   6.057   0.104 -0.0910  0.5633 -0.4738
11905TIP3    H157130   4.094   6.033   0.011 -1.1078 -0.3457 -0.2492
11905TIP3    H257131   4.164   6.002   0.142  0.6003  1.2238 -0.7454
11906TIP3   OH257132   4.249   0.121  15.211  0.4973 -0.5388  0.0959
11906TIP3    H157133   4.251   0.057  15.141 -2.2907 -0.1642 -0.4217
11906TIP3    H257134   4.254   0.206  15.167  3.4789 -0.2780  0.7329
11907TIP3   OH257135   1.900   6.542  14.759 -0.1261  0.0612 -0.0892
11907TIP3    H157136   1.920   6.634  14.779  0.1255  0.0454 -0.2616
11907TIP3    H257137   1.957   6.492  14.817 -0.6312  0.0104  0.3697
11908TIP3   OH257138   5.735   3.941  14.959 -0.5534  0.6093 -0.3000
11908TIP3    H157139   5.743   3.974  14.870 -1.7781  2.1376  0.1115
11908TIP3    H257140   5.644   3.960  14.984 -0.0901  0.6909  1.4547
11909TIP3   OH257141   4.296   6.714  16.940  0.2846  0.0979  0.0102
11909TIP3    H157142   4.283   6.794  16.890  0.6630  0.7339  0.8967
11909TIP3    H257143   4.359   6.738  17.008  0.7487 -1.0735  0.0223
11910TIP3   OH257144   6.450   3.029   5.071  0.7511 -0.1808 -0.5516
11910TIP3    H157145   6.413   3.110   5.037  1.2168  0.1571 -0.2655
11910TIP3    H257146   6.428   3.029   5.164  0.0399 -0.7889 -0.7075
11911TIP3   OH257147   2.502   3.318  14.123  0.6088  0.2528 -0.2363
11911TIP3    H157148   2.477   3.249  14.061  0.1974 -0.0477  0.2519
11911TIP3    H257149   2.520   3.271  14.205  0.8165  0.6776 -0.0336
11912TIP3   OH257150   5.314   1.836  15.881  0.5559 -0.2207  0.3569
11912TIP3    H157151   5.240   1.853  15.823 -0.9042 -0.0074  2.1780
11912TIP3    H257152   5.357   1.759  15.844  0.0091  0.2245 -1.2666
11913TIP3   OH257153   5.141   4.769  12.303 -0.2283  0.1253 -0.7150
11913TIP3    H157154   5.052   4.798  12.286  0.6858  3.4378 -0.6040
11913TIP3    H257155   5.186   4.780  12.218 -0.3608 -3.9630 -1.5020
11914TIP3   OH257156   4.321   2.023  14.217  0.5869 -0.1045 -0.7178
11914TIP3    H157157   4.323   1.935  14.179  1.0908 -0.1242 -0.6646
11914TIP3    H257158   4.392   2.022  14.282  0.9004  0.4814 -1.0427
11915TIP3   OH257159   4.281   3.797   1.034 -0.2784 -0.1806 -0.1417
11915TIP3    H157160   4.189   3.779   1.054  0.2978  0.3220  3.6208
11915TIP3    H257161   4.277   3.864   0.965 -2.6405 -1.2099 -1.1225
11916TIP3   OH257162   0.743   3.131  13.520  0.0751 -0.1345 -0.0017
11916TIP3    H157163   0.765   3.178  13.439  1.6940 -0.2800  0.3253
11916TIP3    H257164   0.729   3.041  13.491 -2.2716  0.3384 -0.5145
11917TIP3   OH257165   6.209   0.744   5.317  0.2009  0.4160  0.1354
11917TIP3    H157166   6.200   0.650   5.299 -0.1934  0.6340 -0.8442
11917TIP3    H257167   6.265   0.777   5.248 -1.4497  1.2953 -0.8364
11918TIP3   OH257168   6.571   0.546  13.395  0.3020 -0.3377 -0.0263
11918TIP3    H157169   6.511   0.510  13.329 -4.5670  0.3944  3.4841
11918TIP3    H257170   6.629   0.472  13.417 -1.2634 -2.1386 -1.5906
11919TIP3   OH257171   3.060   6.461   6.081 -0.0870  0.5763 -0.5584
11919TIP3    H157172   3.004   6.464   6.158 -1.0476  1.4260 -1.2593
11919TIP3    H257173   3.120   6.388   6.097 -1.5124 -0.4910  0.1310
11920TIP3   OH257174   2.601   4.440  16.811 -0.1323  0.6799 -0.0800
11920TIP3    H157175   2.509   4.414  16.807 -0.1485  0.7214  0.0093
11920TIP3    H257176   2.646   4.362  16.842 -0.0584  0.4821 -0.6863
11921TIP3   OH257177   2.618   6.451  13.616 -0.0601 -0.2817  0.3095
11921TIP3    H157178   2.621   6.544  13.635 -0.6685 -0.1524 -0.2238
11921TIP3    H257179   2.689   6.436  13.554 -0.2454 -0.0925  0.0521
11922TIP3   OH257180   1.608   1.854  15.863 -0.3645 -0.2550  0.0281
11922TIP3    H157181   1.621   1.771  15.818  0.1365 -0.5431  0.6849
11922TIP3    H257182   1.599   1.919  15.793  0.9732 -0.6041 -0.4939
11923TIP3   OH257183   6.496   3.136  14.847 -0.6082 -0.5377  0.0510
11923TIP3    H157184   6.568   3.198  14.839 -1.9540  1.0435 -0.3619
11923TIP3    H257185   6.526   3.072  14.912  1.3701 -0.2728 -0.5407
11924TIP3   OH257186   1.416   5.306  15.967 -0.4129  0.2187  0.4076
11924TIP3    H157187   1.437   5.223  16.010 -0.0582  0.0656 -0.0480
11924TIP3    H257188   1.377   5.280  15.883 -1.9361  0.5017  0.9939
11925TIP3   OH257189   1.152   5.433  15.067  0.1664  0.2294 -0.4627
11925TIP3    H157190   1.070   5.399  15.031 -0.6033  0.5987  0.8661
11925TIP3    H257191   1.156   5.524  15.039  1.1831 -0.3189 -2.2559
11926TIP3   OH257192   2.810   4.040   0.291 -0.3569 -0.0941 -0.0738
11926TIP3    H157193   2.890   4.025   0.343  0.7743  2.6450 -0.8114
11926TIP3    H257194   2.791   3.955   0.251  0.3662 -1.5994  2.5269
11927TIP3   OH257195   1.273   2.370  13.517  0.2986 -0.3058  0.7374
11927TIP3    H157196   1.198   2.314  13.497  1.7924 -1.6575 -1.4775
11927TIP3    H257197   1.265   2.443  13.456 -0.0625  0.4303  1.6342
11928TIP3   OH257198   3.528   1.592  14.255 -0.1385  0.3326  0.1826
11928TIP3    H157199   3.570   1.548  14.181  0.1263  0.7366  0.0917
11928TIP3    H257200   3.468   1.654  14.215 -0.4289  0.1363  0.3116
11929TIP3   OH257201   3.853   0.276   4.079 -0.5586  0.1511  0.1632
11929TIP3    H157202   3.813   0.268   4.166 -0.4960  2.4908  0.4730
11929TIP3    H257203   3.938   0.316   4.095 -0.4091  0.3222 -0.9731
11930TIP3   OH257204   1.407   5.667  12.934  0.0096 -0.5497 -0.4571
11930TIP3    H157205   1.424   5.683  12.841 -0.1009  1.0131 -0.2376
11930TIP3    H257206   1.319   5.701  12.948  1.4561  3.1149  1.0214
11931TIP3   OH257207   5.593   0.314  16.147  0.1246 -0.0150  0.2328
11931TIP3    H157208   5.565   0.247  16.211  0.0532  0.7751  1.0432
11931TIP3    H257209   5.522   0.316  16.083  0.1389 -0.7341  0.1776
11932TIP3   OH257210   6.701   0.215   0.417  0.0224 -0.3219 -0.0505
11932TIP3    H157211   6.751   0.190   0.495 -2.1115 -2.4079  0.7551
11932TIP3    H257212   6.683   0.308   0.429  0.1095 -0.5032  1.7403
11933TIP3   OH257213   5.214   6.604   6.151 -0.3615 -0.2262 -0.0693
11933TIP3    H157214   5.179   6.653   6.078 -2.4217  1.0383  1.6370
11933TIP3    H257215   5.137   6.581   6.204  0.9695 -1.5620  1.4308
11934TIP3   OH257216   4.195   5.523  11.650 -0.0880  0.2965 -0.2483
11934TIP3    H157217   4.126   5.586  11.671 -1.7481 -1.3670 -0.4155
11934TIP3    H257218   4.221   5.487  11.735  0.1947  0.5463 -0.2290
11935TIP3   OH257219   0.351   6.240   4.234  0.4615 -0.2891  0.1562
11935TIP3    H157220   0.403   6.160   4.237  1.4109  0.3319  2.8654
11935TIP3    H257221   0.308   6.243   4.320 -0.4133  1.5491 -0.3132
11936TIP3   OH257222   1.958   2.542  11.301  0.3696  0.2648 -0.1692
11936TIP3    H157223   1.869   2.548  11.266 -0.1020  1.0718  1.1247
11936TIP3    H257224   2.014   2.549  11.223 -0.6823 -0.4603 -1.0239
11937TIP3   OH257225   6.198   5.239  15.875  0.1487 -0.0124  0.7359
11937TIP3    H157226   6.126   5.285  15.832  0.7465 -0.1177 -0.4254
11937TIP3    H257227   6.266   5.232  15.807  1.3683  0.3479  1.8695
11938TIP3   OH257228   1.559   0.237  11.380  0.0321  0.0544  0.0654
11938TIP3    H157229   1.619   0.217  11.308 -0.9707  1.2508 -1.1529
11938TIP3    H257230   1.472   0.223  11.343 -0.4992  0.1624  1.2306
11939TIP3   OH257231   2.562   4.644   4.586  0.0375 -0.5142  0.1816
11939TIP3    H157232   2.523   4.722   4.625  1.2769 -0.9884  2.5282
11939TIP3    H257233   2.488   4.585   4.573 -0.8786  0.8806 -1.3986
11940TIP3   OH257234   0.800   5.472   2.866 -0.4760 -0.8808 -0.8023
11940TIP3    H157235   0.859   5.434   2.931  0.7096  1.2890 -0.4816
11940TIP3    H257236   0.850   5.470   2.784 -0.5438 -0.3968 -0.8591
11941TIP3   OH257237   3.398   0.535   5.081 -0.3971  0.6148 -0.5391
11941TIP3    H157238   3.359   0.510   4.997  0.8142 -0.6846 -0.7482
11941TIP3    H257239   3.417   0.452   5.124 -1.5923  1.2629  1.3418
11942TIP3   OH257240   0.868   5.506   6.700 -0.5843 -0.3191 -0.1657
11942TIP3    H157241   0.834   5.496   6.612 -0.1178 -1.6913 -0.2118
11942TIP3    H257242   0.794   5.487   6.757 -0.4317 -1.2606 -0.2684
11943TIP3   OH257243   3.253   5.283   3.545  0.4347  0.9809 -0.3680
11943TIP3    H157244   3.345   5.308   3.547  0.9935 -0.9226  0.6717
11943TIP3    H257245   3.239   5.236   3.627 -1.5289  1.3750 -0.4207
11944TIP3   OH257246   6.711   1.003  10.728  0.5620  0.3872 -0.4409
11944TIP3    H157247   6.662   1.001  10.646  0.9726  1.8306 -0.7534
11944TIP3    H257248   6.760   1.085  10.724  2.9204 -0.9078 -0.0950
11945TIP3   OH257249   4.929   2.037   4.099 -0.7534  0.1098  0.4927
11945TIP3    H157250   4.922   1.982   4.021  4.0206  0.3761 -0.4519
11945TIP3    H257251   4.894   2.122   4.071 -0.4404 -0.1995 -0.9453
11946TIP3   OH257252   4.179   4.795  15.462 -0.0000 -0.2266 -0.0506
11946TIP3    H157253   4.267   4.760  15.446 -0.1553 -0.6619  0.0436
11946TIP3    H257254   4.194   4.886  15.485  0.4366 -0.3237  0.0634
11947TIP3   OH257255   1.716   0.800  14.786 -0.1119 -0.6715  0.5863
11947TIP3    H157256   1.791   0.750  14.818  1.5215  1.1885 -0.1388
11947TIP3    H257257   1.720   0.790  14.691 -0.4307 -0.0716  0.5091
11948TIP3   OH257258   5.459   1.747   4.911  0.3561 -0.5643  0.1415
11948TIP3    H157259   5.465   1.675   4.973 -0.1611 -0.2646  0.5424
11948TIP3    H257260   5.484   1.708   4.827  1.1569 -0.9474  0.5418
11949TIP3   OH257261   0.060   2.075  13.147  0.0516  1.0851 -0.5438
11949TIP3    H157262  -0.022   2.104  13.108  0.0491  0.3003 -1.1494
11949TIP3    H257263   0.088   2.001  13.093  0.7950  0.8926  0.0775
11950TIP3   OH257264   6.141   3.122   4.738 -0.2056 -1.1762 -0.4515
11950TIP3    H157265   6.145   3.133   4.833 -1.2881 -0.5333 -0.4578
11950TIP3    H257266   6.225   3.152   4.706 -0.5079  0.4027  0.1659
11951TIP3   OH257267   6.503   0.982  11.765  0.0846  0.1378 -0.4201
11951TIP3    H157268   6.510   1.052  11.830 -0.6426  0.9295 -1.1745
11951TIP3    H257269   6.410   0.958  11.765  0.0996  0.0596 -1.0830
11952TIP3   OH257270   1.915   2.866   0.863  0.4332 -0.0505 -0.4338
11952TIP3    H157271   1.980   2.857   0.933 -0.2312 -1.3009  0.0471
11952TIP3    H257272   1.965   2.851   0.782  1.2700  1.7131 -0.2996
11953TIP3   OH257273   2.066   5.107  13.728  0.0292 -0.0262 -0.5478
11953TIP3    H157274   2.020   5.189  13.709 -0.0797  0.0290 -0.0713
11953TIP3    H257275   1.998   5.048  13.759  0.3091  0.1503  0.4468
11954TIP3   OH257276   1.103   2.178   3.388 -0.2242  0.4553 -0.2395
11954TIP3    H157277   1.199   2.180   3.388 -0.1231 -1.8326 -0.4760
11954TIP3    H257278   1.081   2.085   3.395 -2.4366  0.7307 -2.4064
11955TIP3   OH257279   5.574   3.759   0.385  0.5380  0.5252  0.0936
11955TIP3    H157280   5.637   3.798   0.325  0.2926 -1.1755 -1.3705
11955TIP3    H257281   5.619   3.757   0.470  1.4618  1.6173 -0.3468
11956TIP3   OH257282   3.980   6.768  12.213  0.2595  0.1438  0.1553
11956TIP3    H157283   4.043   6.838  12.230 -0.5859  1.2383 -1.0258
11956TIP3    H257284   3.905   6.788  12.268  0.2815 -0.2338  0.3282
11957TIP3   OH257285   5.990   0.826   4.498 -0.0263 -0.2269 -0.2908
11957TIP3    H157286   6.016   0.736   4.480 -0.2662 -0.4150  0.2860
11957TIP3    H257287   6.035   0.878   4.431  1.4284 -0.5910  0.3720
11958TIP3   OH257288   5.703   3.342  16.394  0.0149 -0.0210  0.3196
11958TIP3    H157289   5.754   3.321  16.472  0.6126  2.6227  0.7456
11958TIP3    H257290   5.648   3.415  16.421  0.4560  1.1716 -1.8002
11959TIP3   OH257291   6.586   3.034   1.690 -0.0951  0.3997 -0.2434
11959TIP3    H157292   6.650   2.998   1.628  0.4336  1.2010 -0.1771
11959TIP3    H257293   6.634   3.043   1.772 -1.3379 -2.6561  0.9698
11960TIP3   OH257294   0.256   6.165   2.497 -0.2172 -0.0750 -1.2023
11960TIP3    H157295   0.317   6.235   2.521 -0.3328 -0.1829 -0.5836
11960TIP3    H257296   0.175   6.211   2.476 -0.3785 -0.0366 -0.5200
11961TIP3   OH257297   3.387   0.611   1.544 -0.4105  0.4094 -0.1895
11961TIP3    H157298   3.349   0.586   1.460 -0.1655 -1.9105  0.3358
11961TIP3    H257299   3.320   0.669   1.583 -1.0586  0.5496 -1.4397
11962TIP3   OH257300   5.272   5.852  15.668 -0.6018 -0.2465  0.0230
11962TIP3    H157301   5.284   5.946  15.680 -0.5137 -0.2241 -0.2407
11962TIP3    H257302   5.332   5.829  15.597  1.0291 -0.9032  1.5268
11963TIP3   OH257303   5.525   0.348   1.806 -0.1426  0.0049 -0.4595
11963TIP3    H157304   5.501   0.266   1.764  0.9772  1.2499 -3.8922
11963TIP3    H257305   5.445   0.376   1.851 -0.6512 -2.6803  0.4856
11964TIP3   OH257306   4.100   6.465  13.805  0.2465  0.5728 -0.1193
11964TIP3    H157307   4.141   6.509  13.879  0.1836  1.6029 -0.6813
11964TIP3    H257308   4.054   6.391  13.844  0.4874  0.9108  0.8289
11965TIP3   OH257309   6.091   1.084  17.146  0.5558  0.0636  0.2799
11965TIP3    H157310   6.008   1.130  17.136  1.0232  0.8062 -0.3200
11965TIP3    H257311   6.113   1.052  17.059  1.5713  1.0973  0.1268
11966TIP3   OH257312   0.942   0.900   3.091  0.1606  0.2221  0.6182
11966TIP3    H157313   0.951   0.909   2.996  1.2356  0.7678  0.7494
11966TIP3    H257314   0.922   0.988   3.122 -3.8061 -0.4822  0.6242
11967TIP3   OH257315   5.000   3.974   2.371 -0.6808 -0.2714  0.0812
11967TIP3    H157316   4.918   3.994   2.415  0.4055  0.1425  2.0488
11967TIP3    H257317   5.021   4.054   2.322 -1.8428 -0.6923 -1.1628
11968TIP3   OH257318   1.748   4.453  13.812 -0.2751  0.4680  0.2035
11968TIP3    H157319   1.722   4.545  13.816 -1.1395  0.4363 -2.5043
11968TIP3    H257320   1.799   4.447  13.731  1.1570 -1.1520  1.1724
11969TIP3   OH257321   3.699   5.731   1.650 -0.8404  0.3211 -0.3094
11969TIP3    H157322   3.681   5.722   1.557  2.0868  0.1692 -0.9752
11969TIP3    H257323   3.705   5.641   1.683 -0.4279  0.3426 -0.3193
11970TIP3   OH257324   2.799   6.298  13.774 -0.4400 -0.8301  0.2804
11970TIP3    H157325   2.794   6.324  13.866  0.5678 -0.6718  0.3028
11970TIP3    H257326   2.731   6.350  13.731 -0.2743 -0.1887  0.7773
11971TIP3   OH257327   5.605   2.224  12.768  0.2761  0.6662 -0.5304
11971TIP3    H157328   5.605   2.313  12.731  1.0157  1.3045  0.9275
11971TIP3    H257329   5.515   2.210  12.797  0.1511  0.9222 -0.7907
11972TIP3   OH257330   6.708   4.118   5.562  0.6691 -0.0508  0.4132
11972TIP3    H157331   6.656   4.157   5.491 -0.5504 -2.5715 -0.2097
11972TIP3    H257332   6.785   4.174   5.569 -0.2821  1.6004 -1.3259
11973TIP3   OH257333   2.086   6.556   0.918 -0.0577  0.2182  0.1467
11973TIP3    H157334   2.081   6.497   0.993 -0.4989  0.6069  0.4275
11973TIP3    H257335   1.998   6.594   0.912 -0.5118 -1.0055 -1.5323
11974TIP3   OH257336   2.097   4.925   0.223  0.1347  0.1719  0.4817
11974TIP3    H157337   2.049   4.844   0.202  0.1521  0.1621  0.4802
11974TIP3    H257338   2.114   4.965   0.138 -0.9587  0.8037  0.5428
11975TIP3   OH257339   6.697   3.037   0.267 -0.1808  0.4183  0.3679
11975TIP3    H157340   6.684   2.956   0.316  0.1119 -0.8685 -1.5764
11975TIP3    H257341   6.765   3.085   0.315 -0.8342 -0.1402  1.9078
11976TIP3   OH257342   0.607   5.123  16.240 -0.4260 -0.1179 -0.0866
11976TIP3    H157343   0.543   5.051  16.243  0.8997 -1.3296  1.0148
11976TIP3    H257344   0.597   5.168  16.323 -0.9997  0.7679 -0.6246
11977TIP3   OH257345   0.822   1.521   1.036 -0.0663  0.6165 -0.2655
11977TIP3    H157346   0.803   1.428   1.043  0.5186  0.6105  3.4093
11977TIP3    H257347   0.745   1.558   0.993 -0.7160 -1.4235 -0.9652
11978TIP3   OH257348   3.914   2.749   2.555 -0.4241 -0.8373  0.0532
11978TIP3    H157349   3.993   2.709   2.519 -0.7724  0.2568 -2.0548
11978TIP3    H257350   3.869   2.677   2.598  1.6833 -1.4939  1.3317
11979TIP3   OH257351   1.497   5.897   3.795  0.1433  0.7007  0.2568
11979TIP3    H157352   1.432   5.895   3.725  1.1439  1.3266 -0.7343
11979TIP3    H257353   1.558   5.826   3.774 -0.4276 -0.1793  1.4275
11980TIP3   OH257354   3.184   1.315   5.259 -0.2511 -1.4068  0.1255
11980TIP3    H157355   3.249   1.373   5.219  1.1257 -1.8363  1.6028
11980TIP3    H257356   3.100   1.348   5.228  0.5205  0.8639  0.2099
11981TIP3   OH257357   3.855   2.352   1.747 -0.1455 -0.1285  0.2615
11981TIP3    H157358   3.910   2.430   1.756 -0.2899  0.0381 -0.2496
11981TIP3    H257359   3.785   2.380   1.688  0.0570 -0.7813 -0.3029
11982TIP3   OH257360   0.732   5.899  13.125 -0.0384 -0.4291  0.2214
11982TIP3    H157361   0.637   5.902  13.134 -0.0353  1.3390  0.0509
11982TIP3    H257362   0.763   5.870  13.210 -0.6931  0.2413  0.7034
11983TIP3   OH257363   0.836   1.650   4.295 -0.5468 -0.9626 -0.1946
11983TIP3    H157364   0.820   1.733   4.339  0.6060 -1.0584  0.4536
11983TIP3    H257365   0.932   1.642   4.293 -0.6288 -2.0084 -0.7450
11984TIP3   OH257366   6.605   3.213  12.674 -0.4663 -0.1792  0.2187
11984TIP3    H157367   6.535   3.158  12.639  0.3126 -1.0780  0.0041
11984TIP3    H257368   6.658   3.152  12.726  2.0990 -0.3737 -2.3687
11985TIP3   OH257369   5.777   3.655   5.231 -0.1012 -0.2726 -0.1904
11985TIP3    H157370   5.715   3.697   5.171 -1.3580  0.5502  1.6251
11985TIP3    H257371   5.728   3.640   5.311  1.7731 -0.5124  0.9809
11986TIP3   OH257372   3.079   5.151   0.442  0.1088  0.0596 -0.8702
11986TIP3    H157373   3.113   5.120   0.526 -2.6398  1.2824  0.8370
11986TIP3    H257374   3.001   5.098   0.426 -0.0592  0.6259 -2.0589
11987TIP3   OH257375   1.208   4.340   0.929 -0.1554  0.6218 -0.2630
11987TIP3    H157376   1.166   4.389   0.858 -2.0062  1.1118  1.1025
11987TIP3    H257377   1.226   4.405   0.996  1.8521  0.2099 -0.3334
11988TIP3   OH257378   2.246   2.726  11.262  0.3575 -0.2352  0.1555
11988TIP3    H157379   2.211   2.655  11.207 -0.6684  2.3152 -2.7841
11988TIP3    H257380   2.338   2.731  11.237  0.0466  0.4901 -0.8907
11989TIP3   OH257381   0.868   2.866  15.138  0.0060  0.3554 -0.5424
11989TIP3    H157382   0.825   2.911  15.210  0.5299  1.3963 -0.8681
11989TIP3    H257383   0.940   2.924  15.113  1.4509 -1.1979 -0.1874
11990TIP3   OH257384   1.297   1.753   6.021 -0.5899 -0.6305  0.2223
11990TIP3    H157385   1.218   1.801   6.047  0.9774  2.6075 -0.4281
11990TIP3    H257386   1.315   1.695   6.095 -2.5980 -0.1955  1.1347
11991TIP3   OH257387   4.361   0.740  11.109 -0.0221 -0.1457  0.1085
11991TIP3    H157388   4.441   0.692  11.088  1.0270  0.3447  2.6484
11991TIP3    H257389   4.364   0.817  11.051  1.3431 -0.1348  0.1614
11992TIP3   OH257390   2.192   5.389   1.411  0.3079  0.4089  0.0847
11992TIP3    H157391   2.272   5.409   1.459  0.5218 -2.3639  1.1051
11992TIP3    H257392   2.219   5.327   1.344 -0.9283 -0.4987  0.3738
11993TIP3   OH257393   0.733   1.182  13.162  0.5496 -0.3703  0.4798
11993TIP3    H157394   0.639   1.167  13.174  0.6455 -1.4505 -0.0575
11993TIP3    H257395   0.775   1.122  13.223  0.9026  2.1366  2.8846
11994TIP3   OH257396   4.272   0.067  16.371 -0.0930  0.5010  0.1316
11994TIP3    H157397   4.281  -0.028  16.370 -0.9372  0.3666 -2.6744
11994TIP3    H257398   4.277   0.093  16.279 -0.8844  3.0836  0.7317
11995TIP3   OH257399   6.718   1.154   5.748 -0.0047  0.0759  0.1603
11995TIP3    H157400   6.755   1.208   5.818 -0.9141  1.0352 -0.0725
11995TIP3    H257401   6.693   1.073   5.792  1.5839 -0.2895  0.4748
11996TIP3   OH257402   5.752   5.628  12.083 -0.1427 -0.2638 -0.2884
11996TIP3    H157403   5.667   5.586  12.096 -1.1231  1.1192 -1.7668
11996TIP3    H257404   5.742   5.676  12.001  2.1134 -0.1119 -0.5346
11997TIP3   OH257405   0.666   4.221  12.378  0.0353 -0.0524  0.0372
11997TIP3    H157406   0.580   4.187  12.403 -0.0693  0.1891  0.0068
11997TIP3    H257407   0.728   4.170  12.431 -0.0875 -0.6320 -0.3629
11998TIP3   OH257408   1.563   5.660   0.510 -0.0581  0.1684 -0.5320
11998TIP3    H157409   1.601   5.602   0.444  0.1322 -1.4656  0.9349
11998TIP3    H257410   1.469   5.659   0.491 -0.1163 -1.0297 -0.2425
11999TIP3   OH257411   3.378   3.191  14.373 -0.3471 -0.4634 -0.3995
11999TIP3    H157412   3.338   3.216  14.456  1.0958  0.9272 -0.0871
11999TIP3    H257413   3.331   3.242  14.307  1.2498  1.7170  0.0369
12000TIP3   OH257414   6.079   1.509   4.678 -1.1351  0.1620  0.2170
12000TIP3    H157415   6.171   1.483   4.682 -0.9922  0.7693  1.0515
12000TIP3    H257416   6.059   1.509   4.584  0.2888  1.8882 -0.1611
12001TIP3   OH257417   4.707   1.439   4.333 -0.3616 -0.8640 -0.0497
12001TIP3    H157418   4.785   1.469   4.286  0.4485 -0.1420  1.6699
12001TIP3    H257419   4.658   1.519   4.351 -1.1615 -1.2440 -0.4993
12002TIP3   OH257420   3.522   6.131   3.973 -0.0163 -0.0301  0.4293
12002TIP3    H157421   3.532   6.146   4.068  1.1700 -0.1593  0.3421
12002TIP3    H257422   3.433   6.161   3.954  0.3703  1.8563  1.2524
12003TIP3   OH257423   0.671   5.623   0.799  0.2525  0.0966  0.2348
12003TIP3    H157424   0.659   5.626   0.893 -0.0835  1.6354  0.1748
12003TIP3    H257425   0.594   5.576   0.766  0.6614 -0.9505  0.7539
12004TIP3   OH257426   3.131   2.222  14.499  0.0153  0.0157  0.0475
12004TIP3    H157427   3.088   2.167  14.433  0.2312 -2.5525  1.9197
12004TIP3    H257428   3.217   2.181  14.511  0.4848  1.2322  1.0198
12005TIP3   OH257429   2.500   1.653   5.986 -0.5681 -0.2722 -0.0091
12005TIP3    H157430   2.508   1.559   5.973 -1.5867 -0.2949 -0.5127
12005TIP3    H257431   2.467   1.687   5.903 -1.5558  0.3434  0.6078
12006TIP3   OH257432   2.053   2.201   6.465 -0.4330  0.4746  0.2068
12006TIP3    H157433   2.143   2.230   6.481 -0.4040 -0.3787  1.8199
12006TIP3    H257434   1.998   2.267   6.508 -0.5792  0.7853 -0.4399
12007TIP3   OH257435   1.548   1.768   2.308 -0.7160 -0.1962 -0.1827
12007TIP3    H157436   1.580   1.786   2.397 -1.1396  0.6769 -0.2021
12007TIP3    H257437   1.616   1.712   2.270  0.2495  0.7243  0.1521
12008TIP3   OH257438   2.731   1.975  16.291  0.0073 -0.9512 -0.1044
12008TIP3    H157439   2.662   2.041  16.298  1.5256  0.8492 -1.1464
12008TIP3    H257440   2.695   1.909  16.231 -0.8778 -0.1492 -0.4774
12009TIP3   OH257441   2.407   4.481   2.261  0.1234 -0.5927  0.4626
12009TIP3    H157442   2.384   4.573   2.276 -0.8227 -0.9217  1.0646
12009TIP3    H257443   2.448   4.481   2.174 -0.8783  0.2233 -0.0254
12010TIP3   OH257444   4.945   4.706  11.099 -0.4000  0.3053  0.9944
12010TIP3    H157445   4.973   4.774  11.037 -1.6128  0.0642  0.1374
12010TIP3    H257446   4.949   4.625  11.049  0.5283 -0.1956  1.8532
12011TIP3   OH257447   5.980   2.461   4.538 -0.1762  0.3487  0.0201
12011TIP3    H157448   6.056   2.456   4.480 -0.2577 -3.6541 -0.0126
12011TIP3    H257449   6.012   2.509   4.614  1.6241  0.8623 -0.9788
12012TIP3   OH257450   4.647   6.770   4.553 -0.1896  0.4499 -0.2002
12012TIP3    H157451   4.653   6.716   4.474 -0.6299  0.5033 -0.2741
12012TIP3    H257452   4.589   6.721   4.611  0.6152  0.1162  0.3392
12013TIP3   OH257453   5.555   2.837  14.681  0.4415 -0.4804  0.1802
12013TIP3    H157454   5.482   2.853  14.742  0.6034  0.0626  0.2406
12013TIP3    H257455   5.576   2.924  14.647  1.9854 -0.3982  1.2295
12014TIP3   OH257456   6.604   1.533  12.961  0.1832  0.7669 -0.4579
12014TIP3    H157457   6.680   1.586  12.939 -0.3835  1.4609 -0.7792
12014TIP3    H257458   6.631   1.484  13.039  1.4244 -0.0414 -1.3667
12015TIP3   OH257459   3.439   2.317   1.729  0.0240  0.3904  0.1852
12015TIP3    H157460   3.496   2.321   1.806  2.7513 -0.9168 -1.6092
12015TIP3    H257461   3.395   2.232   1.737  1.9915 -0.7794 -0.7005
12016TIP3   OH257462   1.824   0.288  17.125 -0.6425  0.3400 -0.0335
12016TIP3    H157463   1.752   0.270  17.064 -1.0790  2.8360 -0.3482
12016TIP3    H257464   1.836   0.206  17.172 -0.8042 -1.4809 -2.8919
12017TIP3   OH257465   2.639   3.045   6.113  0.1696  0.2926 -0.4969
12017TIP3    H157466   2.723   3.090   6.101 -0.2947  1.6204  1.0136
12017TIP3    H257467   2.573   3.110   6.090 -0.5408  0.7180  2.3730
12018TIP3   OH257468   2.787   2.015   0.503 -0.4033  0.3214 -0.0245
12018TIP3    H157469   2.761   2.097   0.546 -0.5544  1.1341 -1.5852
12018TIP3    H257470   2.876   1.999   0.534 -0.5895  0.7442  0.7596
12019TIP3   OH257471   0.611   2.474  15.917 -0.4333 -0.2437 -0.2492
12019TIP3    H157472   0.700   2.470  15.880  0.7710 -0.1758  2.4375
12019TIP3    H257473   0.566   2.540  15.865  2.2430  2.3841  0.5194
12020TIP3   OH257474   1.104   5.264  13.275 -0.2895 -0.0777  0.7738
12020TIP3    H157475   1.095   5.172  13.298  0.2296 -0.4974 -0.6100
12020TIP3    H257476   1.198   5.275  13.257 -0.6340  0.1972 -1.0882
12021TIP3   OH257477   4.839   6.369   5.270  0.5477  0.3069 -0.1462
12021TIP3    H157478   4.903   6.359   5.200  1.1716 -0.5741  0.5216
12021TIP3    H257479   4.755   6.347   5.230  0.8939 -0.1592 -0.6240
12022TIP3   OH257480   1.039   3.110  15.009 -0.3415 -1.1885 -0.1798
12022TIP3    H157481   1.121   3.063  14.995  0.6433  0.0020  1.2954
12022TIP3    H257482   1.040   3.133  15.102 -2.0127 -0.5103 -0.2938
12023TIP3   OH257483   3.274   0.013   3.802  0.5109  0.6478  0.0381
12023TIP3    H157484   3.370   0.020   3.800  0.5402  0.4629  0.6167
12023TIP3    H257485   3.252   0.013   3.895  0.1019 -1.3385 -0.0135
12024TIP3   OH257486   6.275   0.051   1.470  0.0363 -0.1622 -0.2689
12024TIP3    H157487   6.257   0.114   1.540 -0.0339  0.1331 -0.5530
12024TIP3    H257488   6.365   0.070   1.443  0.1654 -0.4699 -0.0607
12025TIP3   OH257489   5.012   2.359   6.092  0.0889  0.1307 -0.5825
12025TIP3    H157490   5.011   2.263   6.093 -0.7311  0.1239 -1.1756
12025TIP3    H257491   4.944   2.383   6.156  1.4274  0.3525  0.8250
12026TIP3   OH257492   4.142   4.863  17.050  0.4372 -0.7112 -0.2707
12026TIP3    H157493   4.180   4.834  17.133  0.2680 -0.3914 -0.0828
12026TIP3    H257494   4.057   4.820  17.046  1.1054 -2.0656 -1.0572
12027TIP3   OH257495   1.700   5.444   4.709 -0.4798  0.0582 -0.2627
12027TIP3    H157496   1.699   5.537   4.732 -1.8546  0.1040 -0.4547
12027TIP3    H257497   1.621   5.430   4.658  0.2156 -1.0214 -1.1064
12028TIP3   OH257498   5.756   0.466  14.382 -0.1018 -0.4288 -0.5523
12028TIP3    H157499   5.744   0.473  14.287  0.8151 -1.1155 -0.7354
12028TIP3    H257500   5.693   0.527  14.419 -1.0193 -0.7268 -1.5802
12029TIP3   OH257501   5.981   4.196  12.346 -0.0211  0.0380 -0.4835
12029TIP3    H157502   6.042   4.263  12.316  0.1758 -0.9117 -2.3545
12029TIP3    H257503   6.022   4.160  12.425  1.3291  0.1108 -1.1217
12030TIP3   OH257504   3.559   2.773  10.321  0.7633  0.7254  0.2016
12030TIP3    H157505   3.601   2.823  10.392  1.8614 -0.0416  0.1301
12030TIP3    H257506   3.564   2.682  10.350 -2.1335  0.6786  0.8003
12031TIP3   OH257507   1.496   6.671  15.261  0.6720 -0.3161  1.0374
12031TIP3    H157508   1.527   6.696  15.348  1.2359  0.1813  0.7023
12031TIP3    H257509   1.406   6.703  15.258  0.9625  0.5490  1.0921
12032TIP3   OH257510   5.997   5.187  13.143 -0.0314  0.2051  0.6955
12032TIP3    H157511   5.948   5.107  13.160 -1.5965  0.9651 -0.0299
12032TIP3    H257512   5.991   5.199  13.048  0.6185  0.8985  0.7329
12033TIP3   OH257513   4.761   2.603   4.095 -0.4137  0.4019 -0.0574
12033TIP3    H157514   4.765   2.598   4.191  0.3610  0.4434 -0.0783
12033TIP3    H257515   4.832   2.663   4.072 -0.2941  0.0228 -0.6829
12034TIP3   OH257516   3.364   6.213  13.000 -0.0170 -0.1962  0.3061
12034TIP3    H157517   3.287   6.257  13.036  1.0921  1.6697  0.4720
12034TIP3    H257518   3.388   6.265  12.924  0.9763 -0.8827  0.1342
12035TIP3   OH257519   5.000   1.960  11.195 -0.2132  0.0974 -0.1261
12035TIP3    H157520   5.028   1.944  11.105  0.1075  1.9399 -0.3946
12035TIP3    H257521   5.014   1.877  11.240 -1.3475 -1.1901 -1.9869
12036TIP3   OH257522   5.168   4.003  10.991  0.1080 -0.0004 -0.3220
12036TIP3    H157523   5.262   4.018  10.975 -0.1560  0.5989 -1.4457
12036TIP3    H257524   5.157   4.019  11.084  0.9200  1.1508 -0.3995
12037TIP3   OH257525   2.456   0.752   2.918 -0.9404  0.1441  0.4249
12037TIP3    H157526   2.477   0.792   2.833  0.3906 -0.1198  0.6131
12037TIP3    H257527   2.377   0.798   2.947 -0.5504  1.2810 -0.2559
12038TIP3   OH257528   6.674   0.292   3.444 -0.1373 -0.8531  0.3941
12038TIP3    H157529   6.685   0.243   3.362 -1.0814 -1.5634  0.6778
12038TIP3    H257530   6.598   0.252   3.486 -0.5002  0.4082  0.9742
12039TIP3   OH257531   4.135   1.976  12.270  0.1798 -1.0440  0.3333
12039TIP3    H157532   4.110   1.955  12.360  0.2889 -0.1579  0.5785
12039TIP3    H257533   4.052   1.973  12.222  0.0185 -0.8468  0.5955
12040TIP3   OH257534   6.408   6.022   0.921 -0.1937  0.0276 -0.1688
12040TIP3    H157535   6.441   5.932   0.930  0.5264  0.0852 -1.8262
12040TIP3    H257536   6.397   6.034   0.827 -1.2025  1.3728  0.0943
12041TIP3   OH257537   2.740   5.329  11.214 -0.1720  0.4028 -0.0013
12041TIP3    H157538   2.741   5.257  11.277  1.1780  0.0493 -0.3956
12041TIP3    H257539   2.745   5.286  11.129  2.0038  0.9417 -0.2086
12042TIP3   OH257540   4.235   4.131  10.868  0.0063  0.0750 -0.3243
12042TIP3    H157541   4.296   4.057  10.871  1.3310  1.1139 -0.2755
12042TIP3    H257542   4.239   4.168  10.957 -0.6493  0.2043 -0.3454
12043TIP3   OH257543   0.727   4.826  14.901 -0.1444 -0.1179  0.1628
12043TIP3    H157544   0.663   4.805  14.833  0.0535  1.5900 -0.5894
12043TIP3    H257545   0.707   4.916  14.926  0.8602 -0.1533  1.1699
12044TIP3   OH257546   2.414   3.490   5.477  0.0906 -0.1105 -0.4487
12044TIP3    H157547   2.446   3.477   5.388  0.8465  0.2245 -0.2284
12044TIP3    H257548   2.320   3.505   5.466  0.4785  1.9522 -1.3846
12045TIP3   OH257549   6.716   4.711  15.450  0.6160  0.2106  0.1465
12045TIP3    H157550   6.799   4.744  15.484  0.3335 -0.0429  1.1060
12045TIP3    H257551   6.651   4.739  15.514 -0.0986  0.7042 -0.7654
12046TIP3   OH257552   5.730   4.233  13.323  0.0250  0.9054  0.3196
12046TIP3    H157553   5.727   4.291  13.399 -2.9835  1.0528  0.1943
12046TIP3    H257554   5.685   4.153  13.351  1.2595 -0.1191 -0.5111
12047TIP3   OH257555   2.703   3.720   4.428 -0.2006 -0.6400  0.1771
12047TIP3    H157556   2.716   3.804   4.471  0.7151 -0.9209  0.4897
12047TIP3    H257557   2.644   3.738   4.355  0.2587  0.3403  0.0337
12048TIP3   OH257558   1.499   2.761   3.308  0.2390 -0.0862 -0.1924
12048TIP3    H157559   1.406   2.782   3.301  0.3535  0.0479 -2.0712
12048TIP3    H257560   1.512   2.690   3.245  1.3703 -0.2376  0.1889
12049TIP3   OH257561   1.688   2.273   6.502 -0.3144  0.4355 -0.7884
12049TIP3    H157562   1.594   2.274   6.486 -0.3426 -0.5837 -0.7488
12049TIP3    H257563   1.713   2.366   6.505 -1.4004  0.7244 -0.2550
12050TIP3   OH257564   0.721   5.125  14.982  0.2776 -0.0345  0.1151
12050TIP3    H157565   0.662   5.148  15.055  0.6947 -0.0625  0.4626
12050TIP3    H257566   0.755   5.210  14.953 -0.1106  0.0026 -0.2381
12051TIP3   OH257567   3.252   4.331   3.649 -0.1237 -0.0988  0.5333
12051TIP3    H157568   3.296   4.409   3.615  1.5492 -0.0529  2.6242
12051TIP3    H257569   3.160   4.355   3.653 -0.0891  0.6318 -1.7843
12052TIP3   OH257570   3.004   0.549  12.976 -0.0783 -0.2357 -0.4310
12052TIP3    H157571   3.002   0.479  12.911 -3.0175 -0.4909 -0.2025
12052TIP3    H257572   2.954   0.620  12.937 -0.5810  0.1843  0.9103
12053TIP3   OH257573   1.018   1.511  12.050  0.7485  0.3132  0.1083
12053TIP3    H157574   0.953   1.474  11.990  0.9409 -0.5106  0.4047
12053TIP3    H257575   0.985   1.491  12.137  1.3582 -0.0478  0.2628
12054TIP3   OH257576   5.398   4.713   2.423  0.4079  0.5137  0.4807
12054TIP3    H157577   5.459   4.787   2.429 -0.6085  1.3274  1.2792
12054TIP3    H257578   5.395   4.678   2.512 -2.0819  2.0340  1.1014
12055TIP3   OH257579   0.898   0.019   1.649 -0.4343 -0.3159 -0.1993
12055TIP3    H157580   0.901  -0.018   1.561  2.2101 -1.7130  0.4012
12055TIP3    H257581   0.985   0.055   1.663 -0.5710 -0.7564  2.1089
12056TIP3   OH257582   6.486   4.951   3.474  0.2613 -0.2585  0.4604
12056TIP3    H157583   6.431   4.890   3.424  0.1454  1.2170 -1.3215
12056TIP3    H257584   6.463   4.934   3.565 -0.7918 -1.8953 -0.0650
12057TIP3   OH257585   4.920   2.443   6.654  0.6986 -0.5434 -0.5687
12057TIP3    H157586   4.912   2.358   6.696 -1.8359 -0.5938 -1.0286
12057TIP3    H257587   4.889   2.505   6.720 -0.1192 -0.2902 -1.1704
12058TIP3   OH257588   3.107   5.552  16.208  0.4217 -0.0797  0.3743
12058TIP3    H157589   3.147   5.527  16.291 -0.7583 -1.4672  0.5532
12058TIP3    H257590   3.031   5.605  16.232  0.1080 -0.4385  0.1697
12059TIP3   OH257591   4.016   4.203   6.008 -0.1977  0.3651 -0.1993
12059TIP3    H157592   4.084   4.150   5.965 -1.5019 -1.1825 -0.4187
12059TIP3    H257593   4.010   4.166   6.096 -2.2764 -1.0447 -0.8646
12060TIP3   OH257594   1.007   5.015   5.281 -0.2353  0.5288 -0.1926
12060TIP3    H157595   1.065   5.018   5.357  0.2395  0.7074 -0.5492
12060TIP3    H257596   0.926   5.056   5.311 -0.0583  0.5870  0.2199
12061TIP3   OH257597   0.368   4.384   3.855 -0.0090  0.2388  0.1089
12061TIP3    H157598   0.432   4.327   3.899  1.4910  1.7344  0.0033
12061TIP3    H257599   0.336   4.442   3.925 -0.8317 -0.1256  0.0427
12062TIP3   OH257600   0.497   4.670  14.769 -0.1734 -0.5062 -0.0144
12062TIP3    H157601   0.545   4.589  14.789 -0.2167 -0.0839  2.0186
12062TIP3    H257602   0.456   4.694  14.852 -0.5934  1.3255 -0.7125
12063TIP3   OH257603   2.403   1.493   1.626 -0.0395  0.5919  0.0293
12063TIP3    H157604   2.384   1.411   1.580  0.7532  1.3503 -1.7303
12063TIP3    H257605   2.326   1.508   1.680 -0.3048 -1.1903  0.2246
12064TIP3   OH257606   6.397   2.951  15.630 -0.0189  0.2230 -0.1297
12064TIP3    H157607   6.478   2.992  15.659  0.4859 -0.7906 -0.0896
12064TIP3    H257608   6.371   2.893  15.701 -0.3419 -0.0682 -0.4752
12065TIP3   OH257609   1.227   6.786  10.515  0.6128 -0.1661  0.0471
12065TIP3    H157610   1.179   6.719  10.563 -0.8287 -0.9014 -2.2605
12065TIP3    H257611   1.312   6.746  10.496  0.0836 -1.0311 -0.5504
12066TIP3   OH257612   5.889   2.709   4.010 -0.9577  0.0704  0.5793
12066TIP3    H157613   5.810   2.670   3.974 -0.8361 -1.6260  1.9780
12066TIP3    H257614   5.858   2.777   4.069 -1.2417  1.1137 -0.7353
12067TIP3   OH257615   3.481   6.619  15.023  0.3813  0.3063 -0.1483
12067TIP3    H157616   3.463   6.539  14.973 -0.7412 -0.7694  1.8630
12067TIP3    H257617   3.399   6.638  15.069  0.6361  2.6371 -0.5601
12068TIP3   OH257618   4.663   0.623   1.749  0.1303  0.0322 -0.2041
12068TIP3    H157619   4.633   0.554   1.808  1.6158  0.1137  0.7023
12068TIP3    H257620   4.663   0.702   1.802  2.1264 -0.0178 -0.0572
12069TIP3   OH257621   4.713   0.245   6.318 -0.2487 -0.7734 -0.1123
12069TIP3    H157622   4.654   0.211   6.385 -0.5769 -2.1099 -1.0394
12069TIP3    H257623   4.785   0.285   6.367 -1.4116  0.0163  1.0337
12070TIP3   OH257624   2.231   4.197   4.706  0.1982  0.1515 -0.4366
12070TIP3    H157625   2.188   4.271   4.747 -1.0484 -1.4536  1.3268
12070TIP3    H257626   2.169   4.168   4.638 -0.0303 -0.1549 -0.1066
12071TIP3   OH257627   4.211   0.749  13.452  0.6416  1.2475 -0.3639
12071TIP3    H157628   4.247   0.796  13.527 -0.9646  1.1303  0.5340
12071TIP3    H257629   4.139   0.697  13.489  0.7265  0.0744 -1.7605
12072TIP3   OH257630   1.391   0.943   0.295 -0.1805  0.9704  0.4755
12072TIP3    H157631   1.439   0.970   0.216 -0.6702  1.4341  0.3271
12072TIP3    H257632   1.440   0.868   0.328 -0.1131  0.6115 -0.4144
12073TIP3   OH257633   5.353   1.138   4.852 -0.1314  0.7113 -0.6793
12073TIP3    H157634   5.402   1.131   4.770 -1.1797 -1.9790 -1.1935
12073TIP3    H257635   5.261   1.127   4.826 -0.3474 -2.7160  0.9566
12074TIP3   OH257636   4.990   0.112   0.315  0.4898 -0.5035 -0.5018
12074TIP3    H157637   5.034   0.070   0.241  2.6021 -0.0648  0.4290
12074TIP3    H257638   5.052   0.104   0.387 -1.5673 -1.0576  1.3085
12075TIP3   OH257639   0.471   1.045   0.585  0.3908  0.1277 -0.1957
12075TIP3    H157640   0.510   1.090   0.510 -0.8023  0.5019 -0.6136
12075TIP3    H257641   0.533   0.974   0.605  1.0574  0.4348 -1.1021
12076TIP3   OH257642   4.351   4.830   4.173 -0.4678 -0.2805 -0.4688
12076TIP3    H157643   4.368   4.868   4.259 -0.8925 -0.1315 -0.4501
12076TIP3    H257644   4.418   4.868   4.116 -0.1788 -0.3885 -0.2046
12077TIP3   OH257645   1.478   0.040  17.063  0.1278 -1.0146 -0.1865
12077TIP3    H157646   1.564   0.015  17.031 -0.4471  0.7190 -3.5258
12077TIP3    H257647   1.491   0.127  17.100 -0.0717 -1.0508 -0.0304
12078TIP3   OH257648   3.792   0.509  11.175  0.2982 -0.4071  0.2457
12078TIP3    H157649   3.811   0.486  11.266 -1.6830 -2.4002  0.2595
12078TIP3    H257650   3.752   0.595  11.179  2.3067  0.5567  0.9529
12079TIP3   OH257651   0.297   2.727  15.314  0.3310  0.2816 -0.4332
12079TIP3    H157652   0.293   2.682  15.229  1.9575  2.7702 -1.9282
12079TIP3    H257653   0.219   2.782  15.316  0.4045  0.3838 -0.3933
12080TIP3   OH257654   3.922   1.975   5.912  0.0755  0.0838  0.1975
12080TIP3    H157655   3.931   1.880   5.902  0.9613  0.2604 -0.8643
12080TIP3    H257656   3.848   1.986   5.972  0.5833 -1.2954  1.1386
12081TIP3   OH257657   2.305   3.616   4.546  0.4436 -0.3027 -0.6170
12081TIP3    H157658   2.339   3.536   4.506  2.0410  0.2423 -0.4341
12081TIP3    H257659   2.384   3.665   4.571 -0.4603  1.6234 -1.3146
12082TIP3   OH257660   2.241   6.209  11.638 -0.1488  0.0609 -0.5161
12082TIP3    H157661   2.186   6.233  11.712  0.7506  0.6528 -0.0194
12082TIP3    H257662   2.314   6.271  11.641 -1.0174  1.3183 -2.9901
12083TIP3   OH257663   2.400   0.017  15.904  0.0886  0.1814  0.5273
12083TIP3    H157664   2.473   0.017  15.842 -0.4846 -3.1937 -0.3430
12083TIP3    H257665   2.411  -0.063  15.955 -0.5367  1.8928  3.6043
12084TIP3   OH257666   3.044   4.567   3.263 -0.7168  0.1279  0.4422
12084TIP3    H157667   3.130   4.545   3.299 -0.5076  1.1773  0.6003
12084TIP3    H257668   3.048   4.661   3.245 -1.0246 -0.2301 -1.7648
12085TIP3   OH257669   3.174   0.014  15.788  0.8860  0.0775  0.5250
12085TIP3    H157670   3.268   0.030  15.791  0.5135  2.5026  2.3067
12085TIP3    H257671   3.143   0.066  15.713  0.7152  1.1113  1.2957
12086TIP3   OH257672   2.042   4.581   5.858  0.7190 -0.1897  0.3043
12086TIP3    H157673   2.108   4.633   5.906  0.1828  1.9307 -1.0936
12086TIP3    H257674   2.003   4.644   5.797 -3.3866 -1.0304  1.7411
12087TIP3   OH257675   0.972   5.713  15.948 -0.3647  0.0974  0.7446
12087TIP3    H157676   0.980   5.739  16.040 -0.2963  0.9665  0.4949
12087TIP3    H257677   0.887   5.747  15.920 -0.5019 -0.3936  0.5555
12088TIP3   OH257678   4.968   1.627  12.365 -0.1745 -0.3490  0.6147
12088TIP3    H157679   4.909   1.660  12.433 -0.6059  0.4968 -0.1628
12088TIP3    H257680   4.930   1.544  12.338 -1.5973  0.6523 -0.5883
12089TIP3   OH257681   4.726   6.383  11.288  0.6277  0.1702  0.0635
12089TIP3    H157682   4.727   6.287  11.288  0.3326  0.1311 -1.5463
12089TIP3    H257683   4.660   6.406  11.223  1.6335  1.4445 -0.5533
12090TIP3   OH257684   0.061   4.667  14.429  0.7855  0.1866 -0.3141
12090TIP3    H157685   0.076   4.613  14.352  0.9945 -0.1951 -0.0082
12090TIP3    H257686   0.107   4.621  14.500 -0.1267  0.0786  0.2161
12091TIP3   OH257687   2.329   4.764  10.400 -0.8694  0.2190 -0.3559
12091TIP3    H157688   2.385   4.779  10.476 -0.3282 -0.7367 -0.5483
12091TIP3    H257689   2.385   4.718  10.338 -2.1563 -1.8435 -0.0921
12092TIP3   OH257690   1.136   4.552  15.443 -0.1025 -0.0815 -0.3032
12092TIP3    H157691   1.065   4.604  15.483  2.0460 -0.5705  4.9672
12092TIP3    H257692   1.190   4.617  15.398  0.8971  2.1011  3.5788
12093TIP3   OH257693   3.309   4.770   4.919  0.7374  0.3945  0.2109
12093TIP3    H157694   3.363   4.849   4.910 -0.7502  1.3718 -0.6121
12093TIP3    H257695   3.268   4.779   5.004  2.2984 -0.6767  1.1294
12094TIP3   OH257696   2.696   6.651   2.708 -0.0017  0.6605 -0.1950
12094TIP3    H157697   2.628   6.684   2.766 -0.1820 -0.5095  0.2872
12094TIP3    H257698   2.664   6.672   2.620  0.1245  2.1640  0.0889
12095TIP3   OH257699   4.310   2.175   4.538 -0.6678  0.7742 -0.0224
12095TIP3    H157700   4.305   2.270   4.542  0.5493  0.8341  0.4940
12095TIP3    H257701   4.226   2.145   4.575 -1.2369  1.6292 -0.5926
12096TIP3   OH257702   5.106   3.841   4.244  0.3432  0.2407  0.0213
12096TIP3    H157703   5.201   3.849   4.232  0.5964 -2.1067 -0.0457
12096TIP3    H257704   5.094   3.841   4.339  0.4882 -0.0830  0.0413
12097TIP3   OH257705   1.389   5.832   5.858  0.0733 -0.2015 -0.2149
12097TIP3    H157706   1.453   5.899   5.881  1.0851 -0.5157 -1.9947
12097TIP3    H257707   1.365   5.851   5.768 -2.0935 -0.3271  0.2871
12098TIP3   OH257708   0.337   6.222  11.337 -0.1179  0.2400  0.6326
12098TIP3    H157709   0.271   6.250  11.400 -0.6848  0.2152  0.0483
12098TIP3    H257710   0.359   6.302  11.288 -1.4459 -0.1991 -0.7657
12099TIP3   OH257711   6.134   4.631  16.310 -0.1119 -0.0752 -0.7029
12099TIP3    H157712   6.092   4.565  16.256  1.2859 -2.6985  1.2216
12099TIP3    H257713   6.109   4.608  16.400  2.8444  0.0998  0.2592
12100TIP3   OH257714   4.024   0.815   5.506 -0.3427 -0.0935  0.1017
12100TIP3    H157715   4.117   0.834   5.509 -0.2554 -0.5049  0.0563
12100TIP3    H257716   3.994   0.822   5.596 -0.6677  1.9588 -0.1141
12101TIP3   OH257717   4.216   4.904   2.631  0.4942  0.1972 -0.3135
12101TIP3    H157718   4.210   4.876   2.722  0.1643 -0.1476 -0.4356
12101TIP3    H257719   4.252   4.829   2.585 -1.0820 -0.3336 -0.7631
12102TIP3   OH257720   3.648   4.362   0.240 -0.2123  0.4044  0.4085
12102TIP3    H157721   3.727   4.315   0.214 -0.6492 -0.2328  0.1996
12102TIP3    H257722   3.626   4.417   0.165 -0.2697  0.1714  0.2532
12103TIP3   OH257723   1.501   0.689  12.155  0.1497  0.3978 -0.0030
12103TIP3    H157724   1.585   0.736  12.159  1.2484 -1.3915 -0.6134
12103TIP3    H257725   1.497   0.639  12.237  1.9194 -2.9235 -1.7125
12104TIP3   OH257726   1.196   4.018  12.230 -0.1481 -0.2118 -0.2715
12104TIP3    H157727   1.230   4.086  12.287  1.0364 -1.4122  0.5192
12104TIP3    H257728   1.261   4.011  12.159 -0.0167 -0.8091 -0.0997
12105TIP3   OH257729   4.742   0.777  15.757  0.4278  0.3752 -0.1122
12105TIP3    H157730   4.729   0.816  15.670  1.9534 -1.1093 -1.0671
12105TIP3    H257731   4.834   0.793  15.777 -0.1099  1.4705  1.6900
12106TIP3   OH257732   5.054   3.050  16.198  0.1464  0.1214  0.2233
12106TIP3    H157733   5.134   3.056  16.147  0.9170  1.0915  1.4976
12106TIP3    H257734   5.015   3.138  16.192  0.1807  0.2096  1.1746
12107TIP3   OH257735   4.954   2.905   5.936 -0.1847 -0.0536  0.0277
12107TIP3    H157736   4.983   2.838   5.997  0.3141 -0.7742 -0.9766
12107TIP3    H257737   4.862   2.885   5.920 -0.3043  0.1105  0.5030
12108TIP3   OH257738   3.996   1.188  12.797  0.0299 -0.2610 -0.0892
12108TIP3    H157739   4.058   1.192  12.870  0.4764 -0.3534 -0.4605
12108TIP3    H257740   3.927   1.129  12.828  0.3888 -0.5700  0.1370
12109TIP3   OH257741   2.790   3.175  16.138 -0.2387 -0.1493 -0.0737
12109TIP3    H157742   2.802   3.095  16.190 -1.1980  0.6778  1.5090
12109TIP3    H257743   2.720   3.222  16.182 -0.0452  1.3456 -1.2618
12110TIP3   OH257744   1.081   2.140  12.317  0.1712  0.4805  0.0568
12110TIP3    H157745   1.094   2.217  12.371  0.7779 -0.0608  0.6903
12110TIP3    H257746   0.997   2.104  12.347  0.1526  0.5886  0.1337
12111TIP3   OH257747   5.055   2.986  16.977 -0.0558 -0.1071 -0.0826
12111TIP3    H157748   5.072   3.037  16.898  0.6383 -1.7099 -1.0045
12111TIP3    H257749   5.114   2.912  16.972 -0.4392 -0.5933  1.6463
12112TIP3   OH257750   4.225   3.376   0.555  0.5060 -0.0860  0.4309
12112TIP3    H157751   4.139   3.334   0.564  0.6045 -0.2963  0.3777
12112TIP3    H257752   4.224   3.446   0.621  0.0016  0.4045 -0.0852
12113TIP3   OH257753   2.962   6.011  12.425  0.6420 -0.2353 -0.2420
12113TIP3    H157754   2.942   6.100  12.453  0.8610  0.1578 -1.2857
12113TIP3    H257755   2.886   5.959  12.453 -0.0333  0.5010 -0.6558
12114TIP3   OH257756   2.275   4.146   5.544  0.4318 -0.7291 -0.3165
12114TIP3    H157757   2.245   4.121   5.457  0.2549  1.6341 -1.0100
12114TIP3    H257758   2.263   4.241   5.547  2.2437 -0.4849  1.5751
12115TIP3   OH257759   5.320   3.327   1.509  0.6099  0.1244  0.7604
12115TIP3    H157760   5.344   3.272   1.584  0.1421 -1.2598 -0.0813
12115TIP3    H257761   5.226   3.338   1.516  0.5484 -0.1091  0.3099
12116TIP3   OH257762   1.938   6.181   6.666  0.0642 -0.1930 -0.5625
12116TIP3    H157763   1.928   6.088   6.686 -0.8436  0.0634  0.2851
12116TIP3    H257764   2.024   6.204   6.700 -0.1292 -0.5045  0.1528
12117TIP3   OH257765   3.778   3.488  16.112 -0.0590 -0.4217  0.1284
12117TIP3    H157766   3.855   3.538  16.085  0.2028 -0.2243  1.1961
12117TIP3    H257767   3.789   3.477  16.206 -0.9911 -0.9969  0.1778
12118TIP3   OH257768   3.444   2.532  16.253  0.4356  0.1135  0.0593
12118TIP3    H157769   3.441   2.452  16.201  1.2328  0.7455 -1.0080
12118TIP3    H257770   3.510   2.515  16.321  1.2590  0.1433 -0.7037
12119TIP3   OH257771   4.566   4.891   2.172  0.7811  0.4577 -1.1464
12119TIP3    H157772   4.613   4.863   2.251 -1.8791  1.2119  0.8689
12119TIP3    H257773   4.560   4.812   2.118  3.4326  0.1389 -1.0902
12120TIP3   OH257774   4.112   0.952  14.312 -0.9459  0.4803  0.5907
12120TIP3    H157775   4.040   0.891  14.297 -0.1689 -0.9486  2.3308
12120TIP3    H257776   4.071   1.039  14.312 -2.1296 -0.0052 -1.5680
12121TIP3   OH257777   0.773   2.354   5.772  0.5584  0.0855 -0.1453
12121TIP3    H157778   0.730   2.312   5.697 -2.5986 -2.1293  2.5975
12121TIP3    H257779   0.731   2.440   5.779  0.2100 -0.0646 -0.3830
12122TIP3   OH257780   2.977   0.879   1.628 -0.1841 -0.0652 -0.0320
12122TIP3    H157781   3.017   0.952   1.581 -1.2538  0.1878 -0.5998
12122TIP3    H257782   2.901   0.918   1.672 -1.8488 -1.1063 -1.8223
12123TIP3   OH257783   1.729   1.234   5.544  0.1457 -0.4076 -0.3562
12123TIP3    H157784   1.800   1.268   5.599 -1.1167  0.5725  0.7430
12123TIP3    H257785   1.765   1.234   5.456  2.3745 -2.3993  0.4589
12124TIP3   OH257786   4.223   3.825   5.407  0.9065  0.5479 -0.0320
12124TIP3    H157787   4.156   3.785   5.464  1.5350 -0.4801  0.0107
12124TIP3    H257788   4.190   3.811   5.318  1.4360 -0.7098 -0.0542
12125TIP3   OH257789   1.157   0.128   1.681  0.3437 -0.4375  0.0813
12125TIP3    H157790   1.148   0.222   1.668  0.0228 -0.3571  0.8356
12125TIP3    H257791   1.222   0.101   1.616 -1.6352 -0.1940 -2.1434
12126TIP3   OH257792   3.591   1.214   3.986 -0.2190  0.2057  0.3905
12126TIP3    H157793   3.499   1.204   4.012  0.1949 -0.9633  1.5095
12126TIP3    H257794   3.597   1.303   3.952 -1.8143  0.2199  0.0767
12127TIP3   OH257795   4.546   6.484   5.653 -0.5184  0.1390 -0.4121
12127TIP3    H157796   4.513   6.395   5.647  0.7036 -0.2872 -1.2120
12127TIP3    H257797   4.521   6.524   5.569  0.9631 -0.1943 -1.0324
12128TIP3   OH257798   1.099   3.257  12.424 -0.7063  0.6902 -0.0568
12128TIP3    H157799   1.069   3.293  12.507 -2.3110  1.4295 -0.9083
12128TIP3    H257800   1.194   3.268  12.426 -0.7278  0.8282  1.5916
12129TIP3   OH257801   0.893   1.163   6.027  0.1436  0.5485  0.8437
12129TIP3    H157802   0.802   1.173   6.056  0.2670  2.1139  0.7620
12129TIP3    H257803   0.885   1.148   5.933 -0.1113 -1.6425  1.1657
12130TIP3   OH257804   3.586   1.486  15.238 -0.2017 -0.5484  0.2435
12130TIP3    H157805   3.518   1.550  15.257  0.6060  1.3845 -2.6661
12130TIP3    H257806   3.548   1.430  15.170  0.0238 -1.5950  0.9411
12131TIP3   OH257807   5.928   4.787   1.776 -0.1850  0.1754 -0.2165
12131TIP3    H157808   5.910   4.850   1.706  2.5866  0.6132 -0.6362
12131TIP3    H257809   5.907   4.834   1.856 -0.9651  0.5576 -0.6276
12132TIP3   OH257810   4.316   0.736   1.080 -0.1235 -0.2635  0.4024
12132TIP3    H157811   4.338   0.820   1.121 -0.7157  1.1615 -2.0163
12132TIP3    H257812   4.395   0.712   1.031 -0.1023 -0.9403  0.7540
12133TIP3   OH257813   5.799   4.629  11.622 -0.1250  0.1263  0.7114
12133TIP3    H157814   5.879   4.578  11.610 -2.1863 -3.0800 -0.9055
12133TIP3    H257815   5.734   4.565  11.651 -2.6657  2.0907 -0.2555
12134TIP3   OH257816   5.204   6.772   0.431  0.5094 -0.3819 -0.1690
12134TIP3    H157817   5.205   6.682   0.397  1.6026  0.7137 -3.4156
12134TIP3    H257818   5.296   6.791   0.449  0.7703  0.9977 -2.5336
12135TIP3   OH257819   2.634   4.529  13.324 -0.2175  0.0259 -0.1213
12135TIP3    H157820   2.665   4.490  13.406  0.5552  0.9522  0.0534
12135TIP3    H257821   2.713   4.569  13.286 -0.7028  0.1790 -0.9853
12136TIP3   OH257822   5.421   2.560   0.702 -0.7776 -0.3155 -0.2444
12136TIP3    H157823   5.516   2.567   0.699 -0.7621 -0.6331 -0.7172
12136TIP3    H257824   5.400   2.498   0.632 -1.1990 -1.6227  0.9941
12137TIP3   OH257825   5.367   0.053   0.664 -0.1718 -0.2298 -0.1007
12137TIP3    H157826   5.402   0.131   0.707  2.3567 -1.2142 -0.2386
12137TIP3    H257827   5.429   0.034   0.593 -0.9744 -2.0932 -0.3766
12138TIP3   OH257828   3.761   5.178  13.081 -0.3093 -0.6410 -0.3933
12138TIP3    H157829   3.691   5.223  13.129  0.1411  1.5803 -1.6784
12138TIP3    H257830   3.841   5.212  13.119  0.1077 -2.0425  0.0471
12139TIP3   OH257831   3.780   5.934   3.928 -0.0500 -0.1195 -0.5835
12139TIP3    H157832   3.766   5.947   4.022 -3.9102 -1.1979 -0.8527
12139TIP3    H257833   3.779   5.839   3.917  1.8197 -0.0680 -1.6325
12140TIP3   OH257834   4.258   6.737   4.412  0.9242 -0.0430 -0.4807
12140TIP3    H157835   4.192   6.674   4.384  1.1151 -0.1200 -0.7685
12140TIP3    H257836   4.213   6.795   4.472  0.8798 -0.7779  0.2033
12141TIP3   OH257837   4.088   6.784   2.395  0.1875  0.1115 -0.5198
12141TIP3    H157838   4.029   6.710   2.407  0.8713 -0.3510  0.1328
12141TIP3    H257839   4.034   6.853   2.357 -1.4055  0.5124  2.2024
12142TIP3   OH257840   5.991   0.267  16.493 -0.7507  0.1859  0.1306
12142TIP3    H157841   5.970   0.285  16.401  0.0095 -1.7410 -0.4688
12142TIP3    H257842   6.056   0.333  16.517 -1.6011  1.2584 -0.4127
12143TIP3   OH257843   3.044   4.885   4.567  0.4467 -0.5556 -0.0923
12143TIP3    H157844   3.040   4.965   4.514 -1.0403 -0.8534 -0.5007
12143TIP3    H257845   3.027   4.914   4.656  0.7657 -0.3079 -0.1135
12144TIP3   OH257846   6.492   5.369  12.260  0.0341 -0.6916  0.1925
12144TIP3    H157847   6.506   5.462  12.279  0.4359 -0.9029  0.9970
12144TIP3    H257848   6.580   5.334  12.246 -0.1641 -0.8275 -0.7553
12145TIP3   OH257849   5.689   1.549  14.678 -0.2070 -0.2614 -0.4633
12145TIP3    H157850   5.681   1.592  14.763  2.0047  0.1621 -0.3953
12145TIP3    H257851   5.631   1.473  14.683  0.1757 -0.4592  1.5740
12146TIP3   OH257852   1.187   0.900   5.403  0.1766  0.1631 -0.2667
12146TIP3    H157853   1.259   0.879   5.463  0.3730 -0.2529 -0.6371
12146TIP3    H257854   1.209   0.853   5.322  0.0310  0.8878 -0.7407
12147TIP3   OH257855   0.173   4.950  14.589  0.6396  0.3630  0.1918
12147TIP3    H157856   0.236   4.880  14.573 -0.4521 -0.6187  0.0137
12147TIP3    H257857   0.121   4.918  14.664 -0.8209  0.2762 -0.8201
12148TIP3   OH257858   5.320   3.672   4.647 -0.6028  0.1384 -0.7830
12148TIP3    H157859   5.255   3.710   4.706  0.9297  0.4681  0.7740
12148TIP3    H257860   5.320   3.729   4.570  1.4932  3.3923  1.3813
12149TIP3   OH257861   6.497   5.676   0.440 -0.2760 -0.4158 -0.4934
12149TIP3    H157862   6.433   5.653   0.507  0.1305  2.6660  1.1523
12149TIP3    H257863   6.561   5.605   0.442 -1.6303 -1.6692  0.5158
12150TIP3   OH257864   6.500   3.398   5.195 -0.7262  0.5090 -0.1980
12150TIP3    H157865   6.433   3.351   5.246 -0.1648  1.5575  1.6226
12150TIP3    H257866   6.560   3.330   5.165 -0.8566 -0.1369  0.9358
12151TIP3   OH257867   1.668   1.444  14.358  0.0422 -0.1083  0.5190
12151TIP3    H157868   1.676   1.352  14.333 -0.6624  0.2934 -1.3469
12151TIP3    H257869   1.679   1.444  14.453  1.8229 -1.9018  0.3877
12152TIP3   OH257870   0.844   2.572  16.197  0.1816  0.1141 -0.1481
12152TIP3    H157871   0.893   2.648  16.229  0.5112 -0.6969  1.3904
12152TIP3    H257872   0.890   2.497  16.235 -0.6571 -0.8099 -0.9164
12153TIP3   OH257873   5.142   4.546  12.592  0.0212  0.6469  0.0095
12153TIP3    H157874   5.154   4.451  12.599 -1.2659  0.4932  0.3575
12153TIP3    H257875   5.064   4.564  12.644  1.1853  2.1284  1.3638
12154TIP3   OH257876   1.223   2.647   0.973 -0.5449  0.3661  0.3241
12154TIP3    H157877   1.140   2.653   0.927 -0.7260  0.8632  0.7086
12154TIP3    H257878   1.276   2.719   0.938  0.1279 -0.6061 -0.7084
12155TIP3   OH257879   0.056   6.329   2.382  0.0337  0.0566  0.0939
12155TIP3    H157880  -0.026   6.373   2.361 -1.0376 -0.2596  3.1652
12155TIP3    H257881   0.105   6.393   2.433  0.6679 -0.5794  0.2983
12156TIP3   OH257882   6.350   6.059   2.529  0.1298  0.1972  0.1191
12156TIP3    H157883   6.318   6.106   2.453 -1.0545 -2.2175 -0.9966
12156TIP3    H257884   6.271   6.038   2.580  0.9358  2.2705  2.4242
12157TIP3   OH257885   4.538   4.667   1.431  0.0197  0.0380 -0.6487
12157TIP3    H157886   4.556   4.575   1.413  1.6437  0.3725 -0.8804
12157TIP3    H257887   4.451   4.667   1.472  0.3222 -1.6758  0.0830
12158TIP3   OH257888   2.714   5.035  11.937  0.6100 -0.1216  0.1244
12158TIP3    H157889   2.742   5.089  11.863  1.1968 -0.6878 -0.0807
12158TIP3    H257890   2.776   5.056  12.007  3.1712 -3.0446 -1.0188
12159TIP3   OH257891   5.606   3.775   3.254  0.2376  0.5737 -0.0452
12159TIP3    H157892   5.628   3.785   3.162 -1.4715  0.7962 -0.4603
12159TIP3    H257893   5.527   3.828   3.267 -0.4697 -0.6893  1.1545
12160TIP3   OH257894   1.302   3.003   4.555  0.3042  0.1838  0.2835
12160TIP3    H157895   1.307   3.030   4.646 -0.7261 -0.3916  0.5261
12160TIP3    H257896   1.352   2.921   4.552  1.0970  0.6545  0.1221
12161TIP3   OH257897   1.923   2.667  13.787 -0.0491  0.7464 -0.3341
12161TIP3    H157898   2.004   2.670  13.735 -0.2864 -0.8943 -0.8599
12161TIP3    H257899   1.858   2.711  13.732  0.6387  2.8666  0.4672
12162TIP3   OH257900   2.416   0.346   3.496  0.2687 -0.3034  0.0858
12162TIP3    H157901   2.377   0.263   3.523 -0.0692  0.0231  0.6140
12162TIP3    H257902   2.402   0.349   3.401  2.1164 -1.8022 -0.2944
12163TIP3   OH257903   4.375   4.380  10.548 -0.0635 -0.3749 -0.5693
12163TIP3    H157904   4.307   4.440  10.517 -0.0304 -0.0925 -0.0993
12163TIP3    H257905   4.360   4.299  10.499 -0.6845 -0.2895 -0.5271
12164TIP3   OH257906   3.148   5.033  16.619 -0.6021 -0.0724 -0.2258
12164TIP3    H157907   3.234   4.994  16.606 -0.2928  0.2924  0.6358
12164TIP3    H257908   3.091   4.989  16.555 -0.0419 -1.1558  0.0034
12165TIP3   OH257909   6.704   4.526   6.006  1.0925 -0.1409 -0.0685
12165TIP3    H157910   6.790   4.563   6.025  1.3256 -1.1971  1.0402
12165TIP3    H257911   6.670   4.500   6.091 -0.6943  0.9872 -0.3881
12166TIP3   OH257912   4.416   3.411  12.552 -0.5468 -0.0231  0.0131
12166TIP3    H157913   4.501   3.376  12.576 -1.2716 -0.9963  1.3427
12166TIP3    H257914   4.420   3.504  12.575  0.4350  0.1504 -0.8066
12167TIP3   OH257915   1.420   4.163   6.459  0.1525  0.3441 -0.1478
12167TIP3    H157916   1.371   4.245   6.472 -1.6100 -0.2587 -2.2895
12167TIP3    H257917   1.353   4.095   6.457  1.3869 -0.9054 -0.3701
12168TIP3   OH257918   1.008   5.548  11.984  0.2691  0.4321  0.2994
12168TIP3    H157919   1.077   5.484  12.000  0.7566  0.7625 -0.4549
12168TIP3    H257920   0.985   5.537  11.892  0.1899  1.1756  0.2226
12169TIP3   OH257921   6.040   6.368   6.306  0.5333 -0.4970  0.0466
12169TIP3    H157922   6.115   6.310   6.292  0.4140 -0.6138 -0.1165
12169TIP3    H257923   6.062   6.417   6.385  1.2850  0.2659 -0.6042
12170TIP3   OH257924   1.331   6.386   1.522  0.3513 -0.1439  0.0151
12170TIP3    H157925   1.316   6.369   1.615  0.9201  0.7108  0.2785
12170TIP3    H257926   1.246   6.371   1.480 -1.1739  3.7299  1.2978
12171TIP3   OH257927   4.206   0.183  13.791  0.5439 -0.3433  0.1713
12171TIP3    H157928   4.280   0.189  13.852  0.2183 -0.8863  0.6236
12171TIP3    H257929   4.236   0.230  13.713  0.0070  2.7336  1.6585
12172TIP3   OH257930   0.259   6.039   0.932 -0.0413 -0.2574 -0.3003
12172TIP3    H157931   0.308   6.109   0.887 -0.9439  0.4291 -0.2436
12172TIP3    H257932   0.194   6.011   0.868  0.5862 -1.3728 -0.4819
12173TIP3   OH257933   1.676   0.814   1.374 -0.6111 -0.2274  0.3356
12173TIP3    H157934   1.610   0.827   1.442 -1.0803  0.9549 -0.3254
12173TIP3    H257935   1.630   0.832   1.292  0.8309  1.8957 -0.0714
12174TIP3   OH257936   6.634   1.375   0.274 -0.6488  0.2980  0.5586
12174TIP3    H157937   6.628   1.332   0.359  1.6666 -0.4895  0.3966
12174TIP3    H257938   6.700   1.444   0.287  1.0480 -0.9397 -0.9399
12175TIP3   OH257939   0.684   6.725  13.370 -0.7185 -0.8940  0.6737
12175TIP3    H157940   0.719   6.648  13.417  0.6624 -0.0404  1.1037
12175TIP3    H257941   0.733   6.727  13.288  0.9459  0.7728  1.6198
12176TIP3   OH257942   5.647   0.931  12.815 -0.5029 -0.1840  0.0447
12176TIP3    H157943   5.741   0.918  12.800 -0.3597  0.5073  0.3102
12176TIP3    H257944   5.631   0.895  12.903 -0.2656  0.6928  0.4518
12177TIP3   OH257945   2.149   3.774   5.224  0.2373  0.5397 -0.3701
12177TIP3    H157946   2.113   3.707   5.166  0.3875  0.1157  0.0212
12177TIP3    H257947   2.239   3.784   5.196  0.6981 -0.6043  0.6042
12178TIP3   OH257948   6.701   3.038   2.390 -0.0222  0.1659  0.4553
12178TIP3    H157949   6.651   2.957   2.374  1.2770 -0.5487 -0.1496
12178TIP3    H257950   6.740   3.026   2.476 -2.0263  1.3724  1.6173
12179TIP3   OH257951   5.961   5.122  12.466 -0.4090 -0.2576  0.3605
12179TIP3    H157952   6.027   5.170  12.515  1.2096 -1.3670 -0.6278
12179TIP3    H257953   5.949   5.040  12.515 -0.7698 -0.2242  0.3299
12180TIP3   OH257954   0.301   2.822   2.459 -0.3426 -0.1574  0.1932
12180TIP3    H157955   0.301   2.868   2.375 -1.1921 -0.4092  0.0415
12180TIP3    H257956   0.389   2.785   2.467 -0.4528 -0.6956 -0.9039
12181TIP3   OH257957   3.981   0.546  12.575 -0.1423 -0.3298  0.5948
12181TIP3    H157958   3.983   0.642  12.570  0.1584 -0.3518  0.2836
12181TIP3    H257959   4.072   0.519  12.566 -0.1914 -0.6359  0.9564
12182TIP3   OH257960   2.639   6.514  15.118  0.2003 -0.2352 -0.3918
12182TIP3    H157961   2.716   6.516  15.174  0.3194 -2.1299 -0.4175
12182TIP3    H257962   2.592   6.595  15.138  0.6386 -0.4700  1.8451
12183TIP3   OH257963   2.512   4.923  16.886  0.3414  0.0860  0.3859
12183TIP3    H157964   2.469   4.849  16.929 -1.2724  0.8233  0.1288
12183TIP3    H257965   2.594   4.934  16.934  0.3530 -1.5036  0.7831
12184TIP3   OH257966   1.680   0.380  11.691 -0.1759 -0.5449 -0.5800
12184TIP3    H157967   1.587   0.401  11.705 -0.1249 -0.2611 -0.6665
12184TIP3    H257968   1.678   0.296  11.646 -0.4347  0.1052 -1.8154
12185TIP3   OH257969   5.839   1.903  13.544  0.2279  0.2711  0.1306
12185TIP3    H157970   5.891   1.851  13.605  0.8977  0.9636  0.1624
12185TIP3    H257971   5.899   1.923  13.472  0.0178  1.0917  0.1756
12186TIP3   OH257972   0.170   1.038   1.537 -0.2896  0.6495  0.4690
12186TIP3    H157973   0.237   1.002   1.596  1.5628  1.8437 -0.7825
12186TIP3    H257974   0.128   1.107   1.587  1.6691  2.0625  0.2950
12187TIP3   OH257975   2.963   0.216   4.822 -0.3703 -0.1873 -0.0802
12187TIP3    H157976   2.935   0.124   4.821 -0.3232 -0.2101  0.3374
12187TIP3    H257977   3.040   0.218   4.765 -0.0800 -0.5120  0.2866
12188TIP3   OH257978   5.785   1.864   4.151  0.3939  0.1051 -0.1403
12188TIP3    H157979   5.804   1.890   4.242  0.9819 -0.0537 -0.2150
12188TIP3    H257980   5.743   1.778   4.159  0.8807 -0.1274 -0.0415
12189TIP3   OH257981   4.450   0.768   2.290 -0.0607  0.0765 -0.0265
12189TIP3    H157982   4.538   0.735   2.308  0.5401  1.3589 -0.4908
12189TIP3    H257983   4.456   0.862   2.306 -0.8043  0.5129 -2.0546
12190TIP3   OH257984   4.129   4.380  15.660 -0.2714 -0.0092  1.0884
12190TIP3    H157985   4.062   4.441  15.631 -1.3438 -1.4392  0.4619
12190TIP3    H257986   4.150   4.328  15.583  2.3267  1.0308  0.9799
12191TIP3   OH257987   3.650   0.167   2.775  0.3490  0.3271 -0.0795
12191TIP3    H157988   3.594   0.116   2.718 -0.1654  0.9989 -0.1872
12191TIP3    H257989   3.608   0.253   2.781  2.0642  1.3092 -1.2677
12192TIP3   OH257990   2.774   1.914  13.402  0.1470 -0.2982 -0.2468
12192TIP3    H157991   2.807   1.916  13.313 -0.1407 -0.5506 -0.3617
12192TIP3    H257992   2.689   1.958  13.397  0.5226  0.4781  0.0732
12193TIP3   OH257993   1.504   2.561  15.309  0.3451 -0.1796  0.1545
12193TIP3    H157994   1.416   2.594  15.329 -0.4083 -2.4296  0.8830
12193TIP3    H257995   1.509   2.564  15.213 -0.8658 -0.7507  0.0531
12194TIP3   OH257996   3.542   3.186  16.784 -0.0262  0.5091 -0.4780
12194TIP3    H157997   3.470   3.236  16.822  0.0180  0.1238  0.1238
12194TIP3    H257998   3.569   3.237  16.708  0.2175  1.5566  0.2930
12195TIP3   OH257999   5.726   2.582  15.551  0.3630 -0.1991  0.5172
12195TIP3    H158000   5.761   2.593  15.462  1.3329  1.0671  1.0257
12195TIP3    H258001   5.643   2.536  15.538  0.2992  0.2949 -1.0773
12196TIP3   OH258002   2.948   2.874  12.059  0.1948  0.7014  0.0832
12196TIP3    H158003   2.950   2.951  12.002  1.3784  0.6148 -0.0082
12196TIP3    H258004   3.037   2.866  12.093  0.3752 -1.1855 -0.6720
12197TIP3   OH258005   4.992   0.403  13.514 -0.4050  0.1459 -0.0700
12197TIP3    H158006   4.934   0.336  13.477 -1.0148  1.7686 -2.2788
12197TIP3    H258007   4.985   0.476  13.452  4.0935  0.4048 -0.5701
12198TIP3   OH258008   4.916   1.437   3.626  0.1245 -0.4360 -0.5417
12198TIP3    H158009   4.852   1.374   3.593 -1.0374  0.0057  0.7460
12198TIP3    H258010   4.951   1.480   3.548 -0.3008 -1.5000 -1.3392
12199TIP3   OH258011   3.013   4.597  15.215 -0.7709 -0.3282  0.3914
12199TIP3    H158012   2.919   4.587  15.234 -0.6884 -0.0121  0.9896
12199TIP3    H258013   3.057   4.570  15.295 -0.4497  2.0943  1.1296
12200TIP3   OH258014   1.184   2.566   0.647 -0.2294 -0.0497  0.2828
12200TIP3    H158015   1.261   2.542   0.698  1.5292  2.6227 -0.8951
12200TIP3    H258016   1.134   2.624   0.704 -0.7916 -0.8175  0.5998
12201TIP3   OH258017   3.171   4.361   3.955  0.0373 -0.2489  0.8394
12201TIP3    H158018   3.175   4.266   3.945  0.0422 -0.1497 -0.2679
12201TIP3    H258019   3.124   4.375   4.037 -3.0232 -1.1887 -0.6187
12202TIP3   OH258020   0.340   3.536  16.766 -0.0615 -0.2196 -0.0933
12202TIP3    H158021   0.322   3.628  16.746 -0.4122 -0.3669 -0.4600
12202TIP3    H258022   0.256   3.492  16.752  0.6570 -1.0092 -2.2883
12203TIP3   OH258023   3.971   2.521  14.549  0.1758  0.1640 -0.9249
12203TIP3    H158024   4.028   2.556  14.618 -0.8086  2.6095 -1.2356
12203TIP3    H258025   3.919   2.454  14.592  1.5796 -0.4022 -0.0437
12204TIP3   OH258026   2.743   2.779  14.265 -0.5001  0.2790  0.4061
12204TIP3    H158027   2.709   2.840  14.200  0.8034  0.3405 -0.2446
12204TIP3    H258028   2.838   2.783  14.255 -0.3075 -0.3822  1.7108
12205TIP3   OH258029   2.350   2.405  15.962  0.1134  0.1350  0.1056
12205TIP3    H158030   2.329   2.312  15.952 -1.1189  0.3821  0.1833
12205TIP3    H258031   2.274   2.451  15.926  1.4666  1.1603 -1.6220
12206TIP3   OH258032   3.321   5.414   2.143  0.0351  0.5369  0.0138
12206TIP3    H158033   3.231   5.444   2.155 -0.3754 -0.1773 -1.1177
12206TIP3    H258034   3.313   5.325   2.107  1.1870  0.4961 -0.2091
12207TIP3   OH258035   2.176   1.432   1.784 -0.1653  0.2331  1.0335
12207TIP3    H158036   2.107   1.400   1.725  0.4997 -1.2820  1.0283
12207TIP3    H258037   2.137   1.508   1.828 -1.1851  0.5174 -0.2852
12208TIP3   OH258038   3.990   3.653  16.144 -0.6803  0.1869  0.1766
12208TIP3    H158039   4.041   3.590  16.196 -0.1374  0.8129  0.4251
12208TIP3    H258040   3.919   3.680  16.202 -0.4932  0.3431  0.3341
12209TIP3   OH258041   5.919   1.809   4.491 -0.5583  0.8040  0.6911
12209TIP3    H158042   5.838   1.831   4.446  0.2546 -1.5103 -2.1804
12209TIP3    H258043   5.925   1.714   4.484  2.9711  0.9787 -0.3156
12210TIP3   OH258044   2.770   3.768   0.940  0.4450  0.5552  0.0516
12210TIP3    H158045   2.814   3.822   1.005  1.4539  0.7611 -0.7758
12210TIP3    H258046   2.784   3.678   0.970  2.0426  0.5806 -0.5549
12211TIP3   OH258047   5.921   2.470  16.437  0.4348  0.4337  0.1079
12211TIP3    H158048   5.937   2.518  16.518  0.1743 -0.1258  0.5047
12211TIP3    H258049   5.989   2.499  16.377 -0.8726  2.7795 -0.3453
12212TIP3   OH258050   0.795   1.582   5.691  0.3650 -0.5001 -0.3946
12212TIP3    H158051   0.802   1.519   5.618 -2.1997  0.7277 -1.8372
12212TIP3    H258052   0.701   1.595   5.702  0.7333  3.8049 -0.8465
12213TIP3   OH258053   1.196   4.398   4.757  0.0005 -0.8285 -0.3039
12213TIP3    H158054   1.195   4.378   4.663 -2.7590 -0.1018 -0.5124
12213TIP3    H258055   1.105   4.418   4.778  0.9669  1.9116  1.9293
12214TIP3   OH258056   3.083   4.548   0.689 -0.3213  0.2280  0.3688
12214TIP3    H158057   3.150   4.547   0.758  0.1466  0.3372 -0.0778
12214TIP3    H258058   3.025   4.475   0.711  0.8715 -0.9171 -0.1252
12215TIP3   OH258059   2.248   2.131   4.599  0.6677 -0.4364 -0.5213
12215TIP3    H158060   2.342   2.142   4.593  0.4633  1.0615 -1.6041
12215TIP3    H258061   2.223   2.175   4.680  0.9587 -1.3755  0.0847
12216TIP3   OH258062   3.861   5.670  11.756 -0.2131 -0.5458 -0.0050
12216TIP3    H158063   3.939   5.715  11.786 -0.8003  0.5161 -0.0329
12216TIP3    H258064   3.889   5.622  11.678  0.1202  0.8480 -0.7551
12217TIP3   OH258065   2.500   4.622  14.414  0.3768 -0.0620 -0.1761
12217TIP3    H158066   2.555   4.634  14.490  0.5064 -2.0442  0.0881
12217TIP3    H258067   2.478   4.711  14.386 -0.9017  0.7563  3.0306
12218TIP3   OH258068   1.633   2.317  10.770  0.1556  0.4831 -0.1089
12218TIP3    H158069   1.594   2.387  10.822  1.6495  1.0783  0.2562
12218TIP3    H258070   1.715   2.355  10.738 -0.2605 -0.2057 -2.0986
12219TIP3   OH258071   1.375   2.683  11.280  0.3357  0.4981 -1.1064
12219TIP3    H158072   1.427   2.612  11.242  0.2792 -0.1100 -0.0786
12219TIP3    H258073   1.299   2.691  11.222  0.8871  0.4880 -1.8573
12220TIP3   OH258074   5.228   3.889   1.664  0.3488  0.4536  0.7895
12220TIP3    H158075   5.302   3.828   1.652  0.3987  0.0737  2.6760
12220TIP3    H258076   5.243   3.927   1.750 -0.0718  2.6633 -0.0641
12221TIP3   OH258077   1.168   1.542   3.496  0.1087  0.2390  0.0885
12221TIP3    H158078   1.244   1.582   3.452  0.4441 -0.5647 -0.0851
12221TIP3    H258079   1.197   1.528   3.586  0.2298 -0.2236 -0.0206
12222TIP3   OH258080   2.996   4.967  13.979 -0.6879  0.4270 -0.1820
12222TIP3    H158081   2.934   5.023  14.025  0.3153  0.0655  1.7288
12222TIP3    H258082   2.996   4.885  14.029  1.3306  0.4383 -0.0615
12223TIP3   OH258083   0.280   0.662  11.772 -0.0192 -0.8474  0.2312
12223TIP3    H158084   0.252   0.628  11.686 -1.4668 -0.0575  0.3551
12223TIP3    H258085   0.249   0.596  11.834 -1.1308 -0.2834  0.3130
12224TIP3   OH258086   2.977   1.708  13.983  0.1827 -0.1231 -0.1234
12224TIP3    H158087   2.936   1.705  14.070  0.3607  0.0864 -0.0334
12224TIP3    H258088   2.944   1.630  13.939 -0.4761  0.1536 -0.1218
12225TIP3   OH258089   2.364   6.002   1.990 -0.2893 -0.3134  0.0032
12225TIP3    H158090   2.410   5.923   1.963  1.4469  1.2816 -2.2225
12225TIP3    H258091   2.412   6.033   2.067 -0.5481 -1.0742  0.4705
12226TIP3   OH258092   3.806   3.287   6.324 -0.1497  0.1662 -0.5654
12226TIP3    H158093   3.847   3.211   6.283  1.8870  0.2360  1.1549
12226TIP3    H258094   3.767   3.253   6.404  1.1342  0.9208  0.4286
12227TIP3   OH258095   1.064   1.240   0.332  0.1025 -0.4042 -0.1550
12227TIP3    H158096   0.979   1.219   0.370  0.0632 -0.7383 -0.4200
12227TIP3    H258097   1.051   1.227   0.238 -0.1883  1.6820 -0.4492
12228TIP3   OH258098   2.497   5.400   0.853 -0.2565  0.3156 -0.0157
12228TIP3    H158099   2.545   5.407   0.770 -1.1501  0.0799 -0.5719
12228TIP3    H258100   2.459   5.312   0.851 -0.3854  0.3540  0.5916
12229TIP3   OH258101   0.756   6.491   1.063 -0.1964  0.2895 -0.0921
12229TIP3    H158102   0.718   6.421   1.011 -0.5976 -0.6645  1.4387
12229TIP3    H258103   0.695   6.564   1.055 -1.0547 -0.3770  0.2973
12230TIP3   OH258104   0.770   2.292   3.027 -0.2361 -0.1011  0.1972
12230TIP3    H158105   0.733   2.353   2.963 -0.3677  1.5215  1.7310
12230TIP3    H258106   0.852   2.333   3.054 -0.5760 -0.3080  1.6308
12231TIP3   OH258107   1.876   1.023  13.945 -1.0365  0.3725 -0.3774
12231TIP3    H158108   1.882   0.979  14.030  0.3378 -0.1450 -0.7160
12231TIP3    H258109   1.887   1.116  13.965 -2.2993  0.4241  0.1614
12232TIP3   OH258110   2.469   4.190  11.374 -0.2794 -0.1202  0.5942
12232TIP3    H158111   2.527   4.114  11.373 -0.2427 -0.1005 -0.7864
12232TIP3    H258112   2.503   4.245  11.445  2.3030  0.5363 -1.0243
12233TIP3   OH258113   4.372   0.500  13.407 -0.0836 -0.0630  0.0201
12233TIP3    H158114   4.319   0.578  13.390 -1.0358 -0.6898  0.0384
12233TIP3    H258115   4.368   0.449  13.326  0.7048 -0.0062 -0.0673
12234TIP3   OH258116   1.229   0.335   0.355 -0.2658 -0.1543  0.3874
12234TIP3    H158117   1.146   0.375   0.379  0.7151  0.0176  4.0932
12234TIP3    H258118   1.205   0.251   0.316 -2.1508  0.4337  0.2062
12235TIP3   OH258119   6.265   5.054  10.786  0.1079  0.0803 -0.4618
12235TIP3    H158120   6.280   5.129  10.844  1.9049  0.4775 -1.3817
12235TIP3    H258121   6.353   5.025  10.762 -0.5862 -0.4451 -2.5172
12236TIP3   OH258122   2.684   1.990   3.465  0.8600  0.2074 -0.7714
12236TIP3    H158123   2.621   2.009   3.394 -1.7513 -0.7698  1.1222
12236TIP3    H258124   2.690   2.073   3.513  1.9488  0.6181 -1.5753
12237TIP3   OH258125   5.070   0.431   4.718  0.3178 -0.0888  0.2922
12237TIP3    H158126   5.094   0.371   4.648  1.0512 -1.2582  1.4987
12237TIP3    H258127   4.984   0.401   4.748  0.7775 -0.7026  1.0367
12238TIP3   OH258128   6.479   1.628   0.470 -0.1367 -0.4953 -0.3404
12238TIP3    H158129   6.442   1.540   0.471 -0.8627 -0.2104  1.1362
12238TIP3    H258130   6.405   1.685   0.449  0.0526 -0.1410 -0.0651
12239TIP3   OH258131   3.201   5.071  15.497  0.1525  0.0345 -0.0066
12239TIP3    H158132   3.226   5.098  15.586  1.1776 -0.5104 -0.1189
12239TIP3    H258133   3.145   5.143  15.466 -1.2127 -0.3155  1.4998
12240TIP3   OH258134   5.827   0.115  12.116 -0.0673  0.0103  0.2462
12240TIP3    H158135   5.754   0.066  12.079 -0.1035  0.2746 -0.0348
12240TIP3    H258136   5.785   0.189  12.160  0.0844  0.7202 -0.7724
12241TIP3   OH258137   5.560   4.813  13.539  0.3423 -0.2696  1.0097
12241TIP3    H158138   5.565   4.738  13.481  2.1412 -0.3721  1.2548
12241TIP3    H258139   5.528   4.778  13.622 -1.3769 -0.2692  0.3951
12242TIP3   OH258140   3.294   4.663   0.013  1.3404  0.3023 -0.5393
12242TIP3    H158141   3.310   4.751   0.046  0.5006  0.0505  0.5940
12242TIP3    H258142   3.329   4.664  -0.076  0.4667  2.0849 -0.9108
12243TIP3   OH258143   1.446   2.888  17.189 -0.2679  0.2933 -0.0085
12243TIP3    H158144   1.455   2.880  17.284 -0.4855 -0.3563 -0.0338
12243TIP3    H258145   1.493   2.812  17.154  0.3964  0.9032 -0.4517
12244TIP3   OH258146   5.197   6.536  17.037 -0.0920  0.4088 -0.2423
12244TIP3    H158147   5.188   6.494  17.122  0.1878 -1.7767 -1.2193
12244TIP3    H258148   5.259   6.608  17.052 -1.8036  1.5634  1.8330
12245TIP3   OH258149   3.478   0.059  12.810 -0.5651 -0.2104 -0.6630
12245TIP3    H158150   3.514  -0.023  12.778 -1.0348 -0.4123 -0.6927
12245TIP3    H258151   3.394   0.035  12.849  0.2638 -0.0586  1.3188
12246TIP3   OH258152   6.628   0.239  13.778  0.4367  0.0205 -0.2094
12246TIP3    H158153   6.712   0.270  13.743  1.2073 -1.0254  0.6235
12246TIP3    H258154   6.562   0.290  13.731  1.4754 -0.1648 -1.9828
12247TIP3   OH258155   6.172   2.255   6.204  0.3852 -0.3679 -0.1581
12247TIP3    H158156   6.179   2.350   6.213 -1.6469 -0.2615  1.1185
12247TIP3    H258157   6.260   2.222   6.220  1.3644  1.3341 -1.7360
12248TIP3   OH258158   0.492   6.391   0.130  0.2845 -0.3202 -1.4768
12248TIP3    H158159   0.410   6.345   0.114 -0.1441  0.4447 -1.5442
12248TIP3    H258160   0.498   6.455   0.060 -0.3851  1.3980 -0.0387
12249TIP3   OH258161   1.211   4.693   4.781 -0.2331 -0.5919  0.4367
12249TIP3    H158162   1.251   4.762   4.729 -0.8596  0.5438  1.4055
12249TIP3    H258163   1.117   4.712   4.779 -0.4263 -1.4758  0.6391
12250TIP3   OH258164   3.636   4.587  10.997  0.4216 -0.4584 -0.2945
12250TIP3    H158165   3.644   4.655  11.063 -1.1855  0.7200 -1.2489
12250TIP3    H258166   3.631   4.634  10.914  1.6108 -1.8615 -1.2158
12251TIP3   OH258167   2.244   3.829  13.260 -0.2417 -0.1666  0.1071
12251TIP3    H158168   2.299   3.799  13.188  1.0119  0.0177  0.9454
12251TIP3    H258169   2.306   3.850  13.330 -1.5005 -2.4026  2.0284
12252TIP3   OH258170   0.473   4.477  16.986  0.4939  0.4810 -0.5871
12252TIP3    H158171   0.445   4.411  16.923 -3.0840  1.6891 -0.5115
12252TIP3    H258172   0.461   4.435  17.071  0.1923  0.5545 -0.5931
12253TIP3   OH258173   1.795   5.609   0.296  0.8880  0.1669  0.0918
12253TIP3    H158174   1.736   5.534   0.299  0.1391  0.7517  0.6653
12253TIP3    H258175   1.777   5.651   0.212 -2.3327  2.4506  1.6630
12254TIP3   OH258176   0.626   5.679   5.545  0.1791  0.4563  0.2773
12254TIP3    H158177   0.628   5.724   5.460 -0.0127 -0.0242  0.0158
12254TIP3    H258178   0.552   5.720   5.591 -1.9584 -1.5821 -1.0945
12255TIP3   OH258179   4.880   1.490   2.986  0.0102 -0.0740 -0.2512
12255TIP3    H158180   4.837   1.425   2.931 -1.0511 -0.0826  0.5507
12255TIP3    H258181   4.951   1.524   2.932 -0.2054 -0.9897 -1.1434
12256TIP3   OH258182   6.772   3.997   1.440  0.0623  0.2540 -0.2494
12256TIP3    H158183   6.747   4.033   1.525  0.7412 -0.2351  0.1692
12256TIP3    H258184   6.817   4.068   1.395  1.1911  0.0171  0.4773
12257TIP3   OH258185   1.058   0.240   4.029 -0.5257  0.0991  0.4501
12257TIP3    H158186   1.099   0.321   3.998 -1.8759  0.5950 -0.0981
12257TIP3    H258187   1.121   0.204   4.092 -0.0935  1.7983  1.0385
12258TIP3   OH258188   4.834   3.208   2.326  0.1161  0.0336  0.1794
12258TIP3    H158189   4.919   3.202   2.370 -0.5539  0.1730  1.5367
12258TIP3    H258190   4.780   3.141   2.367 -1.1852  1.6007  1.1393
12259TIP3   OH258191   3.912   2.648  11.726 -0.7109 -0.1431 -0.2601
12259TIP3    H158192   3.934   2.583  11.793  0.1556  0.3366 -0.0641
12259TIP3    H258193   3.971   2.628  11.653  1.4207  1.9297  0.7448
12260TIP3   OH258194   4.933   1.631   1.521 -0.0381 -0.5921  0.0159
12260TIP3    H158195   4.902   1.695   1.586  0.8572 -2.4768  2.4743
12260TIP3    H258196   4.854   1.606   1.473 -1.2845 -0.9455  2.1149
12261TIP3   OH258197   2.237   5.420  14.501  0.0394  0.1378 -0.0386
12261TIP3    H158198   2.326   5.453  14.491  0.6147 -1.1690  0.5613
12261TIP3    H258199   2.222   5.366  14.424 -0.3816  0.6293 -0.3121
12262TIP3   OH258200   4.558   5.823   2.996 -0.2418  0.0112  0.3690
12262TIP3    H158201   4.546   5.867   2.912  0.6506 -1.6548 -0.6681
12262TIP3    H258202   4.497   5.749   2.993  0.5010 -0.6275  0.7716
12263TIP3   OH258203   0.986   5.703  12.237  0.2107 -0.1705  0.0182
12263TIP3    H158204   1.033   5.781  12.208  1.3633 -0.6620  0.4966
12263TIP3    H258205   1.003   5.637  12.170 -0.8757  0.0026 -0.4588
12264TIP3   OH258206   2.577   1.669  16.272 -0.3491  0.3540  0.2838
12264TIP3    H158207   2.552   1.752  16.313 -0.2052  0.3457  0.3877
12264TIP3    H258208   2.537   1.672  16.185  0.7265  1.0950 -0.2013
12265TIP3   OH258209   1.373   4.344   2.698  0.2401  0.2333  0.0685
12265TIP3    H158210   1.419   4.337   2.614 -0.6181  0.4689 -0.4435
12265TIP3    H258211   1.420   4.413   2.745  0.6674  0.1793 -0.2667
12266TIP3   OH258212   2.748   4.470  15.272 -0.0536 -0.4102 -0.0995
12266TIP3    H158213   2.668   4.429  15.240 -0.0079 -1.3201  0.8934
12266TIP3    H258214   2.719   4.553  15.310 -0.7928 -1.4230  1.6743
12267TIP3   OH258215   4.897   0.867  16.036 -0.7326 -0.1573 -0.4540
12267TIP3    H158216   4.821   0.870  15.978 -0.1283 -1.9050 -1.4087
12267TIP3    H258217   4.892   0.781  16.077  1.9108 -1.3246 -2.2866
12268TIP3   OH258218   4.078   5.622   5.458 -0.0338  0.1827  0.0933
12268TIP3    H158219   4.147   5.556   5.464 -0.4073 -0.1788  0.6372
12268TIP3    H258220   3.997   5.571   5.465 -0.3855  0.4942 -1.4909
12269TIP3   OH258221   3.000   1.287  16.593 -0.0933  0.5395  0.1495
12269TIP3    H158222   2.920   1.330  16.562  0.4739 -0.6125 -3.3334
12269TIP3    H258223   3.066   1.357  16.595 -0.5303  0.9491  0.2325
12270TIP3   OH258224   2.887   0.801  11.507  0.7976  0.1294  1.0204
12270TIP3    H158225   2.938   0.846  11.574  2.9635 -1.4896  0.5742
12270TIP3    H258226   2.944   0.730  11.477 -1.0268 -0.6481 -0.8690
12271TIP3   OH258227   4.694   2.564   3.457  0.1534  0.5097  0.0146
12271TIP3    H158228   4.635   2.497   3.491 -0.3752  0.2838 -1.2631
12271TIP3    H258229   4.758   2.515   3.405 -0.6946  1.0048 -1.5797
12272TIP3   OH258230   5.794   4.859   2.380  0.0029  0.0454 -0.0941
12272TIP3    H158231   5.824   4.795   2.445 -0.4312  0.8282  0.9077
12272TIP3    H258232   5.816   4.820   2.296 -1.0870 -1.8386  0.4518
12273TIP3   OH258233   3.024   4.518   2.042 -0.1613 -0.0867  0.4685
12273TIP3    H158234   2.976   4.441   2.012 -0.6340  0.4923 -0.2783
12273TIP3    H258235   2.959   4.588   2.043  0.8978  1.0413 -1.8471
12274TIP3   OH258236   0.581   2.040  14.118  0.2411 -0.2733  0.4229
12274TIP3    H158237   0.519   1.967  14.119 -1.4041  0.9862 -1.3293
12274TIP3    H258238   0.529   2.116  14.145  1.5216  0.5163  0.7499
12275TIP3   OH258239   5.361   2.905  14.907 -0.1992 -0.6937 -0.1695
12275TIP3    H158240   5.377   2.878  14.997 -0.0785 -2.1501 -0.5991
12275TIP3    H258241   5.266   2.912  14.900 -0.1363  2.7769  0.9502
12276TIP3   OH258242   1.606   1.791   1.026  0.3881 -0.0378  0.1697
12276TIP3    H158243   1.648   1.831   1.103  0.2087 -0.4899  0.5099
12276TIP3    H258244   1.513   1.800   1.043  0.3363 -1.2031  0.5850
12277TIP3   OH258245   1.321   0.283   2.321  0.2311 -0.2873 -0.3957
12277TIP3    H158246   1.402   0.256   2.365 -0.6080  0.3655  1.7050
12277TIP3    H258247   1.277   0.339   2.386 -1.2800  0.4533 -1.9883
12278TIP3   OH258248   1.475   4.934   5.108  0.5091  0.5410 -0.7747
12278TIP3    H158249   1.458   4.861   5.168  0.1182 -0.3437 -1.9264
12278TIP3    H258250   1.565   4.961   5.128  0.1147  0.8311  0.7688
12279TIP3   OH258251   6.120   6.506   2.054 -0.0052 -0.2351  0.3880
12279TIP3    H158252   6.213   6.484   2.059 -0.0386 -0.7533 -0.8693
12279TIP3    H258253   6.104   6.563   2.129  1.2689 -0.3480  0.7572
12280TIP3   OH258254   3.647   2.732  16.310  0.1522 -0.3599  0.2945
12280TIP3    H158255   3.638   2.640  16.335 -2.4061 -0.4113 -0.5141
12280TIP3    H258256   3.575   2.748  16.248  0.9389  2.0080 -0.1398
12281TIP3   OH258257   6.677   1.839   0.452  0.4419  0.2886  0.4169
12281TIP3    H158258   6.647   1.915   0.502 -0.3827  0.1547  0.1355
12281TIP3    H258259   6.616   1.769   0.476  0.0849  0.1978 -0.6928
12282TIP3   OH258260   1.171   0.588  12.754 -0.1492  0.2624  0.3212
12282TIP3    H158261   1.179   0.498  12.787 -2.1724 -0.8792 -1.9548
12282TIP3    H258262   1.201   0.643  12.826 -0.7085 -2.1547  2.5481
12283TIP3   OH258263   1.482   2.569  15.037  0.0925  0.7674  0.0376
12283TIP3    H158264   1.454   2.478  15.034 -0.0211  0.7595  0.9174
12283TIP3    H258265   1.534   2.581  14.958  0.1081 -0.0595 -0.0889
12284TIP3   OH258266   3.972   6.678   3.358  0.7947 -0.2735 -0.5694
12284TIP3    H158267   4.046   6.733   3.332  2.0014 -1.6646 -0.2274
12284TIP3    H258268   3.952   6.707   3.447 -0.7151  1.7467 -1.4809
12285TIP3   OH258269   2.119   3.528  11.069 -0.3675 -0.5016  0.0385
12285TIP3    H158270   2.025   3.519  11.080 -0.5708  2.0747  1.2077
12285TIP3    H258271   2.129   3.593  10.999  0.6370 -2.0541 -1.3483
12286TIP3   OH258272   1.595   1.803   1.388  0.2963  0.0306  0.1891
12286TIP3    H158273   1.536   1.857   1.440 -0.1922 -1.1672  0.9236
12286TIP3    H258274   1.653   1.865   1.344 -1.8589  1.2847 -1.0217
12287TIP3   OH258275   2.543   4.074  11.763 -0.4505 -0.0446 -0.0727
12287TIP3    H158276   2.492   4.150  11.792 -1.2138  0.3739 -2.2841
12287TIP3    H258277   2.478   4.015  11.725  0.1901 -1.6677  1.2279
12288TIP3   OH258278   4.446   1.493   1.942  0.2768 -0.5383 -0.1878
12288TIP3    H158279   4.352   1.491   1.961  0.4595 -1.5294  0.6897
12288TIP3    H258280   4.487   1.457   2.021  1.4384  0.4267 -0.3282
12289TIP3   OH258281   0.551   3.679   4.105 -0.1060  0.0612 -0.0980
12289TIP3    H158282   0.572   3.717   4.019  0.2413  1.5965  0.6215
12289TIP3    H258283   0.537   3.755   4.161 -0.7616 -0.9247  1.1102
12290TIP3   OH258284   3.500   2.685   1.626 -0.1253 -0.7151  0.5239
12290TIP3    H158285   3.421   2.670   1.678 -0.8069  0.1179 -0.2222
12290TIP3    H258286   3.467   2.722   1.543  1.1465  1.8035  1.0283
12291TIP3   OH258287   4.470   2.264   0.789 -0.4085  0.0452 -0.2486
12291TIP3    H158288   4.397   2.320   0.763 -0.2307 -0.3270 -1.6309
12291TIP3    H258289   4.434   2.175   0.789  0.0988 -0.1847 -1.3110
12292TIP3   OH258290   4.756   5.875   0.927  0.1717  0.5342  0.1087
12292TIP3    H158291   4.703   5.849   1.001 -1.0354 -0.1193 -0.9498
12292TIP3    H258292   4.817   5.940   0.962 -2.4555  2.6655  1.0476
12293TIP3   OH258293   1.094   0.634  15.423 -0.0850 -0.3257 -0.2345
12293TIP3    H158294   1.080   0.692  15.349  1.9585  0.8053  0.1892
12293TIP3    H258295   1.130   0.691  15.491  0.1691 -1.7493  0.8597
12294TIP3   OH258296   6.018   0.593   4.103  0.2168 -0.1502  0.3221
12294TIP3    H158297   6.000   0.499   4.105  1.0949 -0.5124 -2.8127
12294TIP3    H258298   6.113   0.598   4.088  0.0018  1.1818 -0.7609
12295TIP3   OH258299   0.660   5.305  15.711 -0.2398 -0.2046  0.0015
12295TIP3    H158300   0.609   5.266  15.782 -0.1351 -2.1147 -0.8957
12295TIP3    H258301   0.732   5.350  15.755 -1.3339  0.4555  1.1759
12296TIP3   OH258302   5.474   1.269  16.748 -0.0907  0.0699  0.2995
12296TIP3    H158303   5.463   1.360  16.724  2.7557  0.2523 -0.6921
12296TIP3    H258304   5.536   1.271  16.821  0.9319 -1.0880 -0.5003
12297TIP3   OH258305   3.830   5.725   5.703  0.4266 -0.4823  0.3225
12297TIP3    H158306   3.836   5.650   5.644  1.1385  0.3201 -0.6717
12297TIP3    H258307   3.900   5.711   5.767  1.5331  0.0359 -0.7357
12298TIP3   OH258308   5.099   3.846  17.187 -0.4445 -0.5205  0.8937
12298TIP3    H158309   5.152   3.768  17.201  1.3390  0.6294  0.8595
12298TIP3    H258310   5.162   3.915  17.167 -1.9702  0.9128  0.7864
12299TIP3   OH258311   2.204   1.218  12.183 -0.6438 -0.0259  0.4035
12299TIP3    H158312   2.273   1.153  12.167 -0.0488  0.4350  1.0059
12299TIP3    H258313   2.124   1.167  12.193 -0.4434 -0.5562 -0.5486
12300TIP3   OH258314   4.445   1.717  14.216 -0.4523  0.0386 -0.2208
12300TIP3    H158315   4.509   1.651  14.189 -1.0462 -0.4237 -0.5309
12300TIP3    H258316   4.377   1.712  14.149 -1.6278 -0.6464  0.9816
12301TIP3   OH258317   2.484   2.617  15.562  0.3242 -0.7932  0.0321
12301TIP3    H158318   2.558   2.672  15.535 -1.5627  1.2197 -1.3786
12301TIP3    H258319   2.410   2.678  15.570 -1.1052 -2.6382  1.8732
12302TIP3   OH258320   0.995   1.167   4.638  0.2610 -0.1821  0.5719
12302TIP3    H158321   0.938   1.235   4.675 -0.0740 -1.5155  2.6686
12302TIP3    H258322   1.073   1.168   4.693 -0.1765 -2.1248  1.3253
12303TIP3   OH258323   0.906   4.574  16.133  0.4656 -0.2859 -0.1905
12303TIP3    H158324   0.934   4.643  16.073  0.0743 -0.2648 -0.3548
12303TIP3    H258325   0.976   4.569  16.198  0.5066  0.2506 -0.1871
12304TIP3   OH258326   1.109   1.226   2.734 -0.2640 -0.0387  0.2767
12304TIP3    H158327   1.153   1.208   2.651 -1.5349  3.6925 -1.4141
12304TIP3    H258328   1.139   1.313   2.759 -1.8494 -0.0152  2.4401
12305TIP3   OH258329   1.521   0.569  12.394 -0.0904  0.1930  0.2965
12305TIP3    H158330   1.447   0.512  12.419  0.8370 -0.5548  1.4859
12305TIP3    H258331   1.595   0.509  12.387  0.6959  1.1159  0.5239
12306TIP3   OH258332   3.513   4.267   4.137  0.5098 -0.0677 -0.5821
12306TIP3    H158333   3.472   4.342   4.180  0.5722 -1.5502  2.3847
12306TIP3    H258334   3.442   4.204   4.126  1.2293 -1.4078  1.6398
12307TIP3   OH258335   4.944   2.075   5.867 -0.0157 -0.2416 -0.0391
12307TIP3    H158336   4.876   2.137   5.842  0.2498 -0.0106 -0.1933
12307TIP3    H258337   4.919   1.993   5.823  0.6398  0.2489 -1.3980
12308TIP3   OH258338   3.173   1.858   4.160 -0.7465 -0.5254  0.2065
12308TIP3    H158339   3.145   1.833   4.248 -1.4419 -1.5949 -0.2818
12308TIP3    H258340   3.236   1.790   4.135  1.2234  1.0264  0.7079
12309TIP3   OH258341   0.616   6.488  15.171 -0.3620 -0.5294 -0.0383
12309TIP3    H158342   0.590   6.562  15.226  0.5637  1.3571 -1.9859
12309TIP3    H258343   0.680   6.440  15.223 -0.6471  0.2779  1.0993
12310TIP3   OH258344   1.395   3.208   0.609 -0.3540 -0.2708 -0.2260
12310TIP3    H158345   1.328   3.233   0.673 -0.4300 -0.0928 -0.3731
12310TIP3    H258346   1.371   3.257   0.530 -0.5807 -0.9143 -0.5639
12311TIP3   OH258347   0.561   3.071  11.881  0.1036  0.2891  0.4101
12311TIP3    H158348   0.470   3.081  11.852  0.0339  1.3800  0.9493
12311TIP3    H258349   0.610   3.130  11.824  0.1815  1.2352  1.4212
12312TIP3   OH258350   3.577   6.332   1.440  0.3429 -0.1582  0.0743
12312TIP3    H158351   3.583   6.275   1.517  0.3104 -1.0966 -0.6105
12312TIP3    H258352   3.638   6.404   1.459  1.8222 -1.3716  0.1525
12313TIP3   OH258353   2.067   4.328  15.869  0.6504 -0.3083 -0.5240
12313TIP3    H158354   2.099   4.272  15.799  0.4963 -1.5057  0.3200
12313TIP3    H258355   2.144   4.345  15.923  0.4145 -1.0088  0.0587
12314TIP3   OH258356   5.526   3.657   1.918  0.3158 -0.0595  0.1390
12314TIP3    H158357   5.614   3.654   1.882  0.7458 -1.2136  1.1807
12314TIP3    H258358   5.469   3.667   1.842  1.1986 -1.9227 -0.8422
12315TIP3   OH258359   5.226   4.850   1.636  0.1636  0.6459  0.0774
12315TIP3    H158360   5.158   4.873   1.700  0.3439 -0.6331  0.7609
12315TIP3    H258361   5.279   4.929   1.628  0.3631  0.7275  1.8343
12316TIP3   OH258362   0.545   5.550   6.330 -0.1802 -0.2028  0.5700
12316TIP3    H158363   0.638   5.567   6.315 -0.3929  0.6897  0.2428
12316TIP3    H258364   0.516   5.620   6.388 -0.7186 -0.3069  0.4377
12317TIP3   OH258365   2.146   6.135  11.955 -0.2429 -0.3774  0.5464
12317TIP3    H158366   2.091   6.058  11.945  1.2708 -1.4579  0.2168
12317TIP3    H258367   2.089   6.199  11.999 -1.4882 -1.7098  0.9737
12318TIP3   OH258368   5.729   2.395  11.593 -0.2634  0.3140 -0.1510
12318TIP3    H158369   5.756   2.444  11.670  1.1678  1.1832 -1.1497
12318TIP3    H258370   5.634   2.384  11.603  0.0412 -0.7656  2.3549
12319TIP3   OH258371   6.258   2.440   5.274  0.1271  0.6330 -0.4037
12319TIP3    H158372   6.332   2.409   5.326  0.4559  0.7341 -0.8055
12319TIP3    H258373   6.181   2.407   5.320  0.4322  0.2166 -0.1830
12320TIP3   OH258374   3.366   6.754   3.492 -0.0893 -0.2546 -0.5458
12320TIP3    H158375   3.282   6.792   3.465  1.0526  1.5990 -1.7562
12320TIP3    H258376   3.407   6.822   3.546  2.5313  1.0323 -3.7403
12321TIP3   OH258377   6.481   0.133   1.753 -0.1186  0.1671 -0.0583
12321TIP3    H158378   6.551   0.154   1.815  0.8125  0.0488 -1.0417
12321TIP3    H258379   6.497   0.041   1.729 -0.0784  0.3909 -0.9423
12322TIP3   OH258380   1.561   1.390   1.197 -0.0757  0.0128  0.3027
12322TIP3    H158381   1.584   1.348   1.280  0.5197  0.1409  0.2034
12322TIP3    H258382   1.489   1.337   1.163  1.0220 -1.2904 -0.0871
12323TIP3   OH258383   2.293   0.965   2.550  0.0657  0.2167  0.1338
12323TIP3    H158384   2.362   0.900   2.562 -0.0598  0.3416  1.7846
12323TIP3    H258385   2.338   1.042   2.518  0.7333  0.3003  1.2085
12324TIP3   OH258386   2.407   3.066   0.425  0.3397  0.1372 -0.4199
12324TIP3    H158387   2.341   3.135   0.432 -1.3992 -1.4948  0.1322
12324TIP3    H258388   2.416   3.032   0.514  0.3041 -1.0670 -0.8491
12325TIP3   OH258389   0.343   4.189   1.982  0.5219  0.0329 -0.6766
12325TIP3    H158390   0.434   4.164   1.966  0.5079 -1.1093  0.7492
12325TIP3    H258391   0.327   4.162   2.073 -2.2905 -3.2251 -1.8931
12326TIP3   OH258392   1.326   0.373  15.658 -0.3615 -0.1282  0.1309
12326TIP3    H158393   1.328   0.424  15.577  0.7220 -0.2480  0.0619
12326TIP3    H258394   1.275   0.295  15.637  0.9394 -0.7620 -0.8357
12327TIP3   OH258395   4.066   0.490   2.124  0.1941 -0.7529 -0.4954
12327TIP3    H158396   4.090   0.466   2.034 -0.7034 -1.9158 -0.4365
12327TIP3    H258397   4.123   0.437   2.179 -0.4630 -1.3548 -0.3789
12328TIP3   OH258398   6.142   3.348  12.614 -0.3362 -0.5470 -0.1990
12328TIP3    H158399   6.171   3.268  12.658 -1.4356 -1.0957 -0.4264
12328TIP3    H258400   6.073   3.318  12.554 -0.5083  0.5211 -0.5434
12329TIP3   OH258401   5.492   2.510  13.412  0.4038  0.0489 -0.2553
12329TIP3    H158402   5.479   2.514  13.507 -0.6837 -0.9085 -0.3413
12329TIP3    H258403   5.510   2.418  13.394 -0.2659  0.0708 -1.0744
12330TIP3   OH258404   1.043   0.190   0.136 -0.5359 -0.1682  0.0178
12330TIP3    H158405   0.966   0.241   0.112 -0.5981 -1.4174 -2.8277
12330TIP3    H258406   1.018   0.099   0.118  2.2207 -0.4780 -3.3590
12331TIP3   OH258407   1.154   6.652   2.095 -0.1727  0.5146 -0.3035
12331TIP3    H158408   1.239   6.622   2.128  0.2075  0.6566 -1.1307
12331TIP3    H258409   1.169   6.670   2.002 -1.0630  0.7233 -0.4180
12332TIP3   OH258410   1.894   4.360  12.867 -0.3678 -0.3496  0.2326
12332TIP3    H158411   1.957   4.302  12.824 -0.1118  1.1835 -1.6254
12332TIP3    H258412   1.934   4.380  12.952  0.6174 -1.0958 -0.0292
12333TIP3   OH258413   1.180   6.712   2.950 -0.6437  0.2020  0.5239
12333TIP3    H158414   1.160   6.665   3.031  1.5560 -0.1323  0.9128
12333TIP3    H258415   1.264   6.754   2.965  0.5634 -1.0534 -2.0659
12334TIP3   OH258416   1.544   1.510  16.010  0.5983  0.2714 -0.2036
12334TIP3    H158417   1.626   1.560  16.011  1.5107 -1.1802  0.2996
12334TIP3    H258418   1.501   1.533  16.093  0.0856  1.6334 -0.8144
12335TIP3   OH258419   4.546   6.769  12.597 -0.3038 -0.3940 -0.5106
12335TIP3    H158420   4.472   6.762  12.536 -0.7593 -2.1207  0.1536
12335TIP3    H258421   4.509   6.740  12.681  1.3902 -2.5367 -0.4289
12336TIP3   OH258422   3.931   5.717  15.915  0.8963  0.1176  0.0125
12336TIP3    H158423   4.003   5.722  15.977  0.9733  1.2613 -0.1388
12336TIP3    H258424   3.869   5.784  15.944  1.2869  1.2272 -1.5525
12337TIP3   OH258425   2.839   6.024  17.025  0.2084 -0.1767 -0.2049
12337TIP3    H158426   2.889   6.095  16.984 -1.1649  0.1111 -1.5037
12337TIP3    H258427   2.757   6.065  17.052 -0.4285 -1.1561 -0.5746
12338TIP3   OH258428   3.626   6.245   2.624 -0.2742  0.1111  0.1677
12338TIP3    H158429   3.680   6.295   2.564 -1.4847  0.2316 -0.8694
12338TIP3    H258430   3.675   6.165   2.641  0.0659  0.0572 -1.0268
12339TIP3   OH258431   6.575   0.561   1.057  0.0826  0.4911 -0.5986
12339TIP3    H158432   6.585   0.550   1.151 -0.5505  0.3451 -0.5381
12339TIP3    H258433   6.519   0.639   1.047  1.5454  1.5367 -0.9142
12340TIP3   OH258434   1.236   3.740   1.275  0.0801 -0.1968  0.2408
12340TIP3    H158435   1.228   3.699   1.189 -0.0919  0.3392  0.0037
12340TIP3    H258436   1.263   3.830   1.257 -1.3516  0.3345  0.6773
12341TIP3   OH258437   3.940   3.442   3.700  0.0464  0.4332 -0.0377
12341TIP3    H158438   3.921   3.358   3.742 -0.2023  1.0268  1.0791
12341TIP3    H258439   3.894   3.438   3.616  4.6875 -2.9321 -2.9220
12342TIP3   OH258440   2.194   4.595  14.900 -1.0148  0.0635  1.0842
12342TIP3    H158441   2.109   4.558  14.876 -0.3094 -1.0864  0.2428
12342TIP3    H258442   2.239   4.522  14.944  0.7152 -0.4081 -1.3122
12343TIP3   OH258443   1.464   4.348   4.409 -0.5277  0.5680  0.0150
12343TIP3    H158444   1.377   4.355   4.450 -1.1836  0.5136 -1.3030
12343TIP3    H258445   1.466   4.259   4.374 -0.7211  1.1544 -1.5871
12344TIP3   OH258446   3.738   5.686  15.094  0.2093  0.0641  0.7408
12344TIP3    H158447   3.709   5.744  15.164  1.6647  1.5088  0.1886
12344TIP3    H258448   3.658   5.640  15.067 -0.8517  1.3004  1.6362
12345TIP3   OH258449   5.788   2.726  16.641  0.4236 -0.2926 -0.4113
12345TIP3    H158450   5.693   2.721  16.629  0.7054 -1.5854 -2.7495
12345TIP3    H258451   5.800   2.792  16.709 -2.1250  0.1876 -0.3173
12346TIP3   OH258452   2.277   5.520  15.263  0.3759 -0.3276  0.0888
12346TIP3    H158453   2.227   5.591  15.304  1.4359 -0.0997  1.0103
12346TIP3    H258454   2.266   5.535  15.169 -1.5404 -0.4733  0.2457
12347TIP3   OH258455   3.965   2.849   2.824  0.7949  0.4113  0.0871
12347TIP3    H158456   3.873   2.873   2.806  1.5517  2.0486 -2.1018
12347TIP3    H258457   3.976   2.868   2.917 -0.6938  1.6713  0.0604
12348TIP3   OH258458   5.171   5.399   5.301  0.0020 -0.1555  0.1967
12348TIP3    H158459   5.257   5.439   5.288  0.0620 -0.6222 -0.9712
12348TIP3    H258460   5.190   5.308   5.325 -0.1531  0.1762  1.6739
12349TIP3   OH258461   2.588   1.352  11.445 -0.2023 -0.1518 -0.4522
12349TIP3    H158462   2.528   1.287  11.482 -2.8624  1.9442 -0.7373
12349TIP3    H258463   2.571   1.350  11.351  0.1822  0.4782 -0.5398
12350TIP3   OH258464   0.167   2.466  14.367 -0.2090 -0.6762 -0.4245
12350TIP3    H158465   0.244   2.450  14.313 -1.3502  0.8852 -2.6540
12350TIP3    H258466   0.172   2.560  14.387  0.5448 -1.2997  2.9197
12351TIP3   OH258467   1.546   3.302  13.595  0.1175  0.2416  0.1034
12351TIP3    H158468   1.475   3.365  13.606  0.4084  0.4915  0.5849
12351TIP3    H258469   1.614   3.350  13.548 -0.0310 -0.0022 -0.3706
12352TIP3   OH258470   1.723   6.075  13.745 -0.1621 -0.4654  0.4280
12352TIP3    H158471   1.802   6.043  13.789 -1.2633 -1.8567  1.5088
12352TIP3    H258472   1.677   6.125  13.813 -0.5370 -0.2652  0.0313
12353TIP3   OH258473   4.081   3.036   4.970  0.8439 -0.2281 -0.2233
12353TIP3    H158474   3.999   2.992   4.990 -0.0762  0.7068 -1.7181
12353TIP3    H258475   4.149   2.982   5.011 -0.5120 -0.9703  1.1068
12354TIP3   OH258476   5.681   6.380  14.966 -0.2208  0.6049 -0.1397
12354TIP3    H158477   5.648   6.448  15.025 -0.3803  0.0572  0.4213
12354TIP3    H258478   5.611   6.366  14.903 -0.6501  0.1890  0.4152
12355TIP3   OH258479   3.070   2.805   5.304 -0.3951  0.0671 -0.6176
12355TIP3    H158480   3.079   2.830   5.396  1.7220 -2.5648  0.0396
12355TIP3    H258481   2.988   2.846   5.276 -1.5035  0.4079  2.6361
12356TIP3   OH258482   6.713   4.898   2.855  0.7271 -0.0316 -0.6468
12356TIP3    H158483   6.787   4.856   2.899  1.8102 -0.3578 -2.6651
12356TIP3    H258484   6.722   4.991   2.876  0.1520 -0.3435  1.2368
12357TIP3   OH258485   5.413   1.212   2.564 -0.1810  0.2787 -0.5671
12357TIP3    H158486   5.480   1.204   2.496 -0.2957  0.3897 -0.6948
12357TIP3    H258487   5.399   1.123   2.595 -0.3856  0.1827 -0.9394
12358TIP3   OH258488   5.982   4.880   3.314  0.6325  0.5563  0.2243
12358TIP3    H158489   5.977   4.833   3.231  1.7754 -1.1478  1.0539
12358TIP3    H258490   5.921   4.953   3.304 -0.5720 -0.6048 -1.4555
12359TIP3   OH258491   3.117   1.322  15.749 -0.2073 -0.4911 -0.0701
12359TIP3    H158492   3.174   1.358  15.681  0.8899  1.4694  1.7343
12359TIP3    H258493   3.044   1.383  15.754 -0.5624 -0.9285  0.1287
12360TIP3   OH258494   4.535   0.969  14.846  0.3324  0.0633 -0.3330
12360TIP3    H158495   4.470   0.904  14.818  2.6193 -2.0939 -1.0620
12360TIP3    H258496   4.538   1.033  14.775 -1.0141  0.2524 -0.2404
12361TIP3   OH258497   3.839   0.700   0.814 -0.0761  0.0800  0.4047
12361TIP3    H158498   3.763   0.758   0.823 -0.1420  0.6744 -2.7580
12361TIP3    H258499   3.814   0.638   0.745  1.5526 -1.0582  0.7827
12362TIP3   OH258500   2.269   0.080   5.599  0.1660  0.4457 -0.1604
12362TIP3    H158501   2.326   0.043   5.666  0.0602 -1.0865 -0.8662
12362TIP3    H258502   2.234   0.004   5.553  0.9877  1.4376 -2.5925
12363TIP3   OH258503   1.183   4.734  11.639 -0.0788 -0.4899 -0.0609
12363TIP3    H158504   1.165   4.827  11.648  2.0278  0.1319 -1.4420
12363TIP3    H258505   1.157   4.713  11.549  0.8591 -0.8432 -0.2628
12364TIP3   OH258506   0.646   2.897  13.007 -0.2464 -0.1729 -0.5589
12364TIP3    H158507   0.596   2.975  13.031 -1.5533 -0.8138 -1.0615
12364TIP3    H258508   0.657   2.904  12.912 -1.4676 -1.1828 -0.7965
12365TIP3   OH258509   5.156   6.105  17.106 -0.7246 -0.3198 -0.0294
12365TIP3    H158510   5.155   6.010  17.092  1.2567 -0.2568 -1.0124
12365TIP3    H258511   5.080   6.137  17.058 -1.6983 -1.4340  0.7065
12366TIP3   OH258512   2.730   5.303  13.154 -0.1379  0.0646 -0.3249
12366TIP3    H158513   2.820   5.335  13.164  0.0028 -0.3047 -0.4022
12366TIP3    H258514   2.706   5.270  13.240  0.3628 -1.2782 -0.6814
12367TIP3   OH258515   1.055   3.136  13.877 -0.6366  0.3374 -0.1231
12367TIP3    H158516   0.965   3.135  13.911 -0.4926  0.4355  0.2665
12367TIP3    H258517   1.048   3.181  13.793 -1.2568 -1.3162 -1.0045
12368TIP3   OH258518   0.034   0.129  14.678 -0.5117  0.1325  0.0448
12368TIP3    H158519  -0.002   0.218  14.680  1.3184  0.9617 -1.0681
12368TIP3    H258520   0.004   0.093  14.595  0.9247  0.7179 -0.7474
12369TIP3   OH258521   6.493   2.321  16.967  0.1483  0.3141 -0.3819
12369TIP3    H158522   6.431   2.267  17.017 -0.5364  0.2119 -1.3089
12369TIP3    H258523   6.534   2.261  16.906  1.8909  0.1880  0.8221
12370TIP3   OH258524   0.233   3.699   4.552 -0.9060  0.0599 -0.5346
12370TIP3    H158525   0.254   3.610   4.581 -0.5812  0.4598  0.4976
12370TIP3    H258526   0.246   3.697   4.457 -2.0765 -1.3181 -0.7037
12371TIP3   OH258527   0.756   2.538  13.997  0.0539  0.0089 -0.1826
12371TIP3    H158528   0.833   2.493  13.962 -0.6160 -0.9685 -0.4407
12371TIP3    H258529   0.688   2.521  13.932 -0.4602  0.6097  0.1990
12372TIP3   OH258530   3.337   4.095  16.186 -0.1255 -0.3901  0.1653
12372TIP3    H158531   3.343   4.147  16.105  0.3220 -0.7526 -0.0360
12372TIP3    H258532   3.417   4.116  16.234 -0.6543  0.2702  0.7915
12373TIP3   OH258533   0.914   1.597  15.905  0.3113  0.0166 -0.5240
12373TIP3    H158534   0.938   1.525  15.846 -0.2548 -0.2618 -0.4239
12373TIP3    H258535   0.929   1.676  15.853 -0.6684 -0.2452 -1.2296
12374TIP3   OH258536   0.535   4.187   4.063 -0.2110 -0.2367 -0.6792
12374TIP3    H158537   0.588   4.136   4.123 -0.7002 -1.9262 -1.6305
12374TIP3    H258538   0.587   4.266   4.047  1.0789 -0.9243 -0.0241
12375TIP3   OH258539   5.096   2.443  12.111  0.1517  0.1758 -0.5146
12375TIP3    H158540   5.084   2.484  12.197 -0.2031 -2.8248  1.0014
12375TIP3    H258541   5.189   2.454  12.093  0.4944 -0.1586  0.8743
12376TIP3   OH258542   1.931   0.766  13.226 -0.5034 -0.2224  0.2260
12376TIP3    H158543   1.866   0.740  13.291  0.0512  0.9792  1.2849
12376TIP3    H258544   1.883   0.823  13.166 -1.0695 -1.5054 -0.5984
12377TIP3   OH258545   4.873   4.976   2.570  0.2971 -0.6266  0.1392
12377TIP3    H158546   4.839   5.000   2.656  0.4400  0.0081  0.0221
12377TIP3    H258547   4.807   5.008   2.508  0.2404 -0.9958  0.0097
12378TIP3   OH258548   0.305   0.817  13.624 -0.0736  0.4500 -0.1192
12378TIP3    H158549   0.388   0.832  13.670  0.7992  0.4337 -1.6276
12378TIP3    H258550   0.250   0.773  13.689  0.9526  0.7998  1.0421
12379TIP3   OH258551   4.259   5.717  15.683  0.0525  0.1123 -0.3219
12379TIP3    H158552   4.256   5.621  15.684  0.3806  0.0978 -0.4448
12379TIP3    H258553   4.178   5.744  15.640 -2.2802  0.0344  3.6263
12380TIP3   OH258554   0.279   3.570  14.309  0.0916  0.3395  0.3680
12380TIP3    H158555   0.285   3.662  14.334  0.2035  1.3417 -2.8628
12380TIP3    H258556   0.344   3.560  14.239  0.5829 -2.4048  1.1047
12381TIP3   OH258557   3.600   1.605   4.628  0.0390 -0.5261 -0.4427
12381TIP3    H158558   3.670   1.670   4.635 -0.0982 -0.2970 -1.1185
12381TIP3    H258559   3.639   1.524   4.660  0.5023 -0.3203 -0.4777
12382TIP3   OH258560   5.695   2.089   0.922  0.2179  0.2730 -0.0409
12382TIP3    H158561   5.680   2.011   0.974  0.3096  1.2413  1.5052
12382TIP3    H258562   5.610   2.108   0.882  0.3135 -0.8606 -0.8234
12383TIP3   OH258563   1.150   3.625   4.729  0.1422  0.5320 -0.3861
12383TIP3    H158564   1.163   3.534   4.701  3.0268  0.5781  0.4515
12383TIP3    H258565   1.105   3.667   4.656 -0.1097 -1.2787 -1.3179
12384TIP3   OH258566   3.309   4.291   6.050  0.0260 -0.3388 -0.4128
12384TIP3    H158567   3.330   4.198   6.055 -1.4698 -0.8279 -2.2807
12384TIP3    H258568   3.346   4.328   6.131  0.3025 -2.5969  0.5642
12385TIP3   OH258569   5.702   0.642   3.864 -0.4834  0.2675 -0.0848
12385TIP3    H158570   5.763   0.703   3.821  0.2315 -0.0634  0.4320
12385TIP3    H258571   5.644   0.613   3.795 -0.7290  1.4156 -0.3753
12386TIP3   OH258572   0.248   6.328   4.478 -0.8332  0.3621  0.4341
12386TIP3    H158573   0.200   6.404   4.446  0.8950  1.1071 -0.5015
12386TIP3    H258574   0.307   6.363   4.545  1.6332  0.3282 -1.5963
12387TIP3   OH258575   4.907   1.796  13.001 -0.3275  0.0790  0.0421
12387TIP3    H158576   4.906   1.868  13.064 -1.3588 -0.0566  0.2013
12387TIP3    H258577   4.994   1.799  12.963 -0.3974  1.4957 -0.0565
12388TIP3   OH258578   5.026   0.094  13.825  0.3319 -0.1155  0.4170
12388TIP3    H158579   5.024   0.189  13.818  0.3896 -0.1996 -0.9527
12388TIP3    H258580   5.082   0.065  13.753  0.1663 -1.1922  0.7006
12389TIP3   OH258581   0.830   3.956   5.645  0.3889  0.3858 -0.2301
12389TIP3    H158582   0.769   3.988   5.711 -0.9933 -0.2162 -1.1705
12389TIP3    H258583   0.872   4.035   5.611 -0.9883  0.9934 -0.6136
12390TIP3   OH258584   1.923   0.635  13.673  0.2022 -0.4825  0.5538
12390TIP3    H158585   1.857   0.571  13.646  0.9285 -1.1460  0.3259
12390TIP3    H258586   1.910   0.645  13.767 -0.3130 -0.5002  0.4873
12391TIP3   OH258587   5.010   3.565   5.880  0.1996 -0.0956  0.0316
12391TIP3    H158588   4.930   3.519   5.858 -0.2630  0.6286  0.1736
12391TIP3    H258589   4.987   3.620   5.955  0.1947  1.7943 -1.2864
12392TIP3   OH258590   1.429   1.752   4.681  0.4752 -0.2947  0.3779
12392TIP3    H158591   1.445   1.832   4.731  0.3629 -0.8394  1.3059
12392TIP3    H258592   1.334   1.738   4.687  0.4155 -0.2108 -0.2455
12393TIP3   OH258593   2.019   4.216   4.510  0.4668  0.2313 -0.4326
12393TIP3    H158594   2.007   4.170   4.427  1.8802 -1.0781  0.0429
12393TIP3    H258595   1.939   4.269   4.520 -1.0379 -1.7683 -1.2185
12394TIP3   OH258596   0.259   2.774  14.632 -0.2009 -0.0527 -0.1877
12394TIP3    H158597   0.236   2.694  14.678 -4.0732  0.3259 -1.1049
12394TIP3    H258598   0.208   2.842  14.676  2.2886  1.8542 -0.0070
12395TIP3   OH258599   6.016   6.581  12.190 -0.0122  0.3332  0.3007
12395TIP3    H158600   6.097   6.579  12.240 -0.0158 -1.2427  0.2863
12395TIP3    H258601   5.948   6.598  12.255 -0.0905 -2.2858  1.0419
12396TIP3   OH258602   5.925   4.633   2.514  0.3690 -0.4872 -0.0416
12396TIP3    H158603   5.932   4.571   2.586 -3.1921 -4.5649 -2.6843
12396TIP3    H258604   5.970   4.591   2.441 -0.1782  1.1456 -1.4028
12397TIP3   OH258605   3.618   3.541  15.193  0.0858 -0.0364 -0.0281
12397TIP3    H158606   3.681   3.588  15.139  0.4163 -0.3331  0.0981
12397TIP3    H258607   3.556   3.503  15.131  1.0041 -1.1836 -0.2856
12398TIP3   OH258608   3.202   1.022  15.763  0.0542 -0.2885  0.0855
12398TIP3    H158609   3.191   1.117  15.761 -1.0473 -0.3973 -2.1438
12398TIP3    H258610   3.114   0.988  15.780  0.2875 -0.9228  0.0440
12399TIP3   OH258611   6.008   2.627  14.149 -0.1023  0.0942  0.2048
12399TIP3    H158612   6.062   2.678  14.209 -0.4842  1.3548 -0.4736
12399TIP3    H258613   6.030   2.660  14.062 -0.6574 -0.6303 -0.2277
12400TIP3   OH258614   5.217   1.643   1.423 -0.1350  0.2971 -0.1181
12400TIP3    H158615   5.208   1.578   1.353 -2.0761  0.6885 -0.2840
12400TIP3    H258616   5.129   1.653   1.458  0.0504  2.9812 -0.2207
12401TIP3   OH258617   4.116   6.029  17.063  0.0227  0.1096 -0.1992
12401TIP3    H158618   4.059   5.954  17.047 -0.7588  0.8741 -1.1168
12401TIP3    H258619   4.142   6.059  16.976  0.8356  0.5247  0.1726
12402TIP3   OH258620   3.420   2.859   4.402  0.8077  0.3140 -0.1172
12402TIP3    H158621   3.503   2.851   4.354  1.1068 -1.4345  0.6319
12402TIP3    H258622   3.446   2.887   4.490  0.6370 -0.5213  0.2027
12403TIP3   OH258623   2.648   6.168  17.168  0.3113 -0.3903 -0.2767
12403TIP3    H158624   2.601   6.250  17.151  0.2869 -0.4903 -0.7017
12403TIP3    H258625   2.715   6.193  17.231 -0.0227 -0.1509 -0.0094
12404TIP3   OH258626   3.116   3.026   0.399 -0.1993 -0.1749  0.2047
12404TIP3    H158627   3.092   3.016   0.491 -0.0330  0.1462  0.2848
12404TIP3    H258628   3.185   3.093   0.400 -0.7985  0.4605 -0.2381
12405TIP3   OH258629   1.157   0.836   1.857 -0.1174 -0.2181  0.2603
12405TIP3    H158630   1.104   0.760   1.880 -0.2388  0.2450  1.5994
12405TIP3    H258631   1.208   0.808   1.782 -0.5768 -1.4321  0.3844
12406TIP3   OH258632   4.949   4.504   6.632  0.4970  0.0243 -0.1435
12406TIP3    H158633   4.894   4.454   6.572  0.3163  0.6930 -0.5406
12406TIP3    H258634   5.023   4.446   6.651  0.8738  0.0359 -1.4963
12407TIP3   OH258635   1.390   2.006   4.806 -0.3442 -0.4883  0.2634
12407TIP3    H158636   1.462   2.045   4.857 -0.8307 -1.2119  1.5637
12407TIP3    H258637   1.312   2.021   4.861 -0.8099 -1.7301 -0.0391
12408TIP3   OH258638   1.858   3.841   3.897  0.1452 -0.1192  0.1132
12408TIP3    H158639   1.870   3.935   3.911  0.7912 -0.2215  0.2712
12408TIP3    H258640   1.799   3.814   3.968 -0.2451  0.2062 -0.0811
12409TIP3   OH258641   5.989   0.090   4.727  0.6157 -0.3961  0.6148
12409TIP3    H158642   6.037   0.009   4.744  0.6257 -0.1714  1.8045
12409TIP3    H258643   6.004   0.108   4.635  0.0609 -2.0982  0.1562
12410TIP3   OH258644   0.463   0.880   4.331 -0.3580  0.0642 -0.3879
12410TIP3    H158645   0.504   0.922   4.406 -0.9538  0.9888 -0.5648
12410TIP3    H258646   0.531   0.822   4.296 -0.4917 -1.3818  1.6137
12411TIP3   OH258647   5.212   2.969  13.718  0.1702  1.3154  0.1538
12411TIP3    H158648   5.133   2.959  13.665  0.7426 -2.6382 -0.1994
12411TIP3    H258649   5.275   3.009  13.658  0.0624 -0.7656 -1.4584
12412TIP3   OH258650   1.092   6.215  12.746  0.1532  0.5185  0.1122
12412TIP3    H158651   1.109   6.272  12.672  1.7715 -0.7262 -0.5122
12412TIP3    H258652   0.997   6.221  12.760  0.1247  2.3632 -0.7062
12413TIP3   OH258653   5.839   6.319  10.611 -0.0304 -0.4152 -0.2459
12413TIP3    H158654   5.860   6.380  10.540  0.2036 -2.7805 -2.3920
12413TIP3    H258655   5.781   6.367  10.669  0.6177  1.9892 -1.4805
12414TIP3   OH258656   5.172   3.813  11.230 -0.4034 -0.4689 -0.1260
12414TIP3    H158657   5.171   3.797  11.325 -1.3740 -0.4189 -0.1267
12414TIP3    H258658   5.250   3.766  11.200 -0.4893 -1.1043  0.5899
12415TIP3   OH258659   5.012   1.506   5.971 -0.1290 -0.3390 -0.1063
12415TIP3    H158660   4.925   1.472   5.950 -0.2359 -0.6716  0.8322
12415TIP3    H258661   5.060   1.431   6.005  0.3102 -0.0079  0.0162
12416TIP3   OH258662   2.389   4.254   0.572 -0.1671  0.0643 -0.1612
12416TIP3    H158663   2.363   4.328   0.517  1.9295  1.9458  1.1798
12416TIP3    H258664   2.307   4.209   0.593 -1.4978  1.8438 -1.2500
12417TIP3   OH258665   2.385   3.998  15.361  0.0886  0.1399  0.0399
12417TIP3    H158666   2.443   4.071  15.382  0.1667  1.1176 -3.0680
12417TIP3    H258667   2.443   3.933  15.322 -0.0046 -1.6568  2.6277
12418TIP3   OH258668   5.776   4.192   1.359 -0.3967 -0.1531  0.2937
12418TIP3    H158669   5.760   4.277   1.400 -1.4162  0.3780 -1.1398
12418TIP3    H258670   5.863   4.201   1.318  0.3462 -0.4790  1.7170
12419TIP3   OH258671   4.254   1.598  13.422 -0.3461  0.5976 -0.3736
12419TIP3    H158672   4.244   1.550  13.340  0.3691  0.3937 -0.3444
12419TIP3    H258673   4.164   1.612  13.452 -0.5688 -1.1568 -0.1180
12420TIP3   OH258674   0.198   4.111  14.800 -0.9426 -0.3655  0.2888
12420TIP3    H158675   0.288   4.137  14.777 -0.5711 -1.6544  0.2058
12420TIP3    H258676   0.143   4.169  14.747 -0.2769  2.3802  2.3571
12421TIP3   OH258677   1.993   3.521  14.557  0.2207 -0.0490  0.5697
12421TIP3    H158678   2.004   3.427  14.572 -1.4789 -0.6226 -1.2942
12421TIP3    H258679   1.901   3.538  14.577  0.1037  0.8530 -0.6275
12422TIP3   OH258680   4.130   4.382   3.222 -0.5573  0.0833  0.0064
12422TIP3    H158681   4.145   4.315   3.290  1.1197 -1.7042 -1.9553
12422TIP3    H258682   4.216   4.392   3.180 -1.3528  1.7011 -1.3302
12423TIP3   OH258683   3.026   4.971   4.110  0.3012  0.6174 -0.0605
12423TIP3    H158684   3.067   4.977   4.024 -1.4924 -1.6475 -1.1565
12423TIP3    H258685   2.936   5.001   4.096  0.4835  2.0762  1.5049
12424TIP3   OH258686   1.154   2.604  12.043 -0.0661 -0.0911  0.0778
12424TIP3    H158687   1.093   2.583  12.113  1.2293  0.4899  1.4209
12424TIP3    H258688   1.176   2.519  12.005 -2.6963 -0.2477 -1.3957
12425TIP3   OH258689   2.965   0.034   5.468 -0.2040  0.5792  0.2465
12425TIP3    H158690   2.965   0.003   5.559 -0.7124  1.3699  0.5230
12425TIP3    H258691   2.987  -0.044   5.416  3.3815  0.7364  1.2440
12426TIP3   OH258692   5.012   0.212  16.864 -0.1715  0.8154 -0.4159
12426TIP3    H158693   5.061   0.280  16.911 -3.9691  1.7371  2.7899
12426TIP3    H258694   4.964   0.260  16.797  1.1734  0.3425 -1.7588
12427TIP3   OH258695   5.345   4.854  12.132  0.1314  0.1269 -0.1714
12427TIP3    H158696   5.439   4.870  12.140  0.1142  0.8194 -1.2301
12427TIP3    H258697   5.313   4.924  12.076 -0.8677 -0.6396 -0.5968
12428TIP3   OH258698   5.361   0.555   1.606 -0.4267 -0.3605 -0.7974
12428TIP3    H158699   5.353   0.627   1.669 -2.1607  0.5984 -2.0153
12428TIP3    H258700   5.329   0.478   1.652  0.1219 -0.0698  0.0852
12429TIP3   OH258701   3.513   2.147  17.094 -0.0593 -0.1776  0.5310
12429TIP3    H158702   3.470   2.222  17.135 -0.8450 -0.3013 -0.0327
12429TIP3    H258703   3.531   2.087  17.167  1.8276  1.1141  1.1889
12430TIP3   OH258704   5.948   4.635  12.078  0.2828  0.4580 -0.1985
12430TIP3    H158705   5.996   4.713  12.106  2.5427 -1.1298  0.6631
12430TIP3    H258706   5.857   4.663  12.073  0.5058  2.3529  3.2932
12431TIP3   OH258707   4.872   0.737   0.143 -0.2700 -0.0318 -0.0275
12431TIP3    H158708   4.826   0.701   0.219 -0.5784 -0.8334 -0.5851
12431TIP3    H258709   4.804   0.747   0.076 -0.0837  1.0804 -0.0751
12432TIP3   OH258710   3.451   5.553  13.004  0.1187 -0.5429 -0.0103
12432TIP3    H158711   3.379   5.591  13.055 -0.1201  1.5824 -1.7680
12432TIP3    H258712   3.410   5.483  12.953 -0.2230 -0.8425  0.6693
12433TIP3   OH258713   6.400   1.593   5.636 -0.2031  0.3198 -0.4273
12433TIP3    H158714   6.404   1.507   5.594 -1.0606  0.4605 -0.8226
12433TIP3    H258715   6.432   1.578   5.725  1.1823 -0.0777 -0.9654
12434TIP3   OH258716   0.476   1.171   6.324 -0.5490  1.0518 -0.1337
12434TIP3    H158717   0.505   1.122   6.248 -0.0040 -0.3418  0.9387
12434TIP3    H258718   0.412   1.114   6.367 -0.6347  1.6908  0.6102
12435TIP3   OH258719   0.435   3.786   5.363  0.4274 -0.2100  0.0063
12435TIP3    H158720   0.482   3.816   5.440 -0.3557 -2.0510  1.2754
12435TIP3    H258721   0.352   3.833   5.365  0.1174 -0.7686  0.7177
12436TIP3   OH258722   4.555   2.743  14.506 -0.8218  0.2158 -0.0576
12436TIP3    H158723   4.622   2.767  14.570  0.3544  1.7731 -1.7692
12436TIP3    H258724   4.475   2.735  14.558  0.7528 -2.6590  2.2048
12437TIP3   OH258725   4.350   1.442  11.958  0.1458  0.3869 -0.5327
12437TIP3    H158726   4.362   1.450  12.052 -0.8069  2.0047 -0.5094
12437TIP3    H258727   4.397   1.517  11.921  0.5234 -0.2323 -1.3588
12438TIP3   OH258728   0.340   6.643   0.217 -0.1063 -0.1374  0.1065
12438TIP3    H158729   0.294   6.632   0.134 -1.7046  0.4479  0.8674
12438TIP3    H258730   0.351   6.554   0.250 -0.5707 -0.2974 -0.1592
12439TIP3   OH258731   3.405   3.421  15.042  0.2857 -0.2611  0.0959
12439TIP3    H158732   3.327   3.473  15.061 -0.4536 -1.3132  0.0555
12439TIP3    H258733   3.412   3.421  14.947  0.1179 -0.4730  0.0834
12440TIP3   OH258734   0.411   6.324  14.777  0.6069 -0.5276  0.1013
12440TIP3    H158735   0.437   6.274  14.854 -0.7719 -0.0306  0.9227
12440TIP3    H258736   0.371   6.403  14.812  1.7022  0.6531 -1.1585
12441TIP3   OH258737   1.235   5.900  13.175  0.1402  0.3265  0.4403
12441TIP3    H158738   1.296   5.837  13.213  0.3374  0.7946  0.9117
12441TIP3    H258739   1.290   5.963  13.129 -0.1449 -0.8506 -1.6320
12442TIP3   OH258740   2.242   0.234   1.490  0.7836 -0.2502 -0.0174
12442TIP3    H158741   2.330   0.234   1.526  1.7010  0.9290 -2.0919
12442TIP3    H258742   2.252   0.199   1.401 -0.1501  3.3186 -1.6859
12443TIP3   OH258743   5.428   4.278   3.710  0.0035  0.8035  0.6585
12443TIP3    H158744   5.354   4.252   3.766  1.2185 -1.5355  1.2817
12443TIP3    H258745   5.501   4.288   3.770  0.5480  1.7180 -0.1327
12444TIP3   OH258746   4.901   2.579  15.665  0.4805  0.1761 -0.9816
12444TIP3    H158747   4.848   2.657  15.648  0.0625  0.0022 -0.5061
12444TIP3    H258748   4.944   2.560  15.581 -0.5491  0.0672 -1.5077
12445TIP3   OH258749   4.658   0.260   3.996 -0.4463  0.0731 -0.6389
12445TIP3    H158750   4.578   0.231   3.951 -0.4410 -0.2825 -0.4252
12445TIP3    H258751   4.705   0.179   4.015 -0.0601  0.2790 -0.7109
12446TIP3   OH258752   4.246   4.588   4.107 -0.5302  0.0044 -0.2232
12446TIP3    H158753   4.233   4.680   4.130  0.3843  0.2159 -0.4847
12446TIP3    H258754   4.341   4.576   4.110 -0.5661 -0.6754 -1.1404
12447TIP3   OH258755   5.714   2.651  16.334 -0.6994  0.1352  0.0533
12447TIP3    H158756   5.770   2.585  16.376 -2.3817 -0.5349  1.3429
12447TIP3    H258757   5.629   2.608  16.326 -1.0387  1.0895 -1.9779
12448TIP3   OH258758   3.480   1.643   6.149 -0.0602 -0.4693 -0.1674
12448TIP3    H158759   3.517   1.671   6.233 -1.3675  3.5865 -0.7222
12448TIP3    H258760   3.387   1.634   6.166 -0.5466  1.6678 -1.3255
12449TIP3   OH258761   5.221   6.132   2.655  0.1786 -0.5276 -0.0915
12449TIP3    H158762   5.264   6.215   2.633  0.3535  0.1568  2.4888
12449TIP3    H258763   5.128   6.152   2.649  0.1963  0.2332  1.4954
12450TIP3   OH258764   2.178   3.573   1.516  0.4973  0.2147  0.4287
12450TIP3    H158765   2.194   3.644   1.454  2.8288  0.8202  1.6049
12450TIP3    H258766   2.221   3.602   1.597 -0.1573 -1.7084  1.5211
12451TIP3   OH258767   0.604   6.240  15.010 -0.1656  0.4012  0.1489
12451TIP3    H158768   0.528   6.183  15.018 -0.9538  0.9062 -2.6119
12451TIP3    H258769   0.580   6.320  15.056 -0.3427 -0.2579  1.2469
12452TIP3   OH258770   5.550   0.100  11.506  0.0242 -0.1248 -0.1684
12452TIP3    H158771   5.563   0.181  11.555 -1.3428 -0.3248  0.5926
12452TIP3    H258772   5.622   0.044  11.532  0.1389  0.3092  0.4868
12453TIP3   OH258773   5.114   2.402   6.453  0.0875 -0.2530  0.7038
12453TIP3    H158774   5.060   2.438   6.523  2.6649 -0.3986  2.9409
12453TIP3    H258775   5.141   2.478   6.401 -0.1223  0.1279  1.1499
12454TIP3   OH258776   6.037   4.704  14.127 -0.0320  0.1668  0.4073
12454TIP3    H158777   6.005   4.770  14.065  1.5258  0.9205  0.3514
12454TIP3    H258778   5.969   4.699  14.194 -0.6381  1.1008 -0.1156
12455TIP3   OH258779   6.205   1.971   5.332 -0.0771 -0.5916  0.5143
12455TIP3    H158780   6.111   1.988   5.324 -0.0705 -0.0523  1.4473
12455TIP3    H258781   6.211   1.888   5.378 -0.1127  0.1037  1.8163
12456TIP3   OH258782   6.592   4.518  15.909  0.2854  0.1856 -0.1362
12456TIP3    H158783   6.641   4.549  15.985 -0.3848 -0.2045  0.4727
12456TIP3    H258784   6.657   4.508  15.840  1.4729 -2.2673  1.2150
12457TIP3   OH258785   5.063   2.513   1.012  0.0097  0.4475  0.1409
12457TIP3    H158786   5.124   2.524   0.938 -0.5319  1.3658 -0.1970
12457TIP3    H258787   5.026   2.426   1.000 -0.9689  1.0344 -1.4008
12458TIP3   OH258788   3.139   3.819  15.729  0.8518 -0.5008 -0.0190
12458TIP3    H158789   3.079   3.812  15.656  2.1426 -3.3050 -0.9466
12458TIP3    H258790   3.221   3.848  15.690  0.9594  0.2345  0.7178
12459TIP3   OH258791   5.102   5.331  15.299 -0.4965  0.0500  0.8720
12459TIP3    H158792   5.169   5.278  15.341 -1.4426 -1.7445  0.2671
12459TIP3    H258793   5.039   5.351  15.368 -1.5374 -2.0456  0.6381
12460TIP3   OH258794   2.545   3.898   1.839 -0.0808 -0.0027  0.0748
12460TIP3    H158795   2.534   3.865   1.928  1.0500  0.1137  0.2701
12460TIP3    H258796   2.581   3.986   1.850  0.6567 -0.2209 -0.4918
12461TIP3   OH258797   5.575   6.489   6.361 -0.5614 -0.1149 -0.5028
12461TIP3    H158798   5.644   6.437   6.402 -1.9835 -1.7911 -0.1348
12461TIP3    H258799   5.622   6.554   6.308  1.3218 -2.1672 -1.5128
12462TIP3   OH258800   6.715   2.566  15.281 -0.0602 -0.0264  0.8681
12462TIP3    H158801   6.701   2.660  15.270  0.1766  0.0589  1.2677
12462TIP3    H258802   6.648   2.525  15.227 -1.5894  0.3614  2.3827
12463TIP3   OH258803   3.321   2.816  16.526  0.3571 -0.1289  0.1443
12463TIP3    H158804   3.296   2.726  16.506 -1.4522  0.4674 -0.4022
12463TIP3    H258805   3.366   2.846  16.447 -0.7878  0.0587 -0.4520
12464TIP3   OH258806   0.379   5.219   3.642  0.0228 -0.0727  0.9826
12464TIP3    H158807   0.411   5.189   3.557 -0.3844 -0.6409  1.0256
12464TIP3    H258808   0.439   5.180   3.706 -0.2456 -0.4434  1.0116
12465TIP3   OH258809   0.848   5.188   0.666  0.3642 -0.3086 -0.0834
12465TIP3    H158810   0.891   5.236   0.595  0.0225 -0.2554 -0.2576
12465TIP3    H258811   0.913   5.183   0.736  0.6939 -0.3377 -0.3933
12466TIP3   OH258812   4.598   0.673   2.028  0.4173 -0.0187 -0.0035
12466TIP3    H158813   4.578   0.763   2.052  0.4116 -0.1502  0.4792
12466TIP3    H258814   4.515   0.637   1.997  0.3521  0.0428  0.1029
12467TIP3   OH258815   0.483   4.510  15.764  0.1459 -0.0518  0.0126
12467TIP3    H158816   0.393   4.493  15.790 -0.5544  2.8509 -0.1511
12467TIP3    H258817   0.525   4.542  15.843  0.5314  0.2993 -0.3286
12468TIP3   OH258818   0.547   6.652   2.070 -0.0146  0.2395  0.4132
12468TIP3    H158819   0.581   6.684   1.987  0.7749  0.8072  0.9414
12468TIP3    H258820   0.595   6.702   2.137  0.8805 -1.6537  1.2684
12469TIP3   OH258821   2.781   5.727   2.676 -0.3333 -0.0794  0.3227
12469TIP3    H158822   2.798   5.808   2.723 -0.5531 -0.0014  0.2656
12469TIP3    H258823   2.799   5.658   2.739 -3.9296  0.0271  1.6669
12470TIP3   OH258824   3.581   3.101   3.299 -0.2415 -0.5541  0.4184
12470TIP3    H158825   3.489   3.096   3.277 -0.1484 -0.5422  0.0284
12470TIP3    H258826   3.627   3.100   3.215  0.0546  0.9078  0.5279
12471TIP3   OH258827   0.554   2.907   0.055 -0.2891  0.2740 -0.1090
12471TIP3    H158828   0.462   2.898   0.083 -0.3857  0.3482 -0.4043
12471TIP3    H258829   0.564   3.001   0.036  0.0871  0.4192  0.7572
12472TIP3   OH258830   5.849   5.799  12.364 -0.2056  0.4373  0.0766
12472TIP3    H158831   5.815   5.769  12.280 -0.5742 -0.1712  0.4329
12472TIP3    H258832   5.788   5.867  12.393 -0.8609 -0.3039  0.4810
12473TIP3   OH258833   3.710   0.915   6.101 -0.4136 -0.5820  0.7630
12473TIP3    H158834   3.801   0.885   6.097 -0.2875 -0.2892  1.3672
12473TIP3    H258835   3.716   1.008   6.119 -0.7756  0.1082 -2.1534
12474TIP3   OH258836   4.105   5.721  11.864 -0.4792 -0.8519 -0.4051
12474TIP3    H158837   4.148   5.646  11.903  0.6502  0.1271  0.2915
12474TIP3    H258838   4.172   5.789  11.862 -1.0582 -0.2784 -2.3126
12475TIP3   OH258839   0.484   3.056   4.560 -0.4628 -0.0180  0.0142
12475TIP3    H158840   0.430   3.133   4.573  0.9650  1.1926 -0.8849
12475TIP3    H258841   0.467   3.028   4.471  0.6377  0.6102 -0.4123
12476TIP3   OH258842   6.495   4.091   1.884  0.3288 -0.1926 -0.1098
12476TIP3    H158843   6.558   4.021   1.866  0.4570 -0.5006  1.4306
12476TIP3    H258844   6.536   4.170   1.848 -0.1091 -0.9417 -2.4621
12477TIP3   OH258845   3.173   3.143   2.102 -0.2769 -0.3481  0.3830
12477TIP3    H158846   3.182   3.090   2.181 -0.4158 -0.8013  0.0991
12477TIP3    H258847   3.112   3.094   2.047 -0.0906 -0.0951 -0.0542
12478TIP3   OH258848   1.565   5.457   5.742 -0.3724  0.2717  0.0079
12478TIP3    H158849   1.610   5.538   5.720  0.4606 -0.3444 -0.6328
12478TIP3    H258850   1.507   5.480   5.815  0.3720  1.2705  0.3016
12479TIP3   OH258851   0.997   1.012   2.835  0.1110 -0.3675  0.3680
12479TIP3    H158852   1.048   1.091   2.816 -1.9474  1.3468  1.4603
12479TIP3    H258853   0.907   1.044   2.845 -0.6065 -2.6745  2.0913
12480TIP3   OH258854   3.361   4.411  12.137  0.6821  0.1319  0.9273
12480TIP3    H158855   3.293   4.383  12.198 -0.2819 -1.4328 -0.7475
12480TIP3    H258856   3.407   4.330  12.113  0.1241  0.4246 -1.4042
12481TIP3   OH258857   2.043   6.048   4.328 -0.1029  0.1043 -0.1670
12481TIP3    H158858   2.040   5.953   4.336 -0.7054  0.2306  1.4374
12481TIP3    H258859   1.980   6.080   4.393  0.3868  1.6097 -0.3857
12482TIP3   OH258860   2.515   0.106  10.631  0.3570  0.2332 -0.0795
12482TIP3    H158861   2.440   0.109  10.572  0.1099  2.9280  0.2578
12482TIP3    H258862   2.589   0.082  10.575  0.2497  3.2896 -1.7600
12483TIP3   OH258863   1.873   4.644  12.190 -0.2781  0.7830  0.2359
12483TIP3    H158864   1.833   4.579  12.248  0.4434 -0.3407 -0.4746
12483TIP3    H258865   1.968   4.634  12.205 -0.0644  0.2306 -1.3444
12484TIP3   OH258866   0.357   1.625  11.480  0.4776 -0.3206  0.3812
12484TIP3    H158867   0.441   1.614  11.435 -0.4205 -1.9892 -1.0338
12484TIP3    H258868   0.360   1.714  11.516  2.4664 -0.0134 -0.4252
12485TIP3   OH258869   5.718   4.448  11.945  0.0668  0.0303 -0.4155
12485TIP3    H158870   5.666   4.383  11.897  0.7930 -0.7680 -0.1588
12485TIP3    H258871   5.808   4.415  11.939  0.4798  1.1399 -0.4638
12486TIP3   OH258872   3.685   2.887   1.681 -0.5380  0.2979 -0.0484
12486TIP3    H158873   3.626   2.812   1.684 -0.6698  0.4263  1.4270
12486TIP3    H258874   3.687   2.920   1.771  0.0533  1.6512 -0.5223
12487TIP3   OH258875   2.804   5.705  16.586  0.0582  0.5708  0.0104
12487TIP3    H158876   2.829   5.626  16.634  0.8210  1.3253  0.8871
12487TIP3    H258877   2.722   5.733  16.627  0.4762  0.9669  0.5753
12488TIP3   OH258878   1.411   3.264   4.517 -0.5469  0.0044 -0.4211
12488TIP3    H158879   1.383   3.173   4.504 -0.8769  0.0251  0.1196
12488TIP3    H258880   1.485   3.258   4.577 -0.3532  0.0665 -0.6545
12489TIP3   OH258881   5.541   3.635   2.323  0.5364 -0.3331 -0.3027
12489TIP3    H158882   5.615   3.684   2.288  0.0560 -0.8433 -2.1552
12489TIP3    H258883   5.473   3.641   2.255 -0.2755 -1.8133  0.3115
12490TIP3   OH258884   0.949   1.514  11.016  0.4716  0.6909 -0.1210
12490TIP3    H158885   0.922   1.438  11.067 -1.6348  1.3742 -0.0872
12490TIP3    H258886   0.901   1.505  10.934  1.5773  1.0962 -0.8315
12491TIP3   OH258887   4.073   1.738  13.693  0.0250  0.4865 -0.0806
12491TIP3    H158888   4.050   1.784  13.774 -1.6526  0.5355 -0.5528
12491TIP3    H258889   4.146   1.788  13.656  0.4621  0.7665  1.1201
12492TIP3   OH258890   2.287   0.692   2.248  0.4051  0.2866 -0.4219
12492TIP3    H158891   2.235   0.700   2.167  2.9859 -0.1073 -2.2459
12492TIP3    H258892   2.369   0.737   2.228  1.3088 -0.2422  1.8346
12493TIP3   OH258893   0.251   0.148  10.342 -0.1489 -0.0456  0.1785
12493TIP3    H158894   0.311   0.075  10.326 -0.1325 -0.3013  1.2869
12493TIP3    H258895   0.294   0.224  10.302  0.0948 -0.5383 -0.5054
12494TIP3   OH258896   1.820   2.648   3.138 -0.2821 -0.5584 -0.3037
12494TIP3    H158897   1.745   2.685   3.093 -2.8008 -2.8249  1.6718
12494TIP3    H258898   1.792   2.639   3.229  2.3769 -1.5375  0.5263
12495TIP3   OH258899   4.909   1.028  12.876  0.1016  0.5666  0.0309
12495TIP3    H158900   4.834   1.083  12.896 -0.3872 -0.1867  0.3217
12495TIP3    H258901   4.871   0.952  12.832  0.7883  0.5738 -0.5908
12496TIP3   OH258902   3.058   5.409   0.564  0.3025 -0.3665  0.5053
12496TIP3    H158903   2.970   5.395   0.530  0.2324 -1.1373  0.9612
12496TIP3    H258904   3.102   5.324   0.552 -0.0763 -1.0570  3.3071
12497TIP3   OH258905   3.905   6.104   2.636 -0.0716 -0.1032  0.0190
12497TIP3    H158906   3.887   6.013   2.662 -1.1562  0.4454  1.3152
12497TIP3    H258907   3.955   6.096   2.554 -1.4604 -1.8304 -0.7269
12498TIP3   OH258908   4.956   1.301   0.325 -0.0260  0.0902 -0.1524
12498TIP3    H158909   4.963   1.279   0.232 -0.9482 -2.1258  0.2593
12498TIP3    H258910   5.047   1.306   0.355  0.2587 -1.1827 -0.7446
12499TIP3   OH258911   1.600   3.843  14.800 -0.2095  0.0707 -0.0815
12499TIP3    H158912   1.584   3.859  14.893 -0.4013  1.3788 -0.3143
12499TIP3    H258913   1.564   3.921  14.756 -0.4430 -0.6861 -1.2766
12500TIP3   OH258914   1.465   3.413  11.888 -0.0774  0.1208 -0.2661
12500TIP3    H158915   1.513   3.492  11.914 -2.7188  1.5221  0.8242
12500TIP3    H258916   1.413   3.390  11.965 -2.7030  0.0170 -1.9372
12501TIP3   OH258917   1.293   3.337   5.672  0.0937 -0.4795 -0.1079
12501TIP3    H158918   1.363   3.311   5.732 -0.9010 -0.1613  1.2589
12501TIP3    H258919   1.216   3.349   5.729 -0.3285  2.1644 -1.0961
12502TIP3   OH258920   0.443   1.726   1.396  0.6099 -0.4412 -0.0297
12502TIP3    H158921   0.456   1.811   1.438  1.8874 -1.8630  2.7435
12502TIP3    H258922   0.501   1.727   1.320  0.0430  1.3867 -0.4835
12503TIP3   OH258923   3.804   6.250  12.414 -0.0537  0.2104 -0.6197
12503TIP3    H158924   3.775   6.304  12.488 -1.9006 -0.3272 -0.8827
12503TIP3    H258925   3.790   6.305  12.337 -0.1844  0.0101 -0.7396
12504TIP3   OH258926   6.593   4.271  13.514 -0.3055  0.6286 -0.4747
12504TIP3    H158927   6.619   4.282  13.423 -0.2565  0.3753 -0.4929
12504TIP3    H258928   6.508   4.228  13.510  0.7073 -1.5302 -0.3908
12505TIP3   OH258929   5.378   1.536  17.014  0.0029 -0.2545  0.4728
12505TIP3    H158930   5.316   1.569  16.948 -1.4626 -2.9523  0.3450
12505TIP3    H258931   5.426   1.613  17.042  1.2901  1.0129 -4.2756
12506TIP3   OH258932   5.357   0.513  16.837  0.2360  0.0266 -0.3291
12506TIP3    H158933   5.358   0.608  16.823  0.1051 -0.2522 -2.6064
12506TIP3    H258934   5.307   0.478  16.763  1.1241 -1.8843 -0.0889
12507TIP3   OH258935   0.844   2.649   3.913  0.3706  0.2922  0.2947
12507TIP3    H158936   0.797   2.566   3.902 -0.0787  0.7031 -1.0640
12507TIP3    H258937   0.778   2.717   3.899  0.7799  0.8986  1.1976
12508TIP3   OH258938   2.481   6.130   4.524 -0.0787 -0.2494 -0.0496
12508TIP3    H158939   2.567   6.095   4.545 -0.1455 -0.1200  0.4429
12508TIP3    H258940   2.462   6.096   4.436 -0.1714 -1.4963  0.4442
12509TIP3   OH258941   6.023   3.809   1.647 -0.0950  0.1151  1.1070
12509TIP3    H158942   6.059   3.891   1.680 -0.4125  0.4202  0.7041
12509TIP3    H258943   5.969   3.775   1.718  1.0233 -0.3789  1.7480
12510TIP3   OH258944   5.868   2.515  13.307  0.2962 -0.1885  0.2749
12510TIP3    H158945   5.922   2.593  13.304  0.6197 -0.4013  0.4904
12510TIP3    H258946   5.779   2.547  13.322 -0.1002  0.3712 -2.5873
12511TIP3   OH258947   1.060   5.647   2.409  0.8100  0.3501  0.0027
12511TIP3    H158948   1.145   5.679   2.379 -0.5585  3.7173 -0.6734
12511TIP3    H258949   1.003   5.724   2.409 -2.5479 -1.8873 -0.5772
12512TIP3   OH258950   0.769   3.513   2.149 -0.1916  0.0527 -0.2514
12512TIP3    H158951   0.696   3.518   2.211 -0.7492 -0.9677 -0.7960
12512TIP3    H258952   0.772   3.420   2.124  0.3030  0.3764 -1.4243
12513TIP3   OH258953   2.643   3.309   3.246  0.4671  0.2746 -0.1049
12513TIP3    H158954   2.715   3.360   3.210  2.1572 -1.3781  0.7702
12513TIP3    H258955   2.632   3.343   3.335  0.0534  0.6102 -0.2793
12514TIP3   OH258956   1.735   4.731  13.734  0.3328  0.0097 -0.2705
12514TIP3    H158957   1.683   4.786  13.792  0.5390 -0.7872  0.7038
12514TIP3    H258958   1.826   4.756  13.752  0.3751  0.1972 -0.7199
12515TIP3   OH258959   3.046   4.437  15.550  0.4451 -0.5973  0.2214
12515TIP3    H158960   2.984   4.375  15.513  1.5621 -0.6825 -1.6140
12515TIP3    H258961   2.995   4.488  15.614 -1.3574 -1.0117 -0.8340
12516TIP3   OH258962   1.640   3.247   4.999 -0.3285 -0.3244  0.3823
12516TIP3    H158963   1.692   3.181   5.044  1.2640  2.0780  2.3793
12516TIP3    H258964   1.623   3.313   5.067 -1.8338  1.3005 -1.4676
12517TIP3   OH258965   4.802   2.162  15.910 -0.0637 -0.2446  0.3941
12517TIP3    H158966   4.865   2.172  15.840  0.2319 -0.4004  0.6357
12517TIP3    H258967   4.754   2.245  15.911  0.6236  0.1615  0.6819
12518TIP3   OH258968   6.305   3.094   5.656  0.1217 -0.2534  0.1684
12518TIP3    H158969   6.397   3.082   5.631 -0.8683 -2.0597 -3.1455
12518TIP3    H258970   6.281   3.012   5.698 -0.3433 -0.3201 -0.2281
12519TIP3   OH258971   6.469   5.629  15.533  0.0474 -0.2161  0.0074
12519TIP3    H158972   6.374   5.643  15.532  0.1494  0.5000 -0.4684
12519TIP3    H258973   6.500   5.667  15.451  0.4734 -2.6090 -1.0044
12520TIP3   OH258974   5.404   5.134  15.070  0.2470 -0.1867  0.2127
12520TIP3    H158975   5.404   5.206  15.007  2.1833  0.4269  0.8231
12520TIP3    H258976   5.396   5.055  15.017  2.2930  0.2902 -0.9295
12521TIP3   OH258977   6.054   3.637   1.051  0.6233  0.4327 -0.3447
12521TIP3    H158978   6.032   3.550   1.084 -0.6988  0.5684 -0.8275
12521TIP3    H258979   6.147   3.630   1.028  0.9512 -0.3717  1.0868
12522TIP3   OH258980   2.444   4.357  14.671  0.3775 -0.0280 -0.2388
12522TIP3    H158981   2.497   4.308  14.734 -1.4934 -1.1456  0.5544
12522TIP3    H258982   2.501   4.426  14.641  1.9700 -0.5963  1.2854
12523TIP3   OH258983   5.565   2.098  11.395 -0.1749 -0.0164 -0.0775
12523TIP3    H158984   5.576   2.010  11.430 -2.6494 -0.7118 -0.8433
12523TIP3    H258985   5.654   2.134  11.391  0.7388 -1.9254  1.5859
12524TIP3   OH258986   2.126   2.741   4.590  0.0379  0.6571 -0.2867
12524TIP3    H158987   2.059   2.809   4.584 -1.0635 -0.2048  1.4378
12524TIP3    H258988   2.206   2.784   4.560 -0.6997  2.6022  0.3694
12525TIP3   OH258989   5.792   4.074  15.270 -0.3423 -0.1194 -0.6168
12525TIP3    H158990   5.832   4.050  15.354 -0.9609 -2.6286 -0.9311
12525TIP3    H258991   5.866   4.082  15.210  0.2660  3.2660  0.3644
12526TIP3   OH258992   1.226   0.933  12.609  0.5353 -0.1312  0.7975
12526TIP3    H158993   1.192   1.005  12.556  1.1905  1.0667  1.9329
12526TIP3    H258994   1.284   0.885  12.551  1.3532  1.2424  0.4493
12527TIP3   OH258995   4.156   0.247  14.561 -0.0492  0.3981  0.0639
12527TIP3    H158996   4.131   0.247  14.468 -0.6107  2.7110  0.1433
12527TIP3    H258997   4.073   0.242  14.608  0.2038 -0.3046  0.4424
12528TIP3   OH258998   0.872   3.154   2.312 -0.1917 -0.2414 -0.1961
12528TIP3    H158999   0.795   3.105   2.338 -1.4888  1.0702 -1.3537
12528TIP3    H259000   0.946   3.096   2.330 -1.3780 -1.2846  1.5266
12529TIP3   OH259001   4.888   6.179  15.391 -0.1368 -0.1629  0.2136
12529TIP3    H159002   4.885   6.175  15.487 -2.7465  0.2826  0.2376
12529TIP3    H259003   4.952   6.247  15.372  1.1672 -0.9453  1.5850
12530TIP3   OH259004   5.636   0.887  16.023  0.0672  0.1281  0.0141
12530TIP3    H159005   5.694   0.925  15.957 -1.7527  0.4990 -1.4703
12530TIP3    H259006   5.681   0.808  16.052  1.2032  0.2613 -1.2627
12531TIP3   OH259007   1.622   2.112   4.167  0.0255  0.3804 -0.0325
12531TIP3    H159008   1.598   2.039   4.224  0.9286 -0.8318 -1.1390
12531TIP3    H259009   1.704   2.145   4.204 -1.2000  1.9796  1.4421
12532TIP3   OH259010   3.056   5.755  14.032 -0.7914 -0.8656 -0.0231
12532TIP3    H159011   3.016   5.760  14.119  1.3928 -2.9568  1.2286
12532TIP3    H259012   3.089   5.844  14.016 -1.2661 -0.4339  1.2626
12533TIP3   OH259013   3.125   4.288  14.333  0.5607 -0.7249  0.6124
12533TIP3    H159014   3.141   4.217  14.395  0.4020 -0.7098  0.6700
12533TIP3    H259015   3.192   4.353  14.354  0.5122 -0.7234  0.7616
12534TIP3   OH259016   4.451   4.267   4.465 -0.5804  0.4798  0.0274
12534TIP3    H159017   4.448   4.360   4.442  0.6795  0.7720  0.9012
12534TIP3    H259018   4.422   4.264   4.556  1.8533  0.4257  0.8903
12535TIP3   OH259019   1.386   2.191  12.707  0.1722  0.0232  0.3082
12535TIP3    H159020   1.443   2.134  12.759  0.3263 -0.2178 -0.1161
12535TIP3    H259021   1.345   2.249  12.771 -1.3699 -1.7204  1.0216
12536TIP3   OH259022   5.591   2.006   3.674  0.1904 -0.0840 -0.4062
12536TIP3    H159023   5.586   2.018   3.768 -0.2924 -1.6658 -0.2008
12536TIP3    H259024   5.553   1.920   3.659  1.3706 -0.3737 -1.9255
12537TIP3   OH259025   3.627   0.259   5.848  0.1075 -0.1881  0.3116
12537TIP3    H159026   3.657   0.195   5.912 -0.3792 -0.6069  0.1294
12537TIP3    H259027   3.600   0.334   5.900  2.8061  0.8070  0.4198
12538TIP3   OH259028   2.349   0.518  12.934 -0.2748 -0.2030  0.9755
12538TIP3    H159029   2.320   0.567  13.011 -0.2792  0.1381  0.7636
12538TIP3    H259030   2.272   0.517  12.877 -0.0862  0.0928  0.7096
12539TIP3   OH259031   5.715   2.732   0.138  0.3901  0.4185  0.5316
12539TIP3    H159032   5.779   2.798   0.165  0.2364  1.0512 -0.6041
12539TIP3    H259033   5.630   2.773   0.153  0.3006  0.6408 -0.5348
12540TIP3   OH259034   2.153   0.388  16.091  0.2446  0.3273  0.2726
12540TIP3    H159035   2.152   0.367  15.998  0.9212  0.8086  0.1442
12540TIP3    H259036   2.141   0.483  16.093  1.6167  0.5157  0.5918
12541TIP3   OH259037   2.957   4.811  17.044 -0.0654 -0.2093  0.3321
12541TIP3    H159038   2.868   4.845  17.035 -0.2012  1.1320  4.3665
12541TIP3    H259039   2.945   4.721  17.074  0.0389 -0.6291 -0.8391
12542TIP3   OH259040   3.629   2.226  15.870  0.1627  1.1609 -0.0834
12542TIP3    H159041   3.631   2.307  15.921 -0.4854  0.5743  0.9022
12542TIP3    H259042   3.657   2.158  15.930 -2.1030  0.2127  0.0114
12543TIP3   OH259043   5.523   1.028  14.478  0.8364 -0.7117  0.4173
12543TIP3    H159044   5.584   1.102  14.480  0.6134 -0.5318  1.5842
12543TIP3    H259045   5.445   1.062  14.434  0.7426 -0.2363  0.9232
12544TIP3   OH259046   2.969   1.140   1.542 -0.1597  0.1019  0.0739
12544TIP3    H159047   3.003   1.172   1.625 -0.0448  0.8287 -0.2496
12544TIP3    H259048   2.894   1.197   1.523 -0.8449 -0.7283  0.1971
12545TIP3   OH259049   4.051   1.680   5.023  0.6634  0.2290 -0.6371
12545TIP3    H159050   4.070   1.659   5.114  0.4674 -1.7300 -0.9939
12545TIP3    H259051   4.044   1.594   4.980 -0.1366  1.0843 -2.3049
12546TIP3   OH259052   2.183   2.077  13.717  0.2998 -0.2259 -0.1270
12546TIP3    H159053   2.169   2.099  13.809 -0.9037 -0.5716 -0.2171
12546TIP3    H259054   2.277   2.060  13.711  0.9728  2.6324  0.4263
12547TIP3   OH259055   6.002   6.374   3.246  0.0567 -0.9657 -0.6400
12547TIP3    H159056   6.095   6.380   3.222 -0.4694 -0.4858 -2.7325
12547TIP3    H259057   5.989   6.281   3.267  1.4154 -0.7123  1.7167
12548TIP3   OH259058   3.561   1.891  15.412  0.2129 -0.7374  0.2893
12548TIP3    H159059   3.583   1.946  15.336  2.7202 -0.1942  1.3073
12548TIP3    H259060   3.577   1.948  15.488 -0.1237 -1.9430  1.2950
12549TIP3   OH259061   4.494   6.297  13.214 -0.3525 -0.3810  0.5923
12549TIP3    H159062   4.576   6.253  13.193 -1.5436 -2.6686  0.4851
12549TIP3    H259063   4.468   6.339  13.132  1.4001  1.7025  1.0061
12550TIP3   OH259064   6.615   2.083  12.567 -0.0544 -0.5066 -0.0294
12550TIP3    H159065   6.662   2.161  12.539 -0.5171 -0.3970 -0.5202
12550TIP3    H259066   6.651   2.063  12.654 -0.0656  0.3685  0.1876
12551TIP3   OH259067   0.384   1.919   0.737 -0.1427 -0.0857 -1.0044
12551TIP3    H159068   0.413   1.836   0.776  0.1964 -0.1381 -1.3605
12551TIP3    H259069   0.386   1.981   0.809 -1.7303 -0.6863 -0.3961
12552TIP3   OH259070   6.700   5.217   2.332  0.2730 -0.3902 -0.0407
12552TIP3    H159071   6.790   5.231   2.303  0.2876 -0.7846 -0.1989
12552TIP3    H259072   6.675   5.298   2.375  0.4741 -0.0286 -0.5925
12553TIP3   OH259073   4.929   4.250  13.240  0.0319  0.0537  0.1191
12553TIP3    H159074   4.948   4.271  13.149  0.7294  2.3203  0.7107
12553TIP3    H259075   5.012   4.219  13.276  0.0934  0.3796  0.2686
12554TIP3   OH259076   2.434   5.566  13.626 -0.1028 -0.5660 -0.5790
12554TIP3    H159077   2.528   5.551  13.636 -0.1397  0.2511  1.4098
12554TIP3    H259078   2.428   5.637  13.561  0.6541 -0.6127 -0.7029
12555TIP3   OH259079   3.636   0.730   2.388  0.2134  0.6653  0.3626
12555TIP3    H159080   3.710   0.767   2.340 -0.4984  2.0879  0.2950
12555TIP3    H259081   3.670   0.717   2.477  0.7887  0.4688  0.1213
12556TIP3   OH259082   6.117   0.892  13.993  0.6902 -0.3635 -0.6667
12556TIP3    H159083   6.208   0.881  14.019  0.8988  0.3419 -1.0526
12556TIP3    H259084   6.098   0.816  13.938  0.3219 -1.7295  1.2469
12557TIP3   OH259085   4.835   0.942  16.445  0.4264 -0.3300  0.9609
12557TIP3    H159086   4.763   0.896  16.488 -0.0609 -0.9016 -0.4106
12557TIP3    H259087   4.914   0.904  16.483  0.0544 -2.6995 -0.4109
12558TIP3   OH259088   3.006   5.416   2.247  0.1056 -0.0485 -0.3956
12558TIP3    H159089   2.964   5.358   2.310  0.1076  0.3962  0.0173
12558TIP3    H259090   3.018   5.498   2.294  1.6031 -0.2186 -0.4498
12559TIP3   OH259091   3.013   0.431   2.524 -0.5857  0.2411 -0.8256
12559TIP3    H159092   3.096   0.458   2.562 -0.0703 -1.4879 -0.6439
12559TIP3    H259093   3.037   0.390   2.441 -1.5433  2.2901 -2.2216
12560TIP3   OH259094   0.744   5.007  12.352  0.4462 -0.4340  0.0909
12560TIP3    H159095   0.836   4.982  12.357  0.7648  0.7431  0.2834
12560TIP3    H259096   0.724   5.005  12.258  0.3452 -1.7462  0.1172
12561TIP3   OH259097   6.571   3.464   1.548 -0.1447 -0.0733  0.3264
12561TIP3    H159098   6.618   3.382   1.562  0.3152 -0.2279 -1.9018
12561TIP3    H259099   6.639   3.528   1.531 -0.6062  0.3383  0.0164
12562TIP3   OH259100   4.610   3.336  15.381  0.1206  0.4661 -0.2911
12562TIP3    H159101   4.564   3.409  15.422  0.0097  0.1728  0.1256
12562TIP3    H259102   4.578   3.259  15.428  1.5895  0.3246  0.5423
12563TIP3   OH259103   1.625   5.797  15.036  0.2313 -0.1528  0.0652
12563TIP3    H159104   1.720   5.806  15.049  0.0150  1.2355  0.9066
12563TIP3    H259105   1.616   5.779  14.942  1.3173  0.0066 -0.0903
12564TIP3   OH259106   5.784   2.022  11.960 -0.2399  0.3310  0.2782
12564TIP3    H159107   5.689   2.035  11.948 -0.2258 -0.0340 -0.2564
12564TIP3    H259108   5.824   2.067  11.886 -0.1896 -2.6310 -1.6340
12565TIP3   OH259109   4.373   3.303   1.909  0.2024 -0.0839  0.1399
12565TIP3    H159110   4.446   3.360   1.934  0.7356 -1.3697  1.6290
12565TIP3    H259111   4.308   3.363   1.872  1.4287  1.2612  0.0696
12566TIP3   OH259112   6.664   5.101   1.276 -0.2977 -0.1225 -0.2113
12566TIP3    H159113   6.734   5.155   1.312 -0.9912  1.8146 -1.6050
12566TIP3    H259114   6.692   5.011   1.294  1.4120  0.6482  1.2708
12567TIP3   OH259115   0.049   6.523  16.476 -0.0198  0.5803  0.2654
12567TIP3    H159116  -0.046   6.510  16.483 -0.6347  2.5853 -2.4723
12567TIP3    H259117   0.074   6.476  16.396  1.0600  1.0877  0.2885
12568TIP3   OH259118   3.326   5.036   6.192  0.5975  0.4035 -0.1775
12568TIP3    H159119   3.278   5.071   6.267 -1.5994  0.4387 -1.5284
12568TIP3    H259120   3.387   5.105   6.168  0.6705  0.7583  0.9763
12569TIP3   OH259121   6.155   4.603   1.793 -0.3927 -0.3706  0.6827
12569TIP3    H159122   6.235   4.626   1.841 -0.2049  2.8473 -0.9188
12569TIP3    H259123   6.108   4.685   1.784 -3.7777 -2.0809  1.1735
12570TIP3   OH259124   3.598   6.549  17.213  0.1200 -0.6178  0.3592
12570TIP3    H159125   3.690   6.576  17.214 -0.3631  1.1446  0.2552
12570TIP3    H259126   3.597   6.467  17.264  1.4658  0.3305  2.0286
12571TIP3   OH259127   1.131   4.872   1.697  0.1656  0.2197  0.1510
12571TIP3    H159128   1.092   4.952   1.731 -2.4635 -0.2221 -1.5677
12571TIP3    H259129   1.084   4.801   1.741  0.2091 -0.3450 -0.6840
12572TIP3   OH259130   3.225   1.559  13.924  0.1124  1.0340  0.3059
12572TIP3    H159131   3.310   1.554  13.881  0.2939  0.6683  0.6973
12572TIP3    H259132   3.176   1.623  13.874  0.0849  0.1274 -0.8599
12573TIP3   OH259133   0.159   1.934  14.653 -0.3806  0.2896 -0.1028
12573TIP3    H159134   0.224   1.976  14.710 -0.7390  1.0265 -0.2297
12573TIP3    H259135   0.081   1.987  14.662 -1.1666 -0.9220  0.4864
12574TIP3   OH259136   4.477   3.549   3.696 -0.3428  0.3185 -0.1199
12574TIP3    H159137   4.483   3.510   3.609 -0.3840  0.0975 -0.0247
12574TIP3    H259138   4.410   3.617   3.687 -0.6648  0.0011 -0.1525
12575TIP3   OH259139   2.328   6.520   3.296 -0.5218 -0.5610 -0.1568
12575TIP3    H159140   2.362   6.477   3.217 -0.7140 -0.0345 -0.5250
12575TIP3    H259141   2.352   6.460   3.367  0.9576 -0.3418 -0.4356
12576TIP3   OH259142   6.131   6.177  15.116  0.1884  0.1014 -0.5741
12576TIP3    H159143   6.065   6.117  15.152  0.0390 -0.0344 -1.0719
12576TIP3    H259144   6.214   6.146  15.152  0.1441 -0.5544 -1.0133
12577TIP3   OH259145   3.007   6.138  14.029 -0.6104 -0.4035  0.5800
12577TIP3    H159146   3.009   6.197  13.953 -1.0704  0.1438  0.9843
12577TIP3    H259147   3.080   6.077  14.014  0.8899  1.2214  0.8976
12578TIP3   OH259148   4.289   5.860   4.555 -0.1448  0.1831 -0.2804
12578TIP3    H159149   4.252   5.868   4.467 -0.3493  1.5188 -0.0878
12578TIP3    H259150   4.362   5.923   4.556  0.9441 -1.0364 -0.0343
12579TIP3   OH259151   1.907   2.300  15.790 -0.4118  0.3531 -0.4980
12579TIP3    H159152   1.840   2.280  15.855  0.2506 -1.0121 -0.1935
12579TIP3    H259153   1.983   2.247  15.816  1.0874  2.4338 -0.3763
12580TIP3   OH259154   4.206   2.717  14.443  0.2976  0.4922 -0.3499
12580TIP3    H159155   4.259   2.656  14.494 -1.1482 -0.6775 -0.1566
12580TIP3    H259156   4.240   2.709  14.354 -0.6287 -1.5939 -0.5836
12581TIP3   OH259157   4.188   4.790   5.276  0.0241  0.1337 -0.1802
12581TIP3    H159158   4.182   4.854   5.347 -1.4102 -1.3186  1.0965
12581TIP3    H259159   4.254   4.727   5.306  0.3602  0.1972 -0.7582
12582TIP3   OH259160   4.361   1.909   3.169 -0.0758 -0.3325  0.2350
12582TIP3    H159161   4.288   1.895   3.109  0.8443  0.0296 -1.0102
12582TIP3    H259162   4.328   1.974   3.232 -0.7091  0.0896 -0.5156
12583TIP3   OH259163   2.070   5.559   6.238 -0.7325  0.4510  0.1444
12583TIP3    H159164   2.118   5.620   6.293  0.3052 -1.2050  1.1503
12583TIP3    H259165   2.022   5.615   6.177  0.2686  2.2492  0.9227
12584TIP3   OH259166   5.024   5.832  13.579  0.2392 -0.2855 -0.0553
12584TIP3    H159167   5.076   5.878  13.514 -0.1618 -0.7728 -0.7322
12584TIP3    H259168   4.942   5.810  13.534 -1.2784  1.8394  1.4176
12585TIP3   OH259169   0.612   2.419  11.750 -0.2815  0.3041 -0.6957
12585TIP3    H159170   0.595   2.325  11.754 -0.1434  0.2751 -0.7807
12585TIP3    H259171   0.546   2.458  11.807 -0.3700  0.1592 -0.6993
12586TIP3   OH259172   0.094   3.709  14.943  0.1824  0.2075  0.0215
12586TIP3    H159173   0.112   3.684  14.852 -0.4465 -2.3788  0.5074
12586TIP3    H259174   0.042   3.788  14.937 -1.4263 -0.8993 -1.9936
12587TIP3   OH259175   6.255   0.260   1.639  0.0901  0.1194 -0.2320
12587TIP3    H159176   6.198   0.310   1.696 -1.1517  1.2447 -2.3415
12587TIP3    H259177   6.335   0.248   1.690 -0.1567  2.8619  0.9950
12588TIP3   OH259178   3.773   3.853   4.661 -0.2723 -0.5865  0.5220
12588TIP3    H159179   3.788   3.798   4.738 -1.4391 -0.5993  0.7537
12588TIP3    H259180   3.746   3.791   4.593 -1.2495 -0.3571  0.6861
12589TIP3   OH259181   3.594   2.152   5.266 -0.0674  0.0073  0.2398
12589TIP3    H159182   3.634   2.066   5.274 -1.7566 -0.8934 -0.6195
12589TIP3    H259183   3.551   2.151   5.181  0.4051  1.9494 -0.0796
12590TIP3   OH259184   1.802   4.471   4.865 -0.5465  0.1640  0.6821
12590TIP3    H159185   1.802   4.534   4.792 -0.8581  0.0966  0.6216
12590TIP3    H259186   1.719   4.424   4.856 -1.3477  1.2524  2.0306
12591TIP3   OH259187   5.970   2.119   2.769 -0.3524  0.6765  0.6240
12591TIP3    H159188   6.010   2.192   2.817 -0.1274  1.4732 -0.7024
12591TIP3    H259189   5.935   2.160   2.689 -1.4539 -0.4526  0.4980
12592TIP3   OH259190   5.991   0.159  14.803  0.3575 -0.1876  0.6576
12592TIP3    H159191   5.900   0.155  14.834  0.6488 -0.6530  1.5002
12592TIP3    H259192   6.001   0.081  14.748  0.8246 -1.2999  2.2622
12593TIP3   OH259193   0.859   5.374   5.800 -0.0702  0.3140  0.2227
12593TIP3    H159194   0.930   5.326   5.843  2.4719  0.5015 -3.3341
12593TIP3    H259195   0.794   5.307   5.779  1.2490 -0.7670 -0.5434
12594TIP3   OH259196   1.812   6.485  16.945 -0.4322  0.4367  0.2427
12594TIP3    H159197   1.734   6.453  16.991 -0.7225 -0.9095 -1.1052
12594TIP3    H259198   1.779   6.539  16.874 -0.1503  0.0052 -0.2287
12595TIP3   OH259199   2.611   0.649   4.943 -0.2555  0.0371  0.5902
12595TIP3    H159200   2.661   0.590   4.887 -0.0431  0.1731  0.6343
12595TIP3    H259201   2.676   0.710   4.978 -0.7673  1.7393 -1.2296
12596TIP3   OH259202   6.289   4.745   2.114  0.1202  0.1305  0.5467
12596TIP3    H159203   6.327   4.809   2.054 -0.6645  1.2644  1.2266
12596TIP3    H259204   6.318   4.660   2.080  1.6134  0.8571 -0.0712
12597TIP3   OH259205   0.599   5.240  12.386 -0.2466 -0.4434  0.2593
12597TIP3    H159206   0.558   5.237  12.300  0.6225 -0.4350 -0.1642
12597TIP3    H259207   0.668   5.174  12.383  0.2217  0.0107  0.7179
12598TIP3   OH259208   4.393   1.471  10.675  0.8983 -0.5723 -0.2939
12598TIP3    H159209   4.377   1.379  10.697 -0.5000 -0.2897 -0.0162
12598TIP3    H259210   4.388   1.516  10.760  1.2693 -0.2033 -0.4671
12599TIP3   OH259211   4.649   1.254   0.840  0.1446  0.0148 -0.3303
12599TIP3    H159212   4.652   1.321   0.771 -0.5882  1.5941  1.0865
12599TIP3    H259213   4.555   1.246   0.860  0.3732 -0.1552  0.7015
12600TIP3   OH259214   4.591   0.981   0.308 -0.0830 -0.6694  0.2731
12600TIP3    H159215   4.651   0.908   0.322 -1.0586 -0.9332  4.0417
12600TIP3    H259216   4.622   1.049   0.368 -2.3184 -0.0609  0.8187
12601TIP3   OH259217   5.736   5.987  11.792 -0.5816 -0.2498 -0.5531
12601TIP3    H159218   5.645   6.013  11.804 -0.4077 -0.3244  1.0671
12601TIP3    H259219   5.742   5.900  11.831 -0.1497 -0.9389 -2.0570
12602TIP3   OH259220   4.231   2.992  16.251  0.3334  0.0242  0.8284
12602TIP3    H159221   4.203   2.924  16.312 -0.8829  0.7206  1.1002
12602TIP3    H259222   4.187   3.071  16.283 -1.0029  0.2527 -1.4097
12603TIP3   OH259223   3.338   6.468   1.346 -0.2774  0.1254  0.0030
12603TIP3    H159224   3.255   6.432   1.378 -0.2408  0.3420  0.3546
12603TIP3    H259225   3.405   6.415   1.389 -0.2301  0.1835 -0.0003
12604TIP3   OH259226   5.247   2.776   5.853 -0.8167 -0.0699 -0.3096
12604TIP3    H159227   5.327   2.824   5.873 -0.6664  0.6699 -2.4395
12604TIP3    H259228   5.269   2.685   5.870 -0.7427  0.3994  2.6818
12605TIP3   OH259229   1.100   1.700  16.182  0.1672 -0.1400 -0.6477
12605TIP3    H159230   1.163   1.647  16.133  2.8380  2.3298 -0.1394
12605TIP3    H259231   1.102   1.786  16.140 -2.8487  0.1225 -0.4932
12606TIP3   OH259232   3.492   1.128   1.636  0.3760 -0.1913 -0.0541
12606TIP3    H159233   3.416   1.091   1.680 -1.0800 -0.3245 -2.4895
12606TIP3    H259234   3.527   1.057   1.583  0.0840  0.7502 -1.5797
12607TIP3   OH259235   4.575   4.938  15.043  0.3333  0.0430  0.4844
12607TIP3    H159236   4.530   4.922  14.961 -1.2219 -0.6020  1.4164
12607TIP3    H259237   4.544   5.024  15.072  0.4500  0.0236  0.6741
12608TIP3   OH259238   6.564   0.706   5.839 -0.1879 -0.1853 -0.3984
12608TIP3    H159239   6.498   0.640   5.859 -0.6170  0.2700 -0.2754
12608TIP3    H259240   6.642   0.656   5.816 -0.1865 -0.7249  0.7370
12609TIP3   OH259241   0.156   5.407  15.229 -0.5237  0.1024 -0.7059
12609TIP3    H159242   0.178   5.315  15.239 -0.5741 -0.0244 -1.6776
12609TIP3    H259243   0.115   5.431  15.312  1.5946 -0.1227  0.4998
12610TIP3   OH259244   1.909   4.940   3.189 -0.0475  0.2648 -0.0715
12610TIP3    H159245   1.918   4.854   3.149 -1.4965 -0.6673  1.5272
12610TIP3    H259246   1.889   4.923   3.281 -0.0470  2.3127  0.3559
12611TIP3   OH259247   2.636   2.884  14.592 -0.2231 -0.2795  0.6018
12611TIP3    H159248   2.560   2.937  14.568 -1.1050 -2.1843 -1.1929
12611TIP3    H259249   2.711   2.933  14.559 -0.9583  0.1111 -0.5757
12612TIP3   OH259250   5.231   6.311  13.961 -0.5723 -0.4179 -0.1844
12612TIP3    H159251   5.182   6.263  13.894 -1.5055 -0.9462  0.8420
12612TIP3    H259252   5.175   6.309  14.038  1.2021 -1.3967  1.1854
12613TIP3   OH259253   3.989   0.453  14.197 -0.2749 -0.0276  0.2046
12613TIP3    H159254   4.078   0.483  14.216  0.8819 -2.0672 -1.6148
12613TIP3    H259255   3.998   0.397  14.120 -3.1479 -0.3358 -0.0062
12614TIP3   OH259256   1.549   2.997  16.867 -0.2061 -0.2958 -0.1505
12614TIP3    H159257   1.605   2.972  16.940 -0.8510 -0.9547  0.1321
12614TIP3    H259258   1.598   3.065  16.821  1.5635 -1.9675 -0.8710
12615TIP3   OH259259   5.002   5.108   4.650  0.5345 -0.1931  0.0363
12615TIP3    H159260   5.062   5.146   4.714  0.5828  0.0096 -0.1269
12615TIP3    H259261   5.024   5.015   4.649 -0.6745 -0.5445  1.6354
12616TIP3   OH259262   1.093   5.942   3.203  0.0164  0.2421 -0.5284
12616TIP3    H159263   1.064   5.853   3.184  1.0064 -0.7840  2.2654
12616TIP3    H259264   1.039   5.970   3.277  1.5042  0.8784  0.3821
12617TIP3   OH259265   5.309   5.197   2.809  0.4658 -0.0821  0.2124
12617TIP3    H159266   5.229   5.169   2.763  1.0363 -0.9987 -0.2680
12617TIP3    H259267   5.371   5.216   2.738  1.1896 -0.9865  0.5903
12618TIP3   OH259268   1.455   0.472  13.828 -0.1451  0.2693  0.9849
12618TIP3    H159269   1.426   0.526  13.901 -3.6912  1.0004 -0.7276
12618TIP3    H259270   1.409   0.389  13.839 -1.2606  0.6187 -0.6706
12619TIP3   OH259271   4.376   5.094  15.729 -0.6571  0.1874  0.2378
12619TIP3    H159272   4.316   5.086  15.803 -0.8622  0.4544  0.1024
12619TIP3    H259273   4.426   5.012  15.730  0.2606  0.7331  1.4676
12620TIP3   OH259274   4.228   5.436   5.022 -0.1258  0.2653  0.4046
12620TIP3    H159275   4.173   5.369   5.062  0.6284 -0.4901  0.2122
12620TIP3    H259276   4.303   5.387   4.987  1.2596  1.3897  1.7005
12621TIP3   OH259277   2.716   6.434  12.539  0.0060 -0.0044 -0.0738
12621TIP3    H159278   2.640   6.380  12.515  0.0914 -0.2264  0.1481
12621TIP3    H259279   2.682   6.523  12.545 -0.0489  0.0361 -0.8756
12622TIP3   OH259280   4.691   4.783  16.564  0.9145 -0.2527 -0.0869
12622TIP3    H159281   4.621   4.723  16.589  0.9426 -1.0549 -1.7876
12622TIP3    H259282   4.663   4.819  16.480  0.7737  2.3615  0.9836
12623TIP3   OH259283   2.199   5.508  12.151  0.1826 -0.6865 -0.7807
12623TIP3    H159284   2.209   5.580  12.089 -0.1782 -1.1354 -1.3700
12623TIP3    H259285   2.216   5.429  12.100  1.6113 -0.9818  0.0976
12624TIP3   OH259286   2.735   1.567  11.285  0.2034  0.4207  0.6091
12624TIP3    H159287   2.717   1.632  11.353  2.3723  1.0622  0.6473
12624TIP3    H259288   2.756   1.487  11.333  3.5009  1.3268  0.8905
12625TIP3   OH259289   6.427   5.916   0.301 -0.2268 -0.0682  0.3227
12625TIP3    H159290   6.453   5.841   0.355 -2.0343 -0.1868  1.1011
12625TIP3    H259291   6.432   5.883   0.211  2.3724 -0.0092  0.3931
12626TIP3   OH259292   5.045   5.809   4.289  0.4337  0.0880 -0.1206
12626TIP3    H159293   5.031   5.863   4.366  2.0403  1.0534 -0.4542
12626TIP3    H259294   4.965   5.758   4.280  1.1087 -1.9787  3.6592
12627TIP3   OH259295   0.528   1.042   5.359 -0.8986 -0.1703  1.0592
12627TIP3    H159296   0.521   0.958   5.406 -0.0256 -0.9835 -0.2115
12627TIP3    H259297   0.588   1.094   5.413  0.7445 -1.3859  0.5019
12628TIP3   OH259298   6.497   0.240   3.647  0.2633 -0.9561  0.3839
12628TIP3    H159299   6.554   0.176   3.690 -0.6884 -1.1489  1.4072
12628TIP3    H259300   6.410   0.220   3.680 -0.1142  0.6139  0.3997
12629TIP3   OH259301   0.204   3.137   4.439  0.1256  0.1122 -0.1206
12629TIP3    H159302   0.211   3.185   4.522 -2.0677  0.3194  0.0010
12629TIP3    H259303   0.201   3.206   4.372  1.7639 -0.0512 -0.4118
12630TIP3   OH259304   6.290   3.793  15.255 -0.1762  0.2261  0.2384
12630TIP3    H159305   6.368   3.782  15.200  0.4376 -2.4564  1.4654
12630TIP3    H259306   6.238   3.859  15.209  2.3867  1.4918 -1.0813
12631TIP3   OH259307   1.480   3.147   2.179 -0.8536  0.3195 -0.2197
12631TIP3    H159308   1.478   3.053   2.164 -0.3947  0.4841 -1.3961
12631TIP3    H259309   1.542   3.181   2.115 -1.1938  1.4575  0.0234
12632TIP3   OH259310   4.956   3.391   4.428 -0.4019  0.4003 -0.5574
12632TIP3    H159311   4.945   3.442   4.509 -3.0416 -0.3451 -0.3633
12632TIP3    H259312   5.050   3.375   4.423 -0.2922 -2.6006  4.3888
12633TIP3   OH259313   1.361   4.316  17.017 -0.0443 -0.2923  0.1756
12633TIP3    H159314   1.272   4.320  16.981 -0.7889 -0.6365  1.8907
12633TIP3    H259315   1.374   4.223  17.037  0.2939 -0.0896  0.9106
12634TIP3   OH259316   0.903   1.794   1.937  0.3579  0.0214 -0.1159
12634TIP3    H159317   0.953   1.720   1.904 -0.3775 -0.1861 -0.8114
12634TIP3    H259318   0.961   1.837   1.999  1.5131 -0.0421 -1.1069
12635TIP3   OH259319   0.371   2.604   0.888  0.1997  0.0940  0.3806
12635TIP3    H159320   0.357   2.683   0.836 -0.2503  0.2256  0.6911
12635TIP3    H259321   0.434   2.630   0.955  1.5662 -0.3536 -0.7020
12636TIP3   OH259322   2.849   0.706   5.753  0.3994 -0.2293  0.2911
12636TIP3    H159323   2.784   0.775   5.766  0.4904 -0.1929  0.5628
12636TIP3    H259324   2.926   0.751   5.718 -0.0627 -0.4179 -1.0334
12637TIP3   OH259325   3.641   0.754   6.662 -0.3420 -0.4620  0.9003
12637TIP3    H159326   3.640   0.769   6.568 -0.5949 -0.0061  0.9760
12637TIP3    H259327   3.549   0.748   6.686 -0.2672 -1.2926  1.0076
12638TIP3   OH259328   6.758   3.733  12.400  0.0643 -0.4627  0.3320
12638TIP3    H159329   6.752   3.638  12.415 -0.2497 -0.6689 -0.9185
12638TIP3    H259330   6.769   3.771  12.487  0.1753 -1.6492  0.8581
12639TIP3   OH259331   4.990   3.666   5.090 -0.0215  0.9763  0.0885
12639TIP3    H159332   4.986   3.667   5.186  0.8070  0.0404  0.1548
12639TIP3    H259333   5.084   3.666   5.070 -0.1490 -0.4489 -0.6731
12640TIP3   OH259334   1.594   6.031  14.086 -0.8580  0.4597  0.3393
12640TIP3    H159335   1.521   5.981  14.051 -0.7857 -0.6780  1.7361
12640TIP3    H259336   1.592   6.114  14.038 -2.3335 -0.0125 -0.4579
12641TIP3   OH259337   1.009   5.975  15.364  0.2368 -0.0655 -0.2843
12641TIP3    H159338   1.093   6.017  15.385  0.4745 -0.7083  0.0826
12641TIP3    H259339   1.031   5.911  15.296 -0.1966  0.6807 -1.1470
12642TIP3   OH259340   5.557   4.794  14.334  0.4142  0.3317 -0.7095
12642TIP3    H159341   5.493   4.841  14.280  2.6130  0.6289 -3.2783
12642TIP3    H259342   5.507   4.723  14.374 -1.2111 -0.8364 -4.3609
12643TIP3   OH259343   0.220   2.399  16.430 -0.4581 -0.1354  0.3439
12643TIP3    H159344   0.170   2.319  16.446 -1.3804  0.2152 -0.7154
12643TIP3    H259345   0.159   2.458  16.386  0.5974  0.6849 -0.0693
12644TIP3   OH259346   3.603   5.987   6.340  0.6888 -0.2079 -0.2368
12644TIP3    H159347   3.523   6.038   6.330 -0.7389 -2.0478  1.2149
12644TIP3    H259348   3.635   6.011   6.428  2.0035  0.7815 -0.9310
12645TIP3   OH259349   4.351   4.113   0.478 -0.2148 -0.5489  0.2516
12645TIP3    H159350   4.267   4.069   0.489 -0.1381 -0.8572 -0.3113
12645TIP3    H259351   4.337   4.201   0.512 -1.2999 -0.0302 -1.4070
12646TIP3   OH259352   5.007   4.803  14.934  0.0624 -0.5035 -0.8703
12646TIP3    H159353   4.946   4.840  14.999 -0.8850 -2.6388 -0.4638
12646TIP3    H259354   5.011   4.870  14.865 -2.0967  0.0895 -0.5147
12647TIP3   OH259355   5.433   4.640   5.417  0.0957  0.1220  0.1810
12647TIP3    H159356   5.343   4.644   5.385 -0.1239 -1.3489  0.5544
12647TIP3    H259357   5.432   4.688   5.500 -0.5443 -0.5964  0.5981
12648TIP3   OH259358   3.365   1.438  13.527  0.0031  0.3662  0.4797
12648TIP3    H159359   3.446   1.437  13.477  0.1517 -1.2890  0.6729
12648TIP3    H259360   3.387   1.390  13.608 -0.5916  1.7794  1.5136
12649TIP3   OH259361   1.898   4.225  14.699 -0.0982  0.5643  0.0146
12649TIP3    H159362   1.935   4.255  14.617  0.4874  0.9855  0.4293
12649TIP3    H259363   1.816   4.181  14.674  0.2891  0.3102 -0.8243
12650TIP3   OH259364   2.844   2.703  15.989 -0.9132  0.5698  0.2951
12650TIP3    H159365   2.786   2.630  16.009  2.1921 -2.3105 -0.4059
12650TIP3    H259366   2.862   2.695  15.895  1.2819  0.7342  0.6461
12651TIP3   OH259367   1.011   1.592   0.799  0.2017  0.2426 -0.1827
12651TIP3    H159368   0.925   1.551   0.799  0.6367 -0.7796  1.6802
12651TIP3    H259369   0.998   1.675   0.845 -0.0962  0.8887 -1.3941
12652TIP3   OH259370   3.186   2.218   3.714  0.1935 -0.5712 -0.2482
12652TIP3    H159371   3.167   2.235   3.806 -0.3897 -0.6242 -0.3508
12652TIP3    H259372   3.254   2.150   3.715 -1.2929 -2.1402  0.1626
12653TIP3   OH259373   2.204   2.469  14.982  0.0113 -0.2766  0.0776
12653TIP3    H159374   2.158   2.487  14.901 -1.6958 -1.4719  0.7270
12653TIP3    H259375   2.257   2.391  14.963 -0.0330 -0.2866 -0.0047
12654TIP3   OH259376   4.469   3.402  13.946  0.1776  0.2240 -0.1847
12654TIP3    H159377   4.541   3.465  13.940  0.5889 -0.2841 -0.5856
12654TIP3    H259378   4.498   3.338  14.011  0.3629 -0.3399 -0.8173
12655TIP3   OH259379   0.159   0.009  16.159 -0.2628 -0.3613 -0.0677
12655TIP3    H159380   0.119  -0.076  16.141  0.3925 -0.7013  0.0270
12655TIP3    H259381   0.237   0.011  16.103 -0.9678  0.7447 -1.0628
12656TIP3   OH259382   0.190   0.987  11.482  0.7789  0.5456 -0.1224
12656TIP3    H159383   0.236   0.995  11.566  0.4621  3.8548 -0.1350
12656TIP3    H259384   0.098   0.977  11.506  0.7739  0.7079 -0.0733
12657TIP3   OH259385   5.225   4.648   3.036 -0.2175 -0.5000  0.5561
12657TIP3    H159386   5.177   4.661   2.954 -1.8246  0.0994  1.5437
12657TIP3    H259387   5.158   4.652   3.104  1.4967  3.6743  2.3349
12658TIP3   OH259388   5.393   3.897   4.446  0.4654 -0.1546 -0.1156
12658TIP3    H159389   5.477   3.928   4.480 -0.2129  1.2890  0.3299
12658TIP3    H259390   5.411   3.869   4.357  1.5501 -0.5244  0.2053
12659TIP3   OH259391   4.129   6.255  13.548  0.9120 -0.6562 -0.2069
12659TIP3    H159392   4.145   6.163  13.532 -3.4025 -1.6214 -0.3040
12659TIP3    H259393   4.091   6.288  13.467 -0.8428  0.1984  0.8927
12660TIP3   OH259394   5.586   1.387  11.789  0.0700  0.1608  0.3693
12660TIP3    H159395   5.644   1.424  11.722  0.2972 -2.0175 -0.7404
12660TIP3    H259396   5.505   1.437  11.781  0.2773  0.3039 -1.2085
12661TIP3   OH259397   6.426   4.258   5.691 -0.2943 -0.3607 -0.0935
12661TIP3    H159398   6.508   4.228   5.652  0.4840  0.8318  0.5749
12661TIP3    H259399   6.426   4.220   5.779  0.4082  1.0467  0.5405
12662TIP3   OH259400   0.202   1.994  16.716  0.3926 -0.0949 -0.3015
12662TIP3    H159401   0.164   2.021  16.799 -0.5798 -0.9188 -0.4582
12662TIP3    H259402   0.225   1.902  16.728  0.1838 -0.2399 -0.9583
12663TIP3   OH259403   3.590   1.627   1.572  0.2944  0.4984  0.1630
12663TIP3    H159404   3.603   1.630   1.667  0.4978 -3.6927  0.4316
12663TIP3    H259405   3.671   1.589   1.538  0.8026  3.1952 -1.9853
12664TIP3   OH259406   2.342   2.643   3.960  0.2220  0.0006  0.7046
12664TIP3    H159407   2.314   2.735   3.963  2.5578  0.7897  0.8106
12664TIP3    H259408   2.378   2.632   3.872 -0.1083 -0.8639  0.6664
12665TIP3   OH259409   1.070   3.275  11.818  0.4572  0.3501 -0.6274
12665TIP3    H159410   1.114   3.359  11.831 -0.1357  0.8001 -1.4623
12665TIP3    H259411   1.051   3.244  11.907  0.2244  1.3461 -0.3205
12666TIP3   OH259412   0.842   4.773  16.582  0.0259 -0.5675  0.5188
12666TIP3    H159413   0.936   4.753  16.577  0.0208 -0.6696  0.8357
12666TIP3    H259414   0.828   4.839  16.513 -0.2981 -2.9309 -1.8352
12667TIP3   OH259415   2.738   3.673   2.923  0.3785  0.6262  0.4414
12667TIP3    H159416   2.711   3.631   2.841  0.5540  2.0524 -0.3788
12667TIP3    H259417   2.667   3.653   2.984  0.7609 -1.3977  0.3064
12668TIP3   OH259418   0.973   3.634   2.358 -0.0881  0.4120 -0.4155
12668TIP3    H159419   0.912   3.592   2.297 -1.4633  1.7356 -0.0172
12668TIP3    H259420   1.055   3.641   2.309 -0.9661  0.8395 -1.8912
12669TIP3   OH259421   6.704   3.712   0.788 -0.3202 -0.0308 -0.4185
12669TIP3    H159422   6.760   3.637   0.810  0.3165  0.6118  0.1883
12669TIP3    H259423   6.763   3.787   0.791 -1.1352  0.6013 -0.1840
12670TIP3   OH259424   4.250   1.116  13.844 -0.1771 -0.4065 -0.3698
12670TIP3    H159425   4.277   1.130  13.754 -0.8433  1.6117 -0.2980
12670TIP3    H259426   4.310   1.169  13.896 -0.5306 -0.6178  0.2677
12671TIP3   OH259427   3.014   1.727  16.415  0.3112  0.3835  0.3679
12671TIP3    H159428   2.999   1.794  16.481  0.5990  0.5968  0.2214
12671TIP3    H259429   3.106   1.737  16.391  0.2890  0.1061  0.1588
12672TIP3   OH259430   3.443   3.919   0.338  0.8582  0.0198  0.7067
12672TIP3    H159431   3.534   3.921   0.308  0.3757 -0.2281 -0.8780
12672TIP3    H259432   3.392   3.949   0.262 -0.5232 -1.5660  0.9425
12673TIP3   OH259433   1.956   0.166  12.112 -0.1897 -0.1848 -0.3752
12673TIP3    H159434   1.990   0.254  12.097  0.2435 -0.1027  1.0359
12673TIP3    H259435   1.874   0.164  12.062  0.4730  0.5302 -1.5511
12674TIP3   OH259436   6.027   6.539  11.140  0.0723  0.3789  0.1758
12674TIP3    H159437   6.060   6.575  11.222 -0.1476 -0.3977  0.6095
12674TIP3    H259438   5.996   6.616  11.091 -0.2457  0.7877  1.0140
12675TIP3   OH259439   1.932   1.667  10.614  0.2299 -0.4081 -0.3598
12675TIP3    H159440   1.926   1.756  10.580  0.2056 -0.1928  0.2169
12675TIP3    H259441   1.877   1.616  10.555  0.6169 -0.1300 -0.9735
12676TIP3   OH259442   4.990   5.124  16.391 -0.3767 -0.0779 -0.0526
12676TIP3    H159443   5.072   5.096  16.350  0.4124  0.5160  1.0521
12676TIP3    H259444   4.948   5.042  16.418  1.4807 -0.3605  2.3522
12677TIP3   OH259445   3.569   3.900   3.140 -0.6093  0.4901  0.0834
12677TIP3    H159446   3.615   3.850   3.073 -0.6953  0.4629  0.0437
12677TIP3    H259447   3.599   3.862   3.223 -0.2477  0.7501  0.0731
12678TIP3   OH259448   2.040   0.578   1.135 -0.1085  0.6299  0.1668
12678TIP3    H159449   1.997   0.656   1.169 -2.1217  0.2281 -1.2774
12678TIP3    H259450   1.983   0.505   1.163  0.0816 -0.0131 -1.0678
12679TIP3   OH259451   5.466   5.309   1.919  0.7380 -0.1563  0.6905
12679TIP3    H159452   5.422   5.316   2.003  1.6271  0.8836  1.0820
12679TIP3    H259453   5.456   5.395   1.879 -1.2894 -1.1360 -1.1308
12680TIP3   OH259454   5.891   6.044  12.162 -0.2296 -0.0596  0.1517
12680TIP3    H159455   5.938   6.127  12.156 -1.4843  0.6498 -0.2353
12680TIP3    H259456   5.948   5.981  12.118 -0.3012  1.0951 -1.7106
12681TIP3   OH259457   4.812   3.397   1.096  0.5459 -0.4050  0.6088
12681TIP3    H159458   4.786   3.309   1.068  1.0533 -1.1868  2.4536
12681TIP3    H259459   4.904   3.404   1.072  0.6669 -0.6305  0.9857
12682TIP3   OH259460   3.859   1.030   1.851  0.0267 -0.2109  0.7518
12682TIP3    H159461   3.911   1.080   1.913  1.1007 -1.3796  0.8416
12682TIP3    H259462   3.896   1.053   1.765 -1.8047  1.8183  0.4211
12683TIP3   OH259463   1.718   0.849  16.259  0.4476  0.4441  0.0615
12683TIP3    H159464   1.758   0.852  16.346  1.2122 -0.3389 -0.2463
12683TIP3    H259465   1.780   0.798  16.206 -0.1204  0.7101 -0.8812
12684TIP3   OH259466   4.695   2.241   3.752 -0.1408  0.0907  0.4274
12684TIP3    H159467   4.726   2.155   3.726  1.6047  1.0471 -0.8656
12684TIP3    H259468   4.619   2.257   3.696 -0.0761 -0.3436  0.2139
12685TIP3   OH259469   5.309   1.754  16.616  0.1999 -0.0847 -0.5142
12685TIP3    H159470   5.338   1.814  16.685 -1.7899 -0.6742  0.9108
12685TIP3    H259471   5.300   1.810  16.539 -0.4363  1.2317  0.4678
12686TIP3   OH259472   4.116   5.340  16.542 -0.2085 -0.1493  0.0797
12686TIP3    H159473   4.162   5.385  16.471  0.1523 -0.7042 -0.0428
12686TIP3    H259474   4.026   5.329  16.509  0.2673 -1.5606 -0.8437
12687TIP3   OH259475   0.813   4.367   3.201 -0.8780  0.4054  0.0068
12687TIP3    H159476   0.779   4.297   3.146 -2.0121  2.3023 -1.8309
12687TIP3    H259477   0.888   4.402   3.154  0.2962 -0.1544  1.3823
12688TIP3   OH259478   2.041   3.645   3.579  0.2244  0.0977  0.4172
12688TIP3    H159479   2.059   3.594   3.657  2.2146 -0.1278 -0.1195
12688TIP3    H259480   2.032   3.735   3.610  0.7709 -0.0268  0.9480
12689TIP3   OH259481   2.610   3.284  14.742  0.6876 -0.2841  0.0381
12689TIP3    H159482   2.641   3.375  14.746 -1.9372  0.6604  1.7646
12689TIP3    H259483   2.690   3.232  14.736  2.3268  2.0947 -0.3647
12690TIP3   OH259484   6.519   2.170   0.952  0.6684 -0.3666 -0.3160
12690TIP3    H159485   6.581   2.221   1.004  1.1689 -1.0637 -0.2194
12690TIP3    H259486   6.516   2.216   0.868 -0.0258  0.6704  0.2649
12691TIP3   OH259487   5.066   2.057   4.389  0.4136 -0.3819 -0.2825
12691TIP3    H159488   5.105   1.970   4.403  0.4941 -0.5409 -1.4180
12691TIP3    H259489   5.074   2.072   4.295 -1.5757 -0.0906 -0.4453
12692TIP3   OH259490   0.615   4.411   0.263  0.1591  0.3923  0.3376
12692TIP3    H159491   0.628   4.468   0.188  1.2372  0.2715  0.4126
12692TIP3    H259492   0.523   4.387   0.260  0.0599  0.8650 -0.5993
12693TIP3   OH259493   6.748   4.951   5.796 -0.3765 -0.0005  0.2292
12693TIP3    H159494   6.687   4.880   5.774 -1.0959  0.8257 -0.5257
12693TIP3    H259495   6.824   4.907   5.834 -0.9873 -1.1386  0.1646
12694TIP3   OH259496   4.573   6.670  15.352  0.3896  0.2623  0.7529
12694TIP3    H159497   4.583   6.753  15.400 -0.7405  0.8981 -0.0747
12694TIP3    H259498   4.587   6.693  15.260 -0.8955 -0.2713  0.4115
12695TIP3   OH259499   5.363   1.883   4.566 -0.7565 -0.0284 -0.5615
12695TIP3    H159500   5.365   1.942   4.490 -0.2079  1.0213  0.2336
12695TIP3    H259501   5.422   1.924   4.629 -1.1124 -0.9405  0.3941
12696TIP3   OH259502   2.819   4.899   5.661 -0.6029 -0.1419  0.1767
12696TIP3    H159503   2.890   4.860   5.609 -1.4459 -0.4084 -0.8210
12696TIP3    H259504   2.741   4.886   5.607 -1.0067  2.6050 -0.0664
12697TIP3   OH259505   6.573   1.242  15.273 -0.3455  0.5960 -0.1266
12697TIP3    H159506   6.628   1.263  15.348 -0.6321  0.1562  0.2074
12697TIP3    H259507   6.591   1.150  15.254 -0.3659  0.6712 -0.5211
12698TIP3   OH259508   1.081   2.873  12.607  0.3791 -0.1046 -0.0549
12698TIP3    H159509   1.046   2.933  12.673  0.6136 -1.1400  1.0548
12698TIP3    H259510   1.033   2.895  12.527  0.0640  1.1686  0.4476
12699TIP3   OH259511   0.337   4.545   3.101 -0.3574 -0.3429  0.0865
12699TIP3    H159512   0.383   4.522   3.181 -1.0302 -1.1320  0.2642
12699TIP3    H259513   0.391   4.508   3.031 -0.4951 -0.9026  0.2676
12700TIP3   OH259514   3.329   6.676   5.556  0.1703  0.1442  0.0613
12700TIP3    H159515   3.370   6.739   5.615  0.3705  1.2020 -1.1439
12700TIP3    H259516   3.302   6.729   5.480 -0.7566 -1.0293 -0.4622
12701TIP3   OH259517   6.651   3.651   3.858 -0.2138 -0.4305 -0.4126
12701TIP3    H159518   6.593   3.608   3.921 -1.4782 -1.5108 -2.2418
12701TIP3    H259519   6.662   3.740   3.892 -1.1381 -0.8739  1.1274
12702TIP3   OH259520   4.147   3.316  11.491 -0.1914  0.6406 -0.8343
12702TIP3    H159521   4.065   3.321  11.443 -0.7430  2.3019  0.1780
12702TIP3    H259522   4.165   3.222  11.499 -2.5749  0.1773 -0.1308
12703TIP3   OH259523   4.259   0.979  15.428 -0.4019  0.3287 -0.3886
12703TIP3    H159524   4.322   0.910  15.407  0.8769  1.3404 -0.0625
12703TIP3    H259525   4.313   1.050  15.463 -1.7771  1.1300  0.1888
12704TIP3   OH259526   0.266   6.591  11.706  0.0565 -0.4689  0.3675
12704TIP3    H159527   0.254   6.605  11.612  0.6353 -1.0662  0.2025
12704TIP3    H259528   0.186   6.547  11.735 -0.5115  0.5065  0.3363
12705TIP3   OH259529   6.546   5.109   3.822  0.1890  0.0191 -0.0710
12705TIP3    H159530   6.478   5.142   3.764  0.4950 -0.2391 -0.5817
12705TIP3    H259531   6.507   5.115   3.910 -1.1123 -1.6176 -0.4767
12706TIP3   OH259532   0.341   2.161   4.039  0.1351  0.4005 -0.5896
12706TIP3    H159533   0.348   2.068   4.017  0.4129 -0.4186  2.4737
12706TIP3    H259534   0.432   2.190   4.050  0.0233  0.8663 -0.8755
12707TIP3   OH259535   4.747   3.136  13.574 -0.3892 -0.4532 -0.3772
12707TIP3    H159536   4.748   3.227  13.604 -0.5911 -0.0015 -1.6967
12707TIP3    H259537   4.699   3.138  13.491  0.9665 -1.4924 -1.2415
12708TIP3   OH259538   3.104   4.081   5.865  0.2149  0.0280 -0.7467
12708TIP3    H159539   3.054   4.135   5.926  0.6321 -0.1653 -0.2281
12708TIP3    H259540   3.186   4.064   5.910 -0.0975 -1.4410 -0.7095
12709TIP3   OH259541   6.053   4.763  14.497 -0.4175 -0.3658 -0.6875
12709TIP3    H159542   5.974   4.715  14.471 -2.1443  2.0678 -0.2641
12709TIP3    H259543   6.094   4.788  14.414 -0.4668 -1.0128 -0.9167
12710TIP3   OH259544   6.439   6.613   2.439 -0.6318 -0.4286  0.7580
12710TIP3    H159545   6.394   6.658   2.367  1.8090  0.8072 -0.1145
12710TIP3    H259546   6.372   6.555   2.476 -3.0333  1.5547 -0.1275
12711TIP3   OH259547   2.376   6.556  11.363 -0.0581 -0.6017 -0.0478
12711TIP3    H159548   2.283   6.568  11.341 -0.3126 -1.7583  0.2949
12711TIP3    H259549   2.391   6.615  11.437 -0.6206 -0.6490  0.1134
12712TIP3   OH259550   1.144   4.603  12.441  0.5329  0.5693 -0.2029
12712TIP3    H159551   1.178   4.521  12.405  0.2635  0.1632  0.4432
12712TIP3    H259552   1.049   4.595  12.431  0.5917  1.9151 -2.4635
12713TIP3   OH259553   1.054   6.109  14.588 -0.0553  0.1276 -0.4345
12713TIP3    H159554   1.131   6.150  14.628 -1.1133  0.8227  0.9817
12713TIP3    H259555   1.083   6.021  14.564  0.9303  0.0281  0.9900
12714TIP3   OH259556   1.128   5.692  14.932  0.5394  0.3745 -0.2064
12714TIP3    H159557   1.056   5.678  14.871  0.5203  0.4659 -0.2055
12714TIP3    H259558   1.178   5.765  14.895  0.3939  0.5837  0.0048
12715TIP3   OH259559   0.756   3.330  13.994  0.7105 -0.0812  0.4540
12715TIP3    H159560   0.784   3.419  13.973  0.0475  0.1639  0.5964
12715TIP3    H259561   0.777   3.280  13.915 -2.1199  0.9195 -1.0852
12716TIP3   OH259562   0.613   1.152   0.175  0.1170  0.0122  0.1718
12716TIP3    H159563   0.637   1.133   0.266  0.3533 -1.2434 -0.1369
12716TIP3    H259564   0.624   1.246   0.167  0.0933  0.1448  1.4473
12717TIP3   OH259565   0.018   1.521  14.166  0.3552  0.2920  0.2304
12717TIP3    H159566  -0.056   1.462  14.151  1.3089 -0.1358 -3.8407
12717TIP3    H259567  -0.019   1.609  14.154  0.1169  0.2075  0.3343
12718TIP3   OH259568   5.734   3.745   3.499  0.2019 -0.0705 -0.2005
12718TIP3    H159569   5.689   3.710   3.422 -0.0350 -1.2964  0.4653
12718TIP3    H259570   5.663   3.765   3.561  0.4097  0.5182 -0.1542
12719TIP3   OH259571   5.599   2.390   0.376  0.7835 -0.1916  0.3619
12719TIP3    H159572   5.646   2.319   0.419  1.3060 -0.8932 -1.2791
12719TIP3    H259573   5.528   2.346   0.328  0.6495  0.4729 -0.0637
12720TIP3   OH259574   0.069   6.382   5.362 -0.2834 -0.0068 -0.1387
12720TIP3    H159575   0.059   6.470   5.326 -0.4143  0.4071  0.8666
12720TIP3    H259576   0.094   6.397   5.453  0.7163 -1.0175 -0.2349
12721TIP3   OH259577   2.209   1.125  11.854 -0.1668  0.1924  0.1368
12721TIP3    H159578   2.187   1.032  11.856 -1.4076  0.4927  1.6503
12721TIP3    H259579   2.214   1.146  11.760 -0.2423 -1.2909 -0.2263
12722TIP3   OH259580   5.628   0.749  13.570 -0.7660  0.2481 -0.4122
12722TIP3    H159581   5.698   0.761  13.635 -1.0017  1.1413 -0.3086
12722TIP3    H259582   5.582   0.833  13.569 -1.6100 -0.2074 -0.7518
12723TIP3   OH259583   0.989   3.263   1.832  0.7516 -0.2949 -0.3162
12723TIP3    H159584   1.059   3.251   1.895  0.1239  0.4803  0.5584
12723TIP3    H259585   0.910   3.274   1.885  0.1503  0.0429 -1.2466
12724TIP3   OH259586   6.114   1.212   4.073  0.0953  0.4238 -0.4774
12724TIP3    H159587   6.100   1.302   4.044  0.4715  0.9412  0.8708
12724TIP3    H259588   6.026   1.180   4.095 -0.1046  0.2630 -1.4748
12725TIP3   OH259589   1.011   6.706  16.919 -0.1184  0.1553  0.0604
12725TIP3    H159590   1.071   6.726  16.991  0.0313  1.2012 -0.3467
12725TIP3    H259591   1.064   6.716  16.840 -0.2650 -1.0455 -0.2170
12726TIP3   OH259592   6.737   2.892   3.522  0.0373  0.2880 -0.2200
12726TIP3    H159593   6.797   2.820   3.505  0.3122  0.4164  0.1990
12726TIP3    H259594   6.650   2.857   3.503  0.0711 -0.4673  0.9879
12727TIP3   OH259595   0.762   6.101   4.755  0.4742  0.1405 -0.5813
12727TIP3    H159596   0.670   6.076   4.763  0.6094 -0.4933 -0.9237
12727TIP3    H259597   0.763   6.169   4.688  0.0681  1.2880  0.5430
12728TIP3   OH259598   3.951   5.696  15.579 -0.0269  0.0249  0.9592
12728TIP3    H159599   3.890   5.660  15.643  0.1624  0.1268  1.1967
12728TIP3    H259600   4.014   5.626  15.563 -0.8329 -0.4866 -0.1193
12729TIP3   OH259601   2.180   4.872   5.194  0.0519  0.5229  0.2897
12729TIP3    H159602   2.204   4.882   5.287 -1.8116 -0.6237  0.9434
12729TIP3    H259603   2.086   4.858   5.195  0.1022 -0.2880 -1.7543
12730TIP3   OH259604   4.885   4.485  10.620  0.0848 -0.4666  0.1816
12730TIP3    H159605   4.828   4.523  10.553  0.7123  1.2171  0.5512
12730TIP3    H259606   4.826   4.436  10.677 -1.2249  2.0541  1.1504
12731TIP3   OH259607   0.932   4.115   3.855 -0.0792 -0.0630  0.1651
12731TIP3    H159608   1.012   4.114   3.908  0.6892 -1.6001 -0.9286
12731TIP3    H259609   0.956   4.163   3.776 -0.3354 -0.2287 -0.0165
12732TIP3   OH259610   1.397   2.352  12.187 -0.1133  0.0735  0.3882
12732TIP3    H159611   1.380   2.297  12.263 -0.8425 -2.7007 -1.6427
12732TIP3    H259612   1.485   2.327  12.159  0.5411  1.7682  0.7982
12733TIP3   OH259613   4.817   2.331   5.529  0.2007  0.2101  0.0372
12733TIP3    H159614   4.906   2.308   5.504  0.3146  0.7889 -0.1042
12733TIP3    H259615   4.775   2.356   5.447 -0.0725  0.0108  0.1146
12734TIP3   OH259616   5.384   2.820  11.030 -0.3090  0.6628  0.0385
12734TIP3    H159617   5.437   2.789  10.957  0.0440  0.6991  0.2790
12734TIP3    H259618   5.403   2.914  11.035 -1.4127  0.9435 -0.7231
12735TIP3   OH259619   1.983   2.174  10.971 -0.0170  0.2927 -0.1912
12735TIP3    H159620   1.964   2.155  10.879  0.3085  0.4198 -0.2860
12735TIP3    H259621   1.934   2.255  10.989 -1.4122 -0.6026  0.2172
12736TIP3   OH259622   0.816   5.944   0.853  0.3989 -0.0113 -0.4220
12736TIP3    H159623   0.880   5.880   0.820 -1.0626 -0.4965 -2.5485
12736TIP3    H259624   0.763   5.966   0.776  0.4634  3.3785  0.3614
12737TIP3   OH259625   3.931   6.527   5.073 -0.7337  0.3244 -0.0405
12737TIP3    H159626   3.899   6.447   5.032 -1.7720  1.2982 -1.2046
12737TIP3    H259627   3.987   6.497   5.145 -0.1216 -1.4403 -1.2045
12738TIP3   OH259628   6.659   0.615   5.074 -0.0396  0.5277  0.2908
12738TIP3    H159629   6.641   0.536   5.124  2.9135 -0.9498 -0.7130
12738TIP3    H259630   6.660   0.685   5.139 -3.0709 -0.1005  1.1533
12739TIP3   OH259631   3.244   2.805  14.074 -0.4024 -0.6470  0.3224
12739TIP3    H159632   3.264   2.733  14.014 -0.3169 -0.5051  0.1800
12739TIP3    H259633   3.328   2.825  14.116 -0.0327  0.5319 -0.9122
12740TIP3   OH259634   2.318   2.369   2.742  0.2866  0.5653 -0.3733
12740TIP3    H159635   2.245   2.395   2.686  0.2221  0.7659 -0.1988
12740TIP3    H259636   2.308   2.423   2.821 -0.5686 -0.8293  0.5272
12741TIP3   OH259637   0.199   6.650  17.155  0.2121  0.4333  0.3070
12741TIP3    H159638   0.125   6.628  17.098  1.1880 -1.6367 -0.2483
12741TIP3    H259639   0.192   6.745  17.168 -1.1284  0.6757 -1.7285
12742TIP3   OH259640   4.025   2.664  13.750  0.0435  0.1514 -0.1053
12742TIP3    H159641   3.976   2.741  13.724  1.1774  0.8848 -0.1130
12742TIP3    H259642   4.098   2.698  13.802 -0.5908 -1.0540  1.6890
12743TIP3   OH259643   2.500   5.593   4.840 -0.3389 -0.4958 -0.1593
12743TIP3    H159644   2.418   5.636   4.817  0.4058 -0.1347 -2.4392
12743TIP3    H259645   2.568   5.650   4.803  0.8349 -1.9067 -0.2672
12744TIP3   OH259646   5.726   5.139   2.440 -0.2415 -0.0365  0.3609
12744TIP3    H159647   5.691   5.146   2.352 -1.1365  1.2499  0.7826
12744TIP3    H259648   5.732   5.045   2.457 -0.1389 -0.2924 -1.0295
12745TIP3   OH259649   0.114   1.650  13.393 -1.3381  0.0967  0.4851
12745TIP3    H159650   0.068   1.727  13.360 -1.8035 -0.0453  0.8043
12745TIP3    H259651   0.145   1.606  13.314 -1.5386  0.3190  0.2788
12746TIP3   OH259652   5.329   2.037   3.605 -0.3565  0.3333  0.1128
12746TIP3    H159653   5.420   2.020   3.583 -0.9343  0.5745 -2.8509
12746TIP3    H259654   5.289   1.951   3.616 -0.3546  0.1200 -1.4179
12747TIP3   OH259655   4.350   4.650  11.456  0.2008  0.2384 -0.4340
12747TIP3    H159656   4.410   4.714  11.494  1.1993 -0.4562 -0.7781
12747TIP3    H259657   4.389   4.565  11.477 -1.9354 -0.3862  1.4322
12748TIP3   OH259658   0.630   1.504   6.676  0.2179 -0.2656 -0.7872
12748TIP3    H159659   0.629   1.422   6.726  0.5716  1.0097  1.4097
12748TIP3    H259660   0.665   1.479   6.590 -1.0660 -2.6615 -0.7002
12749TIP3   OH259661   6.716   6.589  15.368  0.4399 -0.5181  0.6002
12749TIP3    H159662   6.742   6.561  15.456  0.8401 -1.8250  0.0916
12749TIP3    H259663   6.628   6.553  15.356  0.1482  0.1578  0.6756
12750TIP3   OH259664   5.878   5.434  14.198  0.1030 -0.3763  0.4099
12750TIP3    H159665   5.888   5.345  14.234 -1.2032 -0.3898  0.7868
12750TIP3    H259666   5.784   5.443  14.182  0.1956  0.9937  0.5204
12751TIP3   OH259667   4.210   3.140   6.370  0.5103 -0.7164  0.3991
12751TIP3    H159668   4.129   3.112   6.326  0.4316 -1.2400  0.8635
12751TIP3    H259669   4.268   3.166   6.298  0.3451 -1.4503 -0.0128
12752TIP3   OH259670   1.060   4.297   1.409 -0.1287  0.2079 -0.1172
12752TIP3    H159671   1.052   4.303   1.313 -2.6528 -0.1058  0.0078
12752TIP3    H259672   1.070   4.204   1.426 -1.8323  0.0110 -0.0152
12753TIP3   OH259673   1.614   6.081  17.066  0.1608  0.1589 -0.4501
12753TIP3    H159674   1.528   6.083  17.023 -0.8675 -0.9023  1.4538
12753TIP3    H259675   1.639   5.989  17.066  0.9113  0.3549 -0.2363
12754TIP3   OH259676   6.440   3.337  12.984 -0.2081 -0.0830 -0.6525
12754TIP3    H159677   6.532   3.315  12.998 -0.4027 -0.2943  0.3339
12754TIP3    H259678   6.424   3.412  13.041 -0.4807  0.3788 -1.3223
12755TIP3   OH259679   1.136   4.697  16.560 -0.4184  0.9775  0.0192
12755TIP3    H159680   1.189   4.729  16.488 -0.1522  2.5975  0.8892
12755TIP3    H259681   1.195   4.639  16.609 -0.4525  0.2647 -0.7598
12756TIP3   OH259682   0.872   1.205  16.439 -0.1095  0.3061 -0.3759
12756TIP3    H159683   0.887   1.146  16.365  0.0881  1.1262 -1.0099
12756TIP3    H259684   0.858   1.291  16.398 -0.1547  0.7429  0.5350
12757TIP3   OH259685   1.633   4.293  16.886  0.3167  0.2440 -0.3829
12757TIP3    H159686   1.567   4.343  16.934  0.0716  0.1686 -0.6438
12757TIP3    H259687   1.665   4.229  16.950 -2.3932 -2.1205 -1.2070
12758TIP3   OH259688   3.795   2.287  15.308  0.5694 -0.3054 -0.0805
12758TIP3    H159689   3.866   2.341  15.342  1.4454  0.6391 -3.0493
12758TIP3    H259690   3.719   2.344  15.306  0.8416  0.0452 -0.8226
12759TIP3   OH259691   1.001   2.763   3.716  0.6016 -0.0244  0.0446
12759TIP3    H159692   0.952   2.702   3.771 -0.0449 -0.2173 -0.7284
12759TIP3    H259693   0.960   2.848   3.732  0.0013 -0.1832 -0.5912
12760TIP3   OH259694   0.113   3.844  17.056 -0.3015 -0.2866  1.1098
12760TIP3    H159695   0.113   3.778  17.125  1.7894 -1.8010 -0.2131
12760TIP3    H259696   0.173   3.912  17.086  1.3721 -1.4094  0.4720
12761TIP3   OH259697   4.791   4.342   0.608  0.0847 -0.1306  0.2913
12761TIP3    H159698   4.838   4.263   0.633  1.6295  0.7874  0.4324
12761TIP3    H259699   4.830   4.369   0.524 -0.7558  0.2175 -0.0039
12762TIP3   OH259700   3.409   3.315   2.727  0.0781  0.4943  0.6661
12762TIP3    H159701   3.349   3.381   2.693  0.0603  0.6013  0.9070
12762TIP3    H259702   3.495   3.341   2.693 -0.2499 -0.7199 -1.3039
12763TIP3   OH259703   5.117   5.251   0.168  0.7170 -0.0983 -0.4685
12763TIP3    H159704   5.168   5.331   0.152  3.4912 -1.7946 -0.7379
12763TIP3    H259705   5.122   5.202   0.086 -1.4052 -0.4049 -0.4855
12764TIP3   OH259706   0.952   3.881  11.057 -0.2134  0.5288 -0.0901
12764TIP3    H159707   1.021   3.945  11.040  1.6984 -1.4838 -0.2297
12764TIP3    H259708   0.938   3.838  10.973 -0.4993 -0.1619  0.3073
12765TIP3   OH259709   0.681   3.592   5.988  0.4342 -0.6508 -0.8052
12765TIP3    H159710   0.657   3.525   6.052 -0.5238  0.5605  0.1612
12765TIP3    H259711   0.643   3.561   5.906 -2.8918  0.1655  0.2587
12766TIP3   OH259712   4.994   6.179  11.534 -0.6040  0.3195 -0.6732
12766TIP3    H159713   4.905   6.210  11.549 -0.8632 -1.0775  1.0562
12766TIP3    H259714   4.983   6.090  11.500  0.0901 -0.2444  0.4992
12767TIP3   OH259715   0.770   4.131   1.509 -0.0534 -0.3564  0.4190
12767TIP3    H159716   0.829   4.113   1.583 -0.1162 -0.1599  0.5178
12767TIP3    H259717   0.752   4.225   1.515  0.8126 -0.1139 -0.4865
12768TIP3   OH259718   2.099   5.554  11.192 -0.4925 -0.2054  0.1637
12768TIP3    H159719   2.090   5.605  11.112 -0.7218  0.6909  0.7585
12768TIP3    H259720   2.183   5.581  11.229 -0.1727 -0.9439  0.0133
12769TIP3   OH259721   6.752   6.152  14.755 -0.1701 -0.3367 -0.2471
12769TIP3    H159722   6.758   6.247  14.743 -1.8835 -0.0619  0.8339
12769TIP3    H259723   6.775   6.116  14.669 -0.9592  1.1116 -1.1065
12770TIP3   OH259724   5.475   0.186  17.070  0.5731 -0.1799 -0.1535
12770TIP3    H159725   5.453   0.179  16.977  0.2994  2.2984 -0.3294
12770TIP3    H259726   5.567   0.209  17.071  0.8615 -1.2580  0.2767
12771TIP3   OH259727   0.508   1.098  11.603 -0.0808  0.3920  0.2342
12771TIP3    H159728   0.518   1.053  11.519  2.9705  0.2108  0.5526
12771TIP3    H259729   0.453   1.040  11.655 -0.4635 -0.4207 -1.0345
12772TIP3   OH259730   6.390   0.527  14.625 -0.6225 -0.3808 -0.3782
12772TIP3    H159731   6.334   0.455  14.653  0.5447 -0.2939  2.4631
12772TIP3    H259732   6.368   0.599  14.683  0.3548  0.5940 -1.1792
12773TIP3   OH259733   1.406   5.958  16.193  0.0809  0.3843 -0.3938
12773TIP3    H159734   1.326   5.956  16.246  0.0868  0.1097 -0.3918
12773TIP3    H259735   1.470   5.908  16.244 -0.1408 -0.5525 -0.9992
12774TIP3   OH259736   5.647   1.969   1.523  0.1425  0.2701 -0.2055
12774TIP3    H159737   5.666   1.879   1.547  0.5155  0.4443  0.1475
12774TIP3    H259738   5.568   1.991   1.573  0.2455  0.2529 -0.0389
12775TIP3   OH259739   0.170   4.541  13.637  0.6464 -0.9896  0.6031
12775TIP3    H159740   0.125   4.623  13.617  0.0379 -0.8533  2.3522
12775TIP3    H259741   0.143   4.481  13.567  0.0758 -0.0834  0.0226
12776TIP3   OH259742   2.435   2.557  17.181 -0.4081 -0.2522  0.8780
12776TIP3    H159743   2.429   2.570  17.276  0.8274 -1.4056  1.1423
12776TIP3    H259744   2.518   2.512  17.168 -1.3510 -1.6771 -0.5856
12777TIP3   OH259745   2.043   6.289  15.236  0.1662  0.1537 -0.6376
12777TIP3    H159746   2.062   6.209  15.284  0.4538 -0.6300 -2.0247
12777TIP3    H259747   1.953   6.312  15.262 -0.5688 -1.5725 -1.4997
12778TIP3   OH259748   6.574   3.720  10.508  0.0944 -0.5654 -0.2396
12778TIP3    H159749   6.594   3.626  10.506 -0.3580 -0.6577 -2.4549
12778TIP3    H259750   6.653   3.760  10.544  0.5426 -1.7227  0.1297
12779TIP3   OH259751   6.134   1.095  11.295  0.1289  0.4199 -0.5846
12779TIP3    H159752   6.153   1.032  11.365 -0.6665  0.3069 -0.4655
12779TIP3    H259753   6.214   1.095  11.241 -0.8160 -2.8732 -2.2731
12780TIP3   OH259754   2.458   1.254  14.098  0.1502 -0.6153 -0.0946
12780TIP3    H159755   2.454   1.338  14.051  0.1083  1.1362  2.8083
12780TIP3    H259756   2.375   1.211  14.077 -0.2115  0.4564 -0.9581
12781TIP3   OH259757   5.393   0.772  14.982  0.1154  0.6941 -0.2741
12781TIP3    H159758   5.420   0.689  14.943  0.6587  1.0994 -0.7804
12781TIP3    H259759   5.475   0.814  15.009 -0.1929  0.8077  0.5137
12782TIP3   OH259760   3.464   5.765  12.607  0.1473  0.0202  0.4714
12782TIP3    H159761   3.474   5.688  12.551 -1.8236 -1.0968  1.5192
12782TIP3    H259762   3.511   5.742  12.687  1.1071  0.7067  0.1239
12783TIP3   OH259763   2.221   2.622  16.795 -0.1980 -0.4480  0.6657
12783TIP3    H159764   2.298   2.578  16.830  1.0964  2.3087  1.6002
12783TIP3    H259765   2.160   2.626  16.869 -1.7701 -3.4195 -0.3033
12784TIP3   OH259766   3.006   0.357  12.778  0.1651 -0.0517 -0.2063
12784TIP3    H159767   2.920   0.351  12.736  1.0222  0.2325 -2.1280
12784TIP3    H259768   3.010   0.280  12.835 -1.1699 -0.3125 -0.4205
12785TIP3   OH259769   3.740   5.825   4.479  0.2052 -0.1546  0.0121
12785TIP3    H159770   3.719   5.732   4.488 -1.6798 -0.0725 -2.4204
12785TIP3    H259771   3.820   5.837   4.530 -0.5984 -2.6499  2.0530
12786TIP3   OH259772   2.483   1.290  14.358  0.6758  0.3409  0.3543
12786TIP3    H159773   2.484   1.292  14.262 -0.6464  1.4223  0.3204
12786TIP3    H259774   2.562   1.244  14.382  1.1961  0.3220 -1.2663
12787TIP3   OH259775   6.613   2.301  16.169 -0.2511 -0.3805 -0.0671
12787TIP3    H159776   6.660   2.328  16.090 -1.7848 -2.3891 -1.7931
12787TIP3    H259777   6.522   2.290  16.140 -1.0321 -0.4391  2.1973
12788TIP3   OH259778   4.041   2.894   4.688 -0.6059  0.1034 -0.3017
12788TIP3    H159779   4.131   2.863   4.699 -0.8001 -1.1604 -1.9654
12788TIP3    H259780   4.014   2.920   4.776  1.0073 -0.5380  0.4205
12789TIP3   OH259781   5.742   5.125  15.364  0.3165 -0.4833  0.2005
12789TIP3    H159782   5.723   5.173  15.283 -0.3503  0.7815  1.0736
12789TIP3    H259783   5.732   5.033  15.340 -1.1653 -0.0869 -0.8613
12790TIP3   OH259784   4.879   4.575  11.903  0.2806  0.5956 -0.1801
12790TIP3    H159785   4.786   4.596  11.913 -0.0847 -0.5130 -0.9814
12790TIP3    H259786   4.896   4.509  11.970  0.0323 -0.4515 -1.1135
12791TIP3   OH259787   6.173   2.439   0.136 -0.1104  0.2285 -0.0010
12791TIP3    H159788   6.118   2.369   0.102  0.2247 -0.3613  0.6640
12791TIP3    H259789   6.114   2.514   0.142 -0.7380 -0.2832  0.3159
12792TIP3   OH259790   3.342   4.408  13.805  0.0410 -0.0579 -0.1864
12792TIP3    H159791   3.384   4.402  13.890  1.0888  3.1275 -0.3359
12792TIP3    H259792   3.413   4.394  13.742  0.4525  2.6791 -0.4401
12793TIP3   OH259793   0.622   0.490   6.020 -0.2087 -0.5657  0.0750
12793TIP3    H159794   0.705   0.448   5.997  0.4820  0.7543  0.0313
12793TIP3    H259795   0.588   0.524   5.937  0.1687  0.5312  0.3530
12794TIP3   OH259796   2.780   1.344  15.602 -0.2045  0.2993  0.1776
12794TIP3    H159797   2.776   1.332  15.697  1.7580  0.4235  0.3098
12794TIP3    H259798   2.700   1.303  15.570  0.8389 -3.1347  1.5673
12795TIP3   OH259799   4.340   1.294   3.992  0.7120 -0.4394  0.0860
12795TIP3    H159800   4.301   1.228   3.934 -1.2542  0.4969  0.2571
12795TIP3    H259801   4.348   1.250   4.076  0.5933 -0.8581 -0.1192
12796TIP3   OH259802   6.514   2.519   2.174  0.3711  0.0340 -0.3602
12796TIP3    H159803   6.474   2.593   2.128  1.3402  0.4816 -0.4975
12796TIP3    H259804   6.439   2.468   2.207 -0.3906 -0.4410 -2.6099
12797TIP3   OH259805   6.331   0.217  15.494  0.4934 -0.7556  0.0739
12797TIP3    H159806   6.382   0.232  15.574 -1.0977  3.1571  0.5820
12797TIP3    H259807   6.312   0.123  15.495  2.8847 -1.3498  2.7572
12798TIP3   OH259808   2.777   3.013   1.446 -0.3328 -0.0772  0.2554
12798TIP3    H159809   2.806   3.103   1.459 -1.0822  0.5063 -1.7867
12798TIP3    H259810   2.858   2.964   1.432 -0.0217  0.8925 -1.7692
12799TIP3   OH259811   4.104   3.904  13.835 -0.1901 -0.2091 -0.5903
12799TIP3    H159812   4.060   3.972  13.885  1.4639 -0.8021  1.8466
12799TIP3    H259813   4.142   3.846  13.901 -0.9161 -3.1579 -2.5453
12800TIP3   OH259814   2.219   3.275  10.991 -0.3748  0.3703 -0.2678
12800TIP3    H159815   2.183   3.362  11.008 -0.8213  0.0390  0.5154
12800TIP3    H259816   2.267   3.252  11.071 -0.4934 -0.2203 -0.3640
12801TIP3   OH259817   2.561   6.260   4.881  1.1830  0.1592 -0.1648
12801TIP3    H159818   2.489   6.322   4.869  0.4703 -0.4444  0.8015
12801TIP3    H259819   2.530   6.179   4.841  1.0642 -0.2698  0.7629
12802TIP3   OH259820   3.214   3.906   1.421 -0.1521  0.2372  0.5028
12802TIP3    H159821   3.154   3.976   1.448 -2.0295 -1.2120  0.3160
12802TIP3    H259822   3.187   3.830   1.473  0.8676 -0.7298 -0.3321
12803TIP3   OH259823   1.964   6.269  13.818  0.2939 -0.0632 -0.1691
12803TIP3    H159824   1.922   6.264  13.732 -0.9865 -1.0073  0.4948
12803TIP3    H259825   2.050   6.308  13.800 -0.5829  1.3032 -1.6395
12804TIP3   OH259826   4.021   1.367   1.777 -0.1440  0.1055 -0.0846
12804TIP3    H159827   3.935   1.324   1.777 -0.4641  0.6507  1.8654
12804TIP3    H259828   4.083   1.296   1.797 -0.4588  0.1386  1.1262
12805TIP3   OH259829   2.385   1.210  12.416 -0.2790  0.9344 -0.4205
12805TIP3    H159830   2.341   1.237  12.334  0.6112 -0.9210 -1.5680
12805TIP3    H259831   2.334   1.135  12.447 -1.1191  2.1369  1.2561
12806TIP3   OH259832   3.306   6.396   1.089 -0.4572 -0.4140  0.0883
12806TIP3    H159833   3.241   6.447   1.041  0.3210  0.8796  0.3507
12806TIP3    H259834   3.310   6.439   1.175  2.0065  0.6886 -0.5078
12807TIP3   OH259835   5.356   0.841  13.809  0.0690 -0.1694 -0.2073
12807TIP3    H159836   5.404   0.921  13.786  0.0784  0.1891  0.9997
12807TIP3    H259837   5.290   0.832  13.740 -2.4446  2.9927  1.5197
12808TIP3   OH259838   2.010   4.455  12.444  0.1891  0.0742 -0.7083
12808TIP3    H159839   1.974   4.485  12.528  0.0989  2.1717 -1.4312
12808TIP3    H259840   1.934   4.440  12.389  0.2905  0.5508 -0.9837
12809TIP3   OH259841   4.977   2.858  14.353 -0.2112  0.4099  0.4116
12809TIP3    H159842   5.063   2.825  14.329 -0.0051 -1.2400  3.1110
12809TIP3    H259843   4.979   2.950  14.326  1.9223  0.1231 -0.6401
12810TIP3   OH259844   0.438   5.893  12.561  0.2959  0.1270 -0.2246
12810TIP3    H159845   0.475   5.924  12.478 -1.7162 -1.1479 -1.6900
12810TIP3    H259846   0.507   5.909  12.625  1.5758  2.0554 -1.9346
12811TIP3   OH259847   2.440   4.950   2.831  0.1978 -0.2902  0.4074
12811TIP3    H159848   2.356   4.911   2.855  0.2378 -0.1582  0.7608
12811TIP3    H259849   2.451   4.927   2.739 -0.9668  0.9834 -0.1033
12812TIP3   OH259850   1.205   3.932   1.020 -0.0632 -0.3364  0.3494
12812TIP3    H159851   1.300   3.935   1.014 -0.1109  0.4275 -0.1341
12812TIP3    H259852   1.181   3.847   0.983  0.4112 -0.4337  0.2599
12813TIP3   OH259853   4.608   5.013  13.708  0.0469  0.5196  0.2375
12813TIP3    H159854   4.678   5.045  13.766  0.9131 -0.1387 -0.4118
12813TIP3    H259855   4.565   4.944  13.759  0.0425  0.7486  0.5445
12814TIP3   OH259856   0.523   3.775  11.403 -0.2944  0.4924 -0.2905
12814TIP3    H159857   0.537   3.834  11.328  0.6934  0.1289 -0.4048
12814TIP3    H259858   0.458   3.820  11.456  0.0519  1.4486 -0.6422
12815TIP3   OH259859   6.483   1.784   1.051  0.3411 -0.0583  0.0322
12815TIP3    H159860   6.553   1.745   0.999  1.4184  0.4970  1.0188
12815TIP3    H259861   6.502   1.757   1.141 -1.1112 -0.4645  0.2550
12816TIP3   OH259862   6.407   5.107   1.180  0.2830 -0.2785 -0.2025
12816TIP3    H159863   6.498   5.081   1.193  0.4844 -1.5856 -3.3865
12816TIP3    H259864   6.357   5.047   1.235  1.2270 -2.1244 -1.2271
12817TIP3   OH259865   4.407   4.236   0.887 -0.2076  0.0572  0.1510
12817TIP3    H159866   4.456   4.248   0.805  0.7683  0.7096  0.8042
12817TIP3    H259867   4.356   4.317   0.896 -2.4794 -1.1420 -1.1809
12818TIP3   OH259868   0.526   3.522  14.579  0.3081  0.5723  0.0604
12818TIP3    H159869   0.472   3.504  14.656  0.0803  1.6449  0.1538
12818TIP3    H259870   0.599   3.460  14.586 -1.1261 -1.2385 -0.3276
12819TIP3   OH259871   1.117   0.200  11.057  0.6558  0.0185  0.5991
12819TIP3    H159872   1.070   0.159  11.130  2.1459 -0.9382  1.0740
12819TIP3    H259873   1.194   0.144  11.044  0.9185  0.7056 -1.0945
12820TIP3   OH259874   0.900   1.410   0.112  0.4576 -0.5794  0.2006
12820TIP3    H159875   0.917   1.329   0.065  1.7572  0.8120 -1.8689
12820TIP3    H259876   0.984   1.434   0.151  0.6059  0.7260 -0.8440
12821TIP3   OH259877   3.297   2.543   3.696 -0.0171 -0.0788  0.5615
12821TIP3    H159878   3.217   2.491   3.704  0.1001 -0.2337  0.7538
12821TIP3    H259879   3.307   2.585   3.782 -0.2892  0.5253  0.3021
12822TIP3   OH259880   3.996   4.492   0.671 -0.0874  0.6282  0.2807
12822TIP3    H159881   3.901   4.490   0.663 -0.1527  0.8752  0.8793
12822TIP3    H259882   4.018   4.585   0.678  0.0385  0.5216  1.6582
12823TIP3   OH259883   4.120   4.316  12.458 -0.1400  0.1123  0.0096
12823TIP3    H159884   4.161   4.264  12.389 -1.2116 -1.0926  0.2456
12823TIP3    H259885   4.138   4.268  12.539  0.3736  1.0610  0.4777
12824TIP3   OH259886   1.177   1.002   0.457  0.6884 -0.2413 -0.0550
12824TIP3    H159887   1.185   1.079   0.400  2.1368  0.4817  1.0574
12824TIP3    H259888   1.266   0.968   0.464  0.3753 -0.8662  1.0235
12825TIP3   OH259889   3.287   2.886  14.523  0.2199  0.7184  0.1526
12825TIP3    H159890   3.350   2.880  14.594 -0.2909  1.3821  0.6745
12825TIP3    H259891   3.328   2.943  14.458  0.0064  1.4629  0.6642
12826TIP3   OH259892   1.848   3.772  16.816 -0.3973  0.0413  0.3709
12826TIP3    H159893   1.785   3.705  16.841 -0.3777  0.3073  1.1443
12826TIP3    H259894   1.925   3.755  16.870  0.7498 -1.1080 -1.4896
12827TIP3   OH259895   3.632   3.535  12.746  0.2464 -0.3392  0.4822
12827TIP3    H159896   3.608   3.620  12.785 -1.6543 -0.2238 -0.8168
12827TIP3    H259897   3.667   3.557  12.660 -3.0977 -0.8809 -1.1942
12828TIP3   OH259898   4.311   5.014  12.524  0.1644 -0.1446 -0.1955
12828TIP3    H159899   4.261   4.991  12.446  0.2131 -0.7994 -0.0458
12828TIP3    H259900   4.401   5.023  12.494 -0.2844  3.3820 -0.9292
12829TIP3   OH259901   3.504   5.014   5.493 -0.2584 -0.3710  0.2021
12829TIP3    H159902   3.591   5.033   5.528 -0.8991  0.2875  1.5108
12829TIP3    H259903   3.447   5.078   5.536 -1.3462 -0.6009 -0.8603
12830TIP3   OH259904   6.086   6.086  13.802 -0.2530 -0.7887  0.2663
12830TIP3    H159905   6.051   5.997  13.794 -0.9980 -0.5783  1.0238
12830TIP3    H259906   6.116   6.108  13.714 -0.2201 -1.7215  0.0306
12831TIP3   OH259907   2.471   2.172  12.693  0.5034 -0.5956  0.5182
12831TIP3    H159908   2.382   2.205  12.686  0.0033 -1.7178  1.3185
12831TIP3    H259909   2.525   2.250  12.701 -0.5458  0.0725  1.3793
12832TIP3   OH259910   0.941   2.619  16.763  0.5288  0.5362  0.1848
12832TIP3    H159911   0.879   2.679  16.722 -0.1536 -0.0372  0.3700
12832TIP3    H259912   1.027   2.652  16.735  0.1503  1.2919 -0.1298
12833TIP3   OH259913   4.841   1.499  12.105  0.3933  0.3410  0.4097
12833TIP3    H159914   4.843   1.408  12.076  1.5961  0.4440  0.1128
12833TIP3    H259915   4.750   1.515  12.130 -0.0439 -0.6250 -0.5333
12834TIP3   OH259916   6.665   2.751  14.693  0.1996  0.5217 -0.0378
12834TIP3    H159917   6.749   2.705  14.699 -0.5212 -0.9752 -0.8202
12834TIP3    H259918   6.680   2.822  14.631  1.1266  0.8516  0.5493
12835TIP3   OH259919   2.710   6.448   3.130  0.1981  0.3955  0.1735
12835TIP3    H159920   2.803   6.443   3.110  0.0075  0.0766 -0.6687
12835TIP3    H259921   2.686   6.359   3.157 -0.4473 -0.2638 -2.3562
12836TIP3   OH259922   4.579   3.007   1.766  0.4165 -0.1217 -0.0480
12836TIP3    H159923   4.503   2.952   1.782  0.2013  0.8509  3.0546
12836TIP3    H259924   4.610   3.030   1.854  1.2330  3.5931 -1.1267
12837TIP3   OH259925   6.177   4.852   0.966  0.6517 -0.4039  0.0976
12837TIP3    H159926   6.094   4.897   0.978  0.6207 -0.3220 -0.3802
12837TIP3    H259927   6.194   4.809   1.050  0.6888  0.4936  0.5551
12838TIP3   OH259928   4.527   2.539   4.003 -0.2041  0.0848  0.1006
12838TIP3    H159929   4.610   2.552   4.049  0.1405  0.6135 -0.6431
12838TIP3    H259930   4.526   2.608   3.936 -2.0380  1.1730  1.1775
12839TIP3   OH259931   3.283   2.225   6.325 -0.1445 -0.5868 -0.3160
12839TIP3    H159932   3.240   2.310   6.318  0.4754 -0.0985  1.2557
12839TIP3    H259933   3.363   2.234   6.275  0.3364  0.0739  0.5391
12840TIP3   OH259934   1.264   3.612   3.271 -0.6028  0.4413  0.5591
12840TIP3    H159935   1.192   3.647   3.323  0.2575  2.1736  0.6484
12840TIP3    H259936   1.313   3.557   3.332 -1.6932 -0.5712  0.5528
12841TIP3   OH259937   5.692   0.732  17.054 -0.2535  0.4441  0.1949
12841TIP3    H159938   5.681   0.649  17.008 -0.6563 -0.5274  1.9446
12841TIP3    H259939   5.610   0.779  17.039 -0.0205  0.5510 -0.8077
12842TIP3   OH259940   2.809   1.891   5.684  0.4865 -0.6916 -0.2268
12842TIP3    H159941   2.828   1.985   5.692  1.3406 -0.9060  0.4324
12842TIP3    H259942   2.793   1.862   5.773 -1.5097 -0.8571 -0.6012
12843TIP3   OH259943   2.563   1.241   2.742  0.3179 -0.2132  0.2614
12843TIP3    H159944   2.530   1.213   2.657  1.1819 -1.9933  0.4710
12843TIP3    H259945   2.581   1.335   2.731  1.7962 -0.6878 -1.9829
12844TIP3   OH259946   2.538   3.958   1.402 -0.1769  0.2985 -0.8668
12844TIP3    H159947   2.553   3.906   1.324 -1.7462 -3.0253  0.8379
12844TIP3    H259948   2.505   4.042   1.369 -1.6610 -1.2799 -3.7630
12845TIP3   OH259949   3.108   2.657  14.799 -0.4687  0.1989 -0.3391
12845TIP3    H159950   3.168   2.600  14.847 -0.4191  1.5534  1.3242
12845TIP3    H259951   3.048   2.597  14.755  1.1031 -1.1578 -0.7590
12846TIP3   OH259952   6.193   0.899  11.491  0.5304 -0.6100 -0.0996
12846TIP3    H159953   6.288   0.884  11.485  1.0286  1.3537  1.8409
12846TIP3    H259954   6.165   0.843  11.563  0.6719  0.5378  0.8696
12847TIP3   OH259955   1.246   0.598   3.122 -0.0698  0.2042 -0.0120
12847TIP3    H159956   1.309   0.663   3.153 -1.6729  1.5521  0.6039
12847TIP3    H259957   1.189   0.647   3.062  0.6982 -1.4721 -2.2273
12848TIP3   OH259958   5.964   5.619   1.812 -0.1086  0.6183 -0.4955
12848TIP3    H159959   5.971   5.545   1.752  0.0848 -0.1253  0.4148
12848TIP3    H259960   6.036   5.677   1.788  0.0713  0.2473 -0.8597
12849TIP3   OH259961   5.939   6.654  12.745 -0.0125 -0.1420 -0.4066
12849TIP3    H159962   5.962   6.739  12.707  0.6354 -0.8823 -1.7203
12849TIP3    H259963   6.003   6.642  12.816  1.4014 -0.5470 -1.7023
12850TIP3   OH259964   1.141   1.498  14.398  0.0038  0.2178  0.0586
12850TIP3    H159965   1.078   1.561  14.364  0.5953  0.8949  0.2080
12850TIP3    H259966   1.226   1.529  14.366  0.0956 -1.9583 -2.1367
12851TIP3   OH259967   4.450   3.525  15.642 -0.7945 -0.1903  0.1718
12851TIP3    H159968   4.492   3.610  15.656 -1.2433 -0.0842  0.9045
12851TIP3    H259969   4.418   3.529  15.552 -0.7346  0.3814  0.1713
12852TIP3   OH259970   4.617   5.470   5.682  0.2563  0.2156  0.4733
12852TIP3    H159971   4.666   5.397   5.721  1.9501  1.4321  0.7586
12852TIP3    H259972   4.580   5.516   5.757  1.2762  1.0313  0.5011
12853TIP3   OH259973   0.897   5.916   3.964 -0.3959 -0.5797  0.1133
12853TIP3    H159974   0.851   5.988   4.009  0.6700  0.2114 -0.0293
12853TIP3    H259975   0.912   5.851   4.033  0.3632  0.2018  0.7049
12854TIP3   OH259976   3.204   6.209  12.391 -0.1122  0.3818  0.2634
12854TIP3    H159977   3.267   6.246  12.453 -0.8638  1.9361  0.1551
12854TIP3    H259978   3.120   6.245  12.419 -0.7301 -0.4309 -0.5156
12855TIP3   OH259979   0.042   4.592   3.718  0.5717  0.7996  0.0385
12855TIP3    H159980  -0.053   4.602   3.728  0.4711  0.1469 -0.2334
12855TIP3    H259981   0.056   4.497   3.712  1.1951  0.9132 -0.3852
12856TIP3   OH259982   0.565   1.415  15.868  0.1067  0.1200  0.6332
12856TIP3    H159983   0.599   1.504  15.864  0.2110  0.0714  0.3545
12856TIP3    H259984   0.482   1.422  15.915  0.3198  0.2993  0.9809
12857TIP3   OH259985   0.271   3.222   2.621 -0.2318 -0.2201  0.0840
12857TIP3    H159986   0.361   3.217   2.589  0.1900  0.9316  1.0114
12857TIP3    H259987   0.236   3.134   2.607  1.6671 -1.2806  1.5332
12858TIP3   OH259988   6.501   3.224  11.942 -0.4608 -0.3554  0.3681
12858TIP3    H159989   6.529   3.208  12.033 -0.8883  0.9183  0.7512
12858TIP3    H259990   6.511   3.319  11.931  2.7843 -0.7790 -1.9968
12859TIP3   OH259991   0.292   0.207   4.555 -0.0048 -0.2694  0.5051
12859TIP3    H159992   0.277   0.272   4.623 -0.3971  0.8563 -0.6081
12859TIP3    H259993   0.386   0.188   4.560 -0.2587 -1.2464  2.2252
12860TIP3   OH259994   6.417   5.778  15.138 -0.2081 -0.3834 -0.2315
12860TIP3    H159995   6.466   5.798  15.219 -0.5331 -0.2394 -0.0714
12860TIP3    H259996   6.485   5.750  15.076 -0.0285 -1.2546  0.3270
12861TIP3   OH259997   1.193   6.458   4.886 -0.1291  0.3501  0.4501
12861TIP3    H159998   1.167   6.490   4.799  0.1082 -0.6844 -0.0147
12861TIP3    H259999   1.112   6.425   4.925  0.0528 -0.8195 -0.1075
12862TIP3   OH260000   0.558   6.725   4.445 -0.6779  0.3694 -0.3833
12862TIP3    H160001   0.624   6.698   4.381  1.5620  5.1305 -0.5411
12862TIP3    H260002   0.475   6.696   4.408  0.9633 -2.4104 -2.2390
12863TIP3   OH260003   1.929   0.972  14.649 -0.3536  0.3508  0.0376
12863TIP3    H160004   1.903   0.900  14.592  2.3534  0.3902 -1.4156
12863TIP3    H260005   1.937   0.932  14.736 -1.7828 -0.3663 -0.1341
12864TIP3   OH260006   2.024   6.325   2.687  0.1327 -0.6268 -0.3586
12864TIP3    H160007   2.071   6.252   2.646  1.9107  0.4895 -0.4096
12864TIP3    H260008   1.937   6.323   2.647  1.2080 -0.6850 -2.8935
12865TIP3   OH260009   1.456   1.302  15.778 -0.4192 -0.3634 -0.2224
12865TIP3    H160010   1.400   1.357  15.833 -0.3428  3.6454 -3.6546
12865TIP3    H260011   1.395   1.243  15.734 -0.9530 -0.8969  1.1737
12866TIP3   OH260012   2.924   3.208  13.962 -0.0577 -0.3400  0.4149
12866TIP3    H160013   2.965   3.137  14.011  1.3988  0.8548  1.0018
12866TIP3    H260014   2.961   3.201  13.874 -0.2707 -0.5973  0.3470
12867TIP3   OH260015   4.667   6.746   1.649  0.1287 -0.4833 -0.3476
12867TIP3    H160016   4.642   6.804   1.722  0.2040  3.0194 -2.8707
12867TIP3    H260017   4.756   6.775   1.625  1.0548 -3.1488 -0.4615
12868TIP3   OH260018   1.381   2.396   4.021 -0.9280 -0.2024 -0.0931
12868TIP3    H160019   1.436   2.332   3.974 -1.0566  0.6453 -1.4485
12868TIP3    H260020   1.296   2.390   3.978 -1.7913 -1.0856  1.6109
12869TIP3   OH260021   2.059   1.915  12.172  0.0723  0.4249  0.6255
12869TIP3    H160022   2.077   1.956  12.256 -1.4364 -0.6703  1.5401
12869TIP3    H260023   2.022   1.829  12.195  1.1553 -0.5809 -1.1777
12870TIP3   OH260024   0.205   4.342  16.294  0.6098  0.2842  0.4218
12870TIP3    H160025   0.290   4.302  16.278  0.9807  0.8719  0.8924
12870TIP3    H260026   0.220   4.436  16.282 -0.0209  0.3773  0.3028
12871TIP3   OH260027   1.887   3.249  14.602 -0.3577 -0.3252  0.0267
12871TIP3    H160028   1.927   3.243  14.689 -0.0829  1.1552  0.0272
12871TIP3    H260029   1.793   3.241  14.618 -0.2105 -2.3153  0.1869
12872TIP3   OH260030   1.051   2.157   1.881  0.1520  0.2351 -0.0176
12872TIP3    H160031   1.127   2.205   1.849  0.1243 -0.2213 -0.8009
12872TIP3    H260032   1.087   2.072   1.907 -0.2892 -0.5973 -1.9144
12873TIP3   OH260033   5.296   1.231  13.916 -0.5967 -0.0556 -0.2200
12873TIP3    H160034   5.317   1.320  13.947  0.8744 -1.3293  2.8244
12873TIP3    H260035   5.202   1.222  13.931 -0.4276  0.3780  1.2496
12874TIP3   OH260036   1.811   1.582  15.870  0.7424 -0.0212  0.0040
12874TIP3    H160037   1.793   1.641  15.944  0.1992 -1.2900  0.9202
12874TIP3    H260038   1.906   1.567  15.874  0.4452 -1.9040  1.9446
12875TIP3   OH260039   2.758   0.102   3.947 -0.2943  0.3691 -0.0482
12875TIP3    H160040   2.844   0.144   3.939 -0.3380  0.1849 -1.7063
12875TIP3    H260041   2.733   0.116   4.039  1.3134  0.7810  0.3573
12876TIP3   OH260042   2.114   6.094  12.530 -0.3992 -0.2324  0.4212
12876TIP3    H160043   2.126   6.188  12.536 -0.7252 -0.0514 -1.2046
12876TIP3    H260044   2.065   6.070  12.609 -1.0377  1.0940  0.4475
12877TIP3   OH260045   3.388   6.704  13.288 -0.0579  0.2164  0.1195
12877TIP3    H160046   3.387   6.724  13.381  1.6410 -0.0582  0.2195
12877TIP3    H260047   3.371   6.788  13.245 -1.2682  0.2648  0.6608
12878TIP3   OH260048   0.953   5.271   4.935  0.0069 -0.4138  0.0173
12878TIP3    H160049   0.980   5.187   4.897  0.3068 -0.8940  1.2460
12878TIP3    H260050   1.017   5.288   5.004 -0.1625  0.7427 -0.0892
12879TIP3   OH260051   4.532   1.906  14.392  0.7864 -0.1205 -0.7222
12879TIP3    H160052   4.584   1.874  14.466  1.9732  0.6284 -1.1970
12879TIP3    H260053   4.493   1.827  14.355  2.5040 -0.8768 -1.0163
12880TIP3   OH260054   5.975   3.579   6.527 -0.4698 -1.0465  1.0312
12880TIP3    H160055   5.917   3.633   6.473  0.0768 -1.2696  0.2018
12880TIP3    H260056   6.063   3.605   6.500 -0.1900 -2.8825  0.0536
12881TIP3   OH260057   6.149   6.466   3.916  0.0427 -0.1210  0.3327
12881TIP3    H160058   6.209   6.406   3.961  0.7529  0.7435  0.5556
12881TIP3    H260059   6.098   6.409   3.859 -0.9240 -1.2537  2.2438
12882TIP3   OH260060   6.307   0.126   0.955 -0.2099 -0.2463 -0.6799
12882TIP3    H160061   6.402   0.116   0.961 -0.3619 -1.7013 -0.3959
12882TIP3    H260062   6.291   0.158   0.866  0.6400  1.7207 -0.1906
12883TIP3   OH260063   0.989   1.740  12.836  0.3135  0.4300  0.0082
12883TIP3    H160064   0.957   1.652  12.855 -0.1018  0.2775 -1.3155
12883TIP3    H260065   0.986   1.747  12.741  1.9732  1.2800 -0.0196
12884TIP3   OH260066   2.877   1.376   5.498 -0.0459 -0.8098 -0.0935
12884TIP3    H160067   2.810   1.385   5.566  0.6696 -0.7167  0.6213
12884TIP3    H260068   2.960   1.372   5.547  0.6077  0.6832 -1.0197
12885TIP3   OH260069   4.507   2.830  10.368  0.0472  0.9904  0.2281
12885TIP3    H160070   4.590   2.858  10.408  0.3722  0.0178  0.2826
12885TIP3    H260071   4.440   2.862  10.428  0.4512  0.8439  0.7679
12886TIP3   OH260072   2.697   0.118  15.101 -0.4967  0.1728 -0.0494
12886TIP3    H160073   2.746   0.041  15.130 -0.1743  0.2273 -0.4591
12886TIP3    H260074   2.656   0.150  15.181 -1.0508 -0.7195  0.0415
12887TIP3   OH260075   5.389   6.078  15.250 -0.3739  0.1711  0.1695
12887TIP3    H160076   5.445   6.129  15.192 -0.1432 -0.0763  0.1757
12887TIP3    H260077   5.317   6.050  15.194 -0.2391  0.0761  0.0443
12888TIP3   OH260078   3.906   4.840   4.201  0.4773 -0.4919  0.7739
12888TIP3    H160079   3.851   4.788   4.260 -0.8818  1.5930  1.4776
12888TIP3    H260080   3.907   4.927   4.241  0.6422  0.6622 -1.5885
12889TIP3   OH260081   0.069   5.112  14.153  0.5596  0.0975 -0.4961
12889TIP3    H160082   0.033   5.138  14.068 -0.2509 -0.4048 -0.3217
12889TIP3    H260083   0.016   5.036  14.178  0.4523  0.5465  0.6848
12890TIP3   OH260084   3.808   2.594   0.215  0.2178 -0.5986 -0.1931
12890TIP3    H160085   3.748   2.530   0.253  0.6519 -1.7611 -1.3952
12890TIP3    H260086   3.761   2.677   0.220 -0.1341 -0.8689  1.9126
12891TIP3   OH260087   4.673   1.982   3.343  0.6904  0.4923  0.1493
12891TIP3    H160088   4.648   1.890   3.344  3.4436 -0.3239  0.3801
12891TIP3    H260089   4.708   1.997   3.256  1.1550  1.0424  0.4217
12892TIP3   OH260090   5.655   2.107   2.132 -0.0924 -0.6844 -0.4380
12892TIP3    H160091   5.713   2.145   2.066 -0.2708 -0.3219 -0.3903
12892TIP3    H260092   5.705   2.111   2.214 -0.1142 -0.5348 -0.4309
12893TIP3   OH260093   6.734   3.908  13.414  0.8661  0.5164  0.1867
12893TIP3    H160094   6.816   3.871  13.381  1.2045  2.0158 -0.7765
12893TIP3    H260095   6.720   3.986  13.360 -1.1982  0.2984  0.3281
12894TIP3   OH260096   3.480   3.899   0.596  0.4402  0.0447 -0.2359
12894TIP3    H160097   3.564   3.940   0.611 -0.3823  1.5959  0.3332
12894TIP3    H260098   3.453   3.929   0.510 -0.9107  2.1576  0.8440
12895TIP3   OH260099   1.311   2.550  13.060  0.0147  0.8264 -0.1911
12895TIP3    H160100   1.333   2.625  13.004 -1.3829  1.6417  0.3053
12895TIP3    H260101   1.267   2.588  13.135 -2.1297 -0.5903 -0.6486
12896TIP3   OH260102   1.894   0.431   4.301  0.2019 -0.0454 -0.8831
12896TIP3    H160103   1.934   0.419   4.215 -1.7363 -1.8602 -1.6155
12896TIP3    H260104   1.806   0.395   4.292 -1.0159  2.1737  1.1363
12897TIP3   OH260105   0.201   0.834   3.690  0.3822 -0.5037  0.2661
12897TIP3    H160106   0.185   0.928   3.688 -2.4534 -0.8686 -1.9215
12897TIP3    H260107   0.208   0.812   3.783 -0.0596  1.6838  0.8728
12898TIP3   OH260108   1.530   2.179  13.576 -0.1725 -0.3384  0.1345
12898TIP3    H160109   1.487   2.264  13.569  1.9279  0.7693 -0.2257
12898TIP3    H260110   1.552   2.172  13.669 -0.4696 -0.5532  0.1880
12899TIP3   OH260111   4.707   3.019   5.924  0.2477  0.1820  0.0207
12899TIP3    H160112   4.649   2.967   5.869  1.4455 -0.8328 -0.3487
12899TIP3    H260113   4.677   3.003   6.013 -1.6003  1.6983 -0.2834
12900TIP3   OH260114   4.940   3.124  15.028  0.2594 -0.7026 -0.0444
12900TIP3    H160115   4.914   3.196  15.085 -1.2098 -2.1642  1.2382
12900TIP3    H260116   5.035   3.120  15.035  0.4577  1.4983 -0.7054
12901TIP3   OH260117   3.869   6.490  12.630 -0.3008 -0.2599 -0.1947
12901TIP3    H160118   3.782   6.509  12.597 -0.8120 -2.4922 -0.2821
12901TIP3    H260119   3.868   6.522  12.720 -0.8481  0.6190 -0.4958
12902TIP3   OH260120   2.413   2.562   3.700  0.6651 -0.3358  0.3520
12902TIP3    H160121   2.395   2.468   3.709  0.3596 -0.0934  3.7940
12902TIP3    H260122   2.498   2.566   3.657  0.0172 -2.1135 -1.2243
12903TIP3   OH260123   3.091   1.816  14.657 -0.1492 -0.3100 -0.0157
12903TIP3    H160124   3.173   1.851  14.691 -0.0308 -0.9859  0.4022
12903TIP3    H260125   3.105   1.809  14.562 -0.1230  0.6147 -0.0912
12904TIP3   OH260126   5.107   1.777   3.997  0.2157 -0.4040 -0.5808
12904TIP3    H160127   5.075   1.689   3.975  1.7572 -0.7755 -1.4855
12904TIP3    H260128   5.051   1.836   3.946 -0.7628 -0.8506 -0.0481
12905TIP3   OH260129   1.105   1.070  16.839  0.1080 -0.3903 -0.3036
12905TIP3    H160130   1.162   1.136  16.878 -1.4668 -0.4897  2.4717
12905TIP3    H260131   1.056   1.116  16.772  1.7532  0.2467 -1.1127
12906TIP3   OH260132   6.307   1.258   0.815  0.1594 -0.0138  0.3478
12906TIP3    H160133   6.388   1.306   0.828 -0.0488  0.5048 -0.2283
12906TIP3    H260134   6.333   1.179   0.767  0.4261 -0.2349  0.8436
12907TIP3   OH260135   4.887   2.731   3.575 -0.5541 -0.0789 -0.2611
12907TIP3    H160136   4.942   2.687   3.640 -1.9751  0.4995  1.3918
12907TIP3    H260137   4.823   2.665   3.550 -0.3691 -0.1132 -0.6546
12908TIP3   OH260138   0.302   2.758  16.076 -0.4238 -0.9071 -0.6040
12908TIP3    H160139   0.211   2.774  16.103 -0.3051 -0.0033 -0.7032
12908TIP3    H260140   0.319   2.824  16.009  1.1000  0.6606  1.2009
12909TIP3   OH260141   2.759   3.830  15.776  0.2199 -0.8358  0.9145
12909TIP3    H160142   2.670   3.822  15.811  0.0593 -0.1264  0.6919
12909TIP3    H260143   2.776   3.746  15.734 -1.1063 -0.3606 -0.7437
12910TIP3   OH260144   4.433   3.586   2.543  0.1511 -0.0988 -0.1327
12910TIP3    H160145   4.407   3.668   2.501 -0.6926  0.1484  0.8497
12910TIP3    H260146   4.509   3.609   2.596  2.0230 -0.6603 -2.3843
12911TIP3   OH260147   6.561   3.077   0.588 -0.1874  0.1783 -0.0499
12911TIP3    H160148   6.581   3.045   0.676  0.1849 -0.3963 -0.3321
12911TIP3    H260149   6.586   3.169   0.589  2.1914 -0.4049 -0.2627
12912TIP3   OH260150   0.936   4.997   4.299  0.3347 -0.5779 -0.7396
12912TIP3    H160151   1.028   4.970   4.291  1.0782  0.9663  1.6589
12912TIP3    H260152   0.924   5.063   4.231  2.1495  1.8139  1.0876
12913TIP3   OH260153   6.241   5.831   4.725 -0.1134 -0.2885  0.8554
12913TIP3    H160154   6.266   5.911   4.772  2.3043  0.5909 -1.6310
12913TIP3    H260155   6.306   5.766   4.753 -1.3643 -1.1211  1.9756
12914TIP3   OH260156   6.337   2.998  13.845 -0.2114  0.1983  0.7465
12914TIP3    H160157   6.399   3.003  13.918  0.6086 -2.0855  0.2843
12914TIP3    H260158   6.253   3.022  13.883  0.6762  2.1334  1.6828
12915TIP3   OH260159   0.125   2.000   2.949  0.2933  0.2562  0.1288
12915TIP3    H160160   0.215   1.973   2.969  0.8550  1.1469 -1.0908
12915TIP3    H260161   0.106   1.960   2.864 -0.5756 -0.1405  0.4957
12916TIP3   OH260162   6.743   2.364   3.460  0.5390 -0.3318  0.2169
12916TIP3    H160163   6.812   2.381   3.396  0.6270  1.0072  0.6290
12916TIP3    H260164   6.738   2.445   3.511 -0.6213 -0.7929  0.8652
12917TIP3   OH260165   0.594   2.166   4.395 -0.0619 -0.1275  0.2328
12917TIP3    H160166   0.526   2.207   4.342  0.8553  1.0687 -0.0457
12917TIP3    H260167   0.566   2.074   4.401 -1.6170  0.2950  0.0171
12918TIP3   OH260168   4.511   6.513  15.573 -0.2107  0.0844  0.5588
12918TIP3    H160169   4.531   6.552  15.488  0.0243  0.0421  0.5956
12918TIP3    H260170   4.486   6.423  15.553  2.9932 -0.9736  0.8047
12919TIP3   OH260171   0.842   2.067  13.249 -0.4572  0.5616  0.0843
12919TIP3    H160172   0.861   1.988  13.198  1.8478 -0.0033  1.6793
12919TIP3    H260173   0.821   2.035  13.337  3.1719  1.6411  1.5419
12920TIP3   OH260174   5.372   3.952  12.527  0.2530 -0.4646  0.3265
12920TIP3    H160175   5.382   3.889  12.599 -0.2456 -1.8111 -0.7286
12920TIP3    H260176   5.313   4.019  12.561  0.1742 -0.9757  1.2298
12921TIP3   OH260177   0.874   1.769  11.192  0.1457 -0.0610 -0.0703
12921TIP3    H160178   0.887   1.682  11.232  0.2707 -0.6697 -1.3873
12921TIP3    H260179   0.941   1.824  11.233  2.7006 -1.5453 -1.9382
12922TIP3   OH260180   4.792   3.106  16.611  0.2968  0.5005 -0.0382
12922TIP3    H160181   4.787   3.011  16.622  1.1724  0.5636  1.0241
12922TIP3    H260182   4.773   3.120  16.518 -0.7833 -0.6181 -0.0102
12923TIP3   OH260183   0.737   1.384   4.472 -0.3135  0.2969  0.1845
12923TIP3    H160184   0.815   1.438   4.467 -0.8779  1.0955 -0.1997
12923TIP3    H260185   0.728   1.363   4.565 -0.8051  1.9791  0.5464
12924TIP3   OH260186   6.787   4.209   2.644  0.5571  0.2064  0.1178
12924TIP3    H160187   6.835   4.133   2.677  2.8570  2.3020  1.9794
12924TIP3    H260188   6.755   4.253   2.722 -3.0107 -0.0651 -0.9913
12925TIP3   OH260189   5.026   4.153   1.353 -0.6131 -0.2237  0.3031
12925TIP3    H160190   4.987   4.239   1.366 -1.6981 -0.5543 -0.5230
12925TIP3    H260191   4.955   4.101   1.315  0.9289 -0.5830 -2.2979
12926TIP3   OH260192   3.556   6.003  12.942  0.0517 -0.0880 -0.1931
12926TIP3    H160193   3.484   5.941  12.946  1.1001 -1.3136  0.5054
12926TIP3    H260194   3.521   6.083  12.982 -1.3252 -0.1832 -1.1388
12927TIP3   OH260195   3.521   0.813  10.762  0.0889  0.2831  0.3496
12927TIP3    H160196   3.440   0.789  10.717 -0.7604  0.5141  1.6928
12927TIP3    H260197   3.559   0.730  10.790 -0.0293  0.2096  0.2928
12928TIP3   OH260198   2.424   4.472   4.979  0.0131 -0.1769 -0.3589
12928TIP3    H160199   2.399   4.563   4.962 -2.4994 -0.8874 -0.8236
12928TIP3    H260200   2.385   4.453   5.064  0.7563 -0.7591 -0.1443
12929TIP3   OH260201   6.593   5.195   4.389 -0.6085 -0.0322  0.2814
12929TIP3    H160202   6.671   5.207   4.444 -0.0062 -0.6045 -0.4132
12929TIP3    H260203   6.523   5.175   4.450 -0.5275  1.7920  1.0446
12930TIP3   OH260204   4.993   4.211   2.098  0.6496 -0.1431 -0.3584
12930TIP3    H160205   5.006   4.255   2.181  0.0826  1.9328 -1.3196
12930TIP3    H260206   5.081   4.188   2.069  0.9999  0.7245 -0.0063
12931TIP3   OH260207   6.618   1.598  15.569  0.0277  0.1399 -0.5538
12931TIP3    H160208   6.705   1.631  15.547 -0.5310  1.1015 -1.4041
12931TIP3    H260209   6.600   1.635  15.655  0.3552  0.1390 -0.4835
12932TIP3   OH260210   0.990   5.987  13.337 -0.0540  0.4217 -0.2555
12932TIP3    H160211   0.926   5.918  13.354  0.8302 -1.2997 -3.1158
12932TIP3    H260212   1.067   5.940  13.304  1.0355  2.7170 -1.1944
12933TIP3   OH260213   3.385   4.452  10.921 -0.3991  0.3274  0.2489
12933TIP3    H160214   3.479   4.472  10.926  0.1189 -1.3181 -1.6811
12933TIP3    H260215   3.369   4.396  10.998  0.0279  1.1307  0.9439
12934TIP3   OH260216   3.344   2.615   3.043  0.0084  0.1985  0.9158
12934TIP3    H160217   3.320   2.525   3.025 -1.1606  0.4619  1.0688
12934TIP3    H260218   3.426   2.628   2.996 -0.5877 -0.4991 -0.3650
12935TIP3   OH260219   2.986   6.557  13.725  0.6745 -0.4775  0.1874
12935TIP3    H160220   2.940   6.477  13.748  0.3342 -0.1301  0.7267
12935TIP3    H260221   3.069   6.553  13.773  0.6613 -0.5118  0.2065
12936TIP3   OH260222   1.515   4.538   2.847 -0.0650 -0.8527  0.0455
12936TIP3    H160223   1.575   4.605   2.879 -0.4313 -0.3105 -0.3861
12936TIP3    H260224   1.486   4.492   2.926 -0.5238  0.0999  0.4443
12937TIP3   OH260225   5.397   4.520  11.762  0.6563 -0.1387  0.3508
12937TIP3    H160226   5.410   4.427  11.777 -1.3300 -0.1195  2.6882
12937TIP3    H260227   5.321   4.525  11.705  1.2666  0.0757 -0.4690
12938TIP3   OH260228   5.827   3.912   4.310  0.2831 -0.0485  0.4848
12938TIP3    H160229   5.762   3.965   4.357  0.3521  1.4309 -0.9965
12938TIP3    H260230   5.826   3.947   4.221  1.1481 -1.8506 -0.2680
12939TIP3   OH260231   3.617   3.785   5.794  0.5733 -0.5353  0.2305
12939TIP3    H160232   3.559   3.789   5.869 -0.4877  0.7751 -0.5934
12939TIP3    H260233   3.656   3.873   5.789  1.3747 -0.8968 -0.1966
12940TIP3   OH260234   5.338   3.081  15.377  0.2055  0.3240  0.1383
12940TIP3    H160235   5.348   3.041  15.463  1.6295  0.0134 -0.1322
12940TIP3    H260236   5.396   3.158  15.379  1.0525 -0.2513 -0.8419
12941TIP3   OH260237   4.929   5.545   5.435 -0.9753 -0.6859  0.0860
12941TIP3    H160238   5.006   5.498   5.403 -0.2224 -0.9438  2.1137
12941TIP3    H260239   4.874   5.556   5.358  1.5237  0.4270 -1.6867
12942TIP3   OH260240   4.730   3.923   3.804  0.3238  0.1966  0.1952
12942TIP3    H160241   4.756   3.875   3.725 -1.2479 -0.2084 -0.1156
12942TIP3    H260242   4.813   3.946   3.846  1.1976 -2.6823  0.2923
12943TIP3   OH260243   5.654   5.782  16.889 -0.0910  0.0739  0.6523
12943TIP3    H160244   5.712   5.707  16.874  0.5718  0.7132 -0.0194
12943TIP3    H260245   5.702   5.838  16.950  0.2899  0.8947 -0.3672
12944TIP3   OH260246   5.591   1.414  12.091 -0.0041 -0.6369 -0.1613
12944TIP3    H160247   5.568   1.341  12.034 -0.7254 -0.7648  0.2882
12944TIP3    H260248   5.507   1.448  12.122  0.3876 -1.0124  1.3872
12945TIP3   OH260249   3.764   5.315   0.091 -0.4461 -0.5539 -0.4179
12945TIP3    H160250   3.693   5.340   0.151 -0.1740 -0.5021 -0.1150
12945TIP3    H260251   3.814   5.396   0.079 -1.2095 -0.2496 -1.6989
12946TIP3   OH260252   4.304   3.235  12.113 -0.3017  0.9387 -0.8015
12946TIP3    H160253   4.256   3.186  12.180 -1.3220 -0.6220 -2.5583
12946TIP3    H260254   4.239   3.298  12.080 -0.4473  0.3715 -1.6246
12947TIP3   OH260255   6.490   1.944  16.434  0.0052 -0.1345 -0.3483
12947TIP3    H160256   6.403   1.978  16.411  0.2875  0.1016 -1.0896
12947TIP3    H260257   6.551   2.010  16.402  0.4150  0.9346  2.3179
12948TIP3   OH260258   3.182   3.176  11.736  0.7708  0.2987 -0.8421
12948TIP3    H160259   3.249   3.112  11.761 -0.0012 -0.2487 -0.1240
12948TIP3    H260260   3.223   3.226  11.666  1.2445 -1.2805 -1.7620
12949TIP3   OH260261   4.402   6.146   3.638  0.2926  0.0666 -0.7171
12949TIP3    H160262   4.443   6.061   3.624  0.6863  0.1418 -0.0696
12949TIP3    H260263   4.389   6.181   3.550  2.2208  0.3274 -0.9292
12950TIP3   OH260264   2.627   6.468   1.499  0.8887 -0.0606 -0.6972
12950TIP3    H160265   2.697   6.403   1.489  2.1546  1.3397 -1.3389
12950TIP3    H260266   2.647   6.511   1.582  1.7672  1.4048 -1.6196
12951TIP3   OH260267   5.817   4.701  14.308  0.2205  0.3924 -0.7970
12951TIP3    H160268   5.842   4.610  14.329  1.5386  0.9857  0.3591
12951TIP3    H260269   5.722   4.701  14.315 -0.0515 -1.4287 -3.1135
12952TIP3   OH260270   2.423   1.828   4.085 -0.2859 -0.1889 -0.3611
12952TIP3    H160271   2.386   1.841   4.173 -2.0189  2.0489 -1.3316
12952TIP3    H260272   2.353   1.784   4.036  0.1908 -0.2956 -0.9531
12953TIP3   OH260273   6.708   4.935   1.984  0.7219 -0.2888 -0.0130
12953TIP3    H160274   6.741   4.993   1.915 -0.5438  0.5205  0.0280
12953TIP3    H260275   6.618   4.916   1.957  0.5294 -0.7466  0.9338
12954TIP3   OH260276   2.259   2.398  14.254 -0.1320 -0.1620 -0.4469
12954TIP3    H160277   2.272   2.322  14.197 -0.0264  1.3438 -2.5521
12954TIP3    H260278   2.254   2.472  14.194 -1.6559  1.3575  1.4179
12955TIP3   OH260279   5.878   1.724   2.168  0.2593 -0.1860  0.7872
12955TIP3    H160280   5.935   1.788   2.210  1.7868 -0.9800  0.0485
12955TIP3    H260281   5.898   1.732   2.074 -0.4037 -0.9134  0.5676
12956TIP3   OH260282   1.627   4.097   2.737  0.1380  0.0179  0.3076
12956TIP3    H160283   1.614   4.154   2.813 -2.7131 -1.0986  0.7793
12956TIP3    H260284   1.559   4.125   2.675  1.4273 -0.1187 -1.2145
12957TIP3   OH260285   3.458   2.285  11.276 -0.2935 -0.0589  0.1106
12957TIP3    H160286   3.473   2.195  11.303  0.1577  0.5579  2.1068
12957TIP3    H260287   3.452   2.334  11.358 -0.8321  1.6852 -0.9099
12958TIP3   OH260288   3.583   0.434   6.053  0.3427 -0.1370 -0.8658
12958TIP3    H160289   3.570   0.529   6.062 -2.1094 -0.5048  0.4401
12958TIP3    H260290   3.631   0.409   6.132 -0.0860 -0.1187 -0.5927
12959TIP3   OH260291   2.496   3.628   4.250 -0.1680 -0.0804 -0.6055
12959TIP3    H160292   2.511   3.534   4.240  0.2702 -0.1779  0.8434
12959TIP3    H260293   2.523   3.665   4.165  3.4693 -0.8432  0.0419
12960TIP3   OH260294   5.989   6.786   0.629  0.0827  0.2563  0.3151
12960TIP3    H160295   6.008   6.839   0.706 -0.2546 -1.0219  1.3161
12960TIP3    H260296   5.893   6.791   0.620 -0.0023 -0.5168  0.6902
12961TIP3   OH260297   4.978   4.883   3.226 -0.2685 -0.0492  0.2565
12961TIP3    H160298   5.056   4.895   3.280  1.7349 -0.2913 -2.4067
12961TIP3    H260299   4.998   4.927   3.144 -3.5195  1.0343 -0.1033
12962TIP3   OH260300   1.538   1.543   0.792  0.0701  0.4813 -0.1455
12962TIP3    H160301   1.544   1.447   0.795  0.2657  0.3902 -1.9823
12962TIP3    H260302   1.587   1.573   0.868  0.4691 -0.8617  0.1548
12963TIP3   OH260303   5.761   1.742   5.537  0.0088 -0.2963 -0.1081
12963TIP3    H160304   5.851   1.746   5.568  0.0810 -2.8367  0.2529
12963TIP3    H260305   5.766   1.761   5.444  0.8743 -0.1818 -0.0397
12964TIP3   OH260306   3.077   0.145   6.473 -0.1330 -0.3400  0.2742
12964TIP3    H160307   3.019   0.069   6.481 -1.7490  0.7484 -0.5162
12964TIP3    H260308   3.125   0.147   6.555 -1.3498 -1.1996  1.0406
12965TIP3   OH260309   1.299   3.695  14.575  0.2205 -0.0049  0.0562
12965TIP3    H160310   1.212   3.735  14.575  0.3481  0.2839  0.3747
12965TIP3    H260311   1.346   3.739  14.505  1.2449  2.4284  2.1041
12966TIP3   OH260312   3.427   1.139   4.261 -0.2199 -0.4305  0.2037
12966TIP3    H160313   3.443   1.232   4.278 -0.7623  0.1023 -1.8551
12966TIP3    H260314   3.514   1.103   4.244 -0.1763  0.1908 -1.0065
12967TIP3   OH260315   2.633   0.801   1.628  0.0441 -0.1380  0.1182
12967TIP3    H160316   2.670   0.742   1.694 -1.0366 -0.4809  0.4461
12967TIP3    H260317   2.543   0.815   1.657 -0.5062 -0.4278 -1.3778
12968TIP3   OH260318   3.886   5.850  13.548  0.5997 -0.1949  0.5176
12968TIP3    H160319   3.887   5.912  13.475  0.0410 -1.1452 -0.3279
12968TIP3    H260320   3.979   5.836  13.568  0.9373 -1.8819 -1.7744
12969TIP3   OH260321   3.553   5.643  10.919  0.0210  0.2027 -0.3072
12969TIP3    H160322   3.523   5.554  10.937  1.0729 -0.0585  0.2231
12969TIP3    H260323   3.585   5.676  11.003 -0.3865  1.1077 -0.4860
12970TIP3   OH260324   2.512   4.308   2.435 -0.2008 -0.7846 -0.3948
12970TIP3    H160325   2.599   4.343   2.455 -0.1962 -0.6662 -0.6170
12970TIP3    H260326   2.478   4.366   2.367 -0.5822 -0.6459 -0.0862
12971TIP3   OH260327   2.474   0.166  13.789 -0.0626  0.0709  0.2083
12971TIP3    H160328   2.438   0.163  13.878 -1.4106  1.6879 -0.2344
12971TIP3    H260329   2.399   0.186  13.733  0.8151 -0.6228 -1.2929
12972TIP3   OH260330   4.292   3.805  14.057 -0.7614  0.5802  0.3340
12972TIP3    H160331   4.376   3.851  14.062 -0.5759  0.4731 -1.3085
12972TIP3    H260332   4.242   3.840  14.131  1.0820 -0.1609  2.0508
12973TIP3   OH260333   0.429   5.855   1.290 -0.2168 -0.0227 -0.6194
12973TIP3    H160334   0.418   5.907   1.210 -1.4329  1.7434  0.6163
12973TIP3    H260335   0.350   5.871   1.340  0.7296 -0.6654  1.1826
12974TIP3   OH260336   3.353   1.302   4.624  0.0166  0.2618 -0.3893
12974TIP3    H160337   3.295   1.362   4.578  1.4625  0.8469 -1.5650
12974TIP3    H260338   3.306   1.219   4.624 -1.9936  1.3074  1.2021
12975TIP3   OH260339   5.458   4.130   3.423  0.5055  0.6670  0.1110
12975TIP3    H160340   5.363   4.131   3.409  0.7498 -0.7045 -2.3350
12975TIP3    H260341   5.472   4.183   3.501 -2.3604  0.0431  1.1817
12976TIP3   OH260342   6.428   0.562  13.839 -0.8778 -0.1707  0.6476
12976TIP3    H160343   6.411   0.534  13.929  0.7722 -0.9813  0.7447
12976TIP3    H260344   6.403   0.487  13.785  0.5204 -0.6789  0.6590
12977TIP3   OH260345   5.903   5.831   5.034 -0.0365 -0.1327  0.3543
12977TIP3    H160346   5.874   5.887   4.962 -0.8917 -0.7600  0.1983
12977TIP3    H260347   5.936   5.752   4.990 -2.4167 -1.3737  0.6831
12978TIP3   OH260348   2.740   5.130   1.029 -0.0208 -0.2175  0.1476
12978TIP3    H160349   2.783   5.158   0.948  2.1873  2.2824  1.9713
12978TIP3    H260350   2.802   5.069   1.069 -0.2003  0.0413  0.8316
12979TIP3   OH260351   2.882   5.378   1.757  0.2799 -0.3801  0.0737
12979TIP3    H160352   2.913   5.468   1.746 -0.2289 -0.1339  0.6308
12979TIP3    H260353   2.897   5.359   1.849 -0.6550 -0.4688  0.2129
12980TIP3   OH260354   2.299   6.241  15.062  0.1858  0.2775  0.1783
12980TIP3    H160355   2.390   6.219  15.042 -0.1683  0.0701 -1.3507
12980TIP3    H260356   2.284   6.324  15.016 -1.3110 -1.3195 -2.4111
12981TIP3   OH260357   6.402   4.910   0.827  0.2562 -0.0764  0.4240
12981TIP3    H160358   6.313   4.940   0.845  0.5309  0.5967  0.6961
12981TIP3    H260359   6.442   4.899   0.913  0.5259 -0.0931  0.2979
12982TIP3   OH260360   1.544   5.344  15.124  0.0363 -0.2379 -0.0338
12982TIP3    H160361   1.480   5.365  15.193 -0.2768 -1.9216  0.2208
12982TIP3    H260362   1.520   5.402  15.052  0.1032  1.2608  1.0933
12983TIP3   OH260363   3.724   1.838   2.538 -0.4677  0.2353 -0.4103
12983TIP3    H160364   3.796   1.854   2.599  0.3248 -1.3910 -0.8671
12983TIP3    H260365   3.718   1.743   2.532  0.1457  0.2745 -3.5522
12984TIP3   OH260366   1.908   2.353  16.115 -0.2459  0.2910  0.3940
12984TIP3    H160367   1.895   2.258  16.120  0.7455  0.1622  0.9616
12984TIP3    H260368   1.821   2.390  16.128 -0.4754 -0.5275  1.3782
12985TIP3   OH260369   2.524   2.225  13.870  0.3132 -0.2164  0.1950
12985TIP3    H160370   2.570   2.141  13.863 -1.2921 -1.2487  1.1873
12985TIP3    H260371   2.592   2.288  13.894  1.2846 -1.5812  1.1615
12986TIP3   OH260372   0.835   2.847  13.295  0.4482  0.3222  0.2086
12986TIP3    H160373   0.809   2.816  13.208 -0.6199 -1.0879  0.9858
12986TIP3    H260374   0.780   2.925  13.310 -0.0776 -0.0011 -0.0015
12987TIP3   OH260375   4.547   1.595   6.687 -0.4303  0.0653  0.1184
12987TIP3    H160376   4.615   1.640   6.637  0.0632 -0.5657  0.2117
12987TIP3    H260377   4.517   1.525   6.629 -0.4365 -0.1544  0.3879
12988TIP3   OH260378   5.189   3.296  17.195  0.8175 -0.1409  1.0532
12988TIP3    H160379   5.188   3.336  17.283  0.7156 -0.8922  1.3997
12988TIP3    H260380   5.264   3.337  17.152  0.4971  0.7023  1.2617
12989TIP3   OH260381   2.939   4.813  16.770  0.2420  0.0103 -0.0742
12989TIP3    H160382   2.857   4.780  16.807 -0.6424  2.1806  0.0462
12989TIP3    H260383   2.987   4.847  16.845  0.7078 -0.1281 -0.3063
12990TIP3   OH260384   2.433   2.884  16.752  0.3886  0.3636 -0.2980
12990TIP3    H160385   2.472   2.797  16.741  1.3543  0.6885  0.4528
12990TIP3    H260386   2.471   2.936  16.681 -0.3916  0.1139 -0.9058
12991TIP3   OH260387   4.126   5.333  13.953  0.0554  0.4248 -0.2895
12991TIP3    H160388   4.072   5.286  13.889 -0.1477  1.1757 -0.6724
12991TIP3    H260389   4.122   5.278  14.032  2.2905 -1.8481 -1.5953
12992TIP3   OH260390   2.226   3.065  14.703 -0.4750  0.4288 -0.0733
12992TIP3    H160391   2.144   3.062  14.654 -0.7119 -1.6756  0.3487
12992TIP3    H260392   2.265   2.979  14.689  1.2320  1.0701  0.4857
12993TIP3   OH260393   5.112   0.625  11.841  0.0548 -0.1078 -0.2401
12993TIP3    H160394   5.067   0.556  11.793 -0.4014  0.9209 -1.3469
12993TIP3    H260395   5.092   0.608  11.933  0.0466 -1.4964 -0.4863
12994TIP3   OH260396   2.640   4.951   4.697  0.3657 -0.2159 -0.0282
12994TIP3    H160397   2.545   4.945   4.707  0.1136  1.2929 -1.2799
12994TIP3    H260398   2.668   5.004   4.772 -0.1135  1.4754 -1.0139
12995TIP3   OH260399   3.211   0.544   4.135  0.2626  0.3226 -0.0129
12995TIP3    H160400   3.259   0.627   4.144 -1.7102  1.6926 -1.3136
12995TIP3    H260401   3.199   0.534   4.040 -0.1706 -1.1052  0.1658
12996TIP3   OH260402   3.388   1.498  11.854  0.2070 -0.3415 -0.1798
12996TIP3    H160403   3.353   1.528  11.770 -0.4962 -0.2126  0.1532
12996TIP3    H260404   3.314   1.455  11.897 -0.0038  1.2452  1.1623
12997TIP3   OH260405   4.960   3.151  17.163 -0.3586  0.6888 -0.3451
12997TIP3    H160406   4.965   3.073  17.109 -0.4700 -0.3086  1.0400
12997TIP3    H260407   5.047   3.190  17.157  0.2852 -0.5628  0.3917
12998TIP3   OH260408   3.225   1.292   1.195  0.5461  0.1059 -0.0634
12998TIP3    H160409   3.148   1.240   1.215  1.3089 -1.4918 -1.0368
12998TIP3    H260410   3.269   1.304   1.279 -0.3857  0.3957  0.3820
12999TIP3   OH260411   0.425   2.795  14.163 -0.4146  0.2289 -0.0371
12999TIP3    H160412   0.380   2.839  14.236 -0.8844  1.2306 -0.8962
12999TIP3    H260413   0.518   2.812  14.179 -0.5472  0.9467  0.0380
13000TIP3   OH260414   2.750   5.378   4.387 -0.2525 -0.2407 -0.1547
13000TIP3    H160415   2.701   5.394   4.468 -2.3497 -0.2077 -1.3645
13000TIP3    H260416   2.753   5.462   4.343 -1.3854 -0.7538 -1.2719
13001TIP3   OH260417   1.205   5.009   3.298 -0.3487 -0.0998  0.3365
13001TIP3    H160418   1.276   4.969   3.248  0.2324  0.9901  0.2663
13001TIP3    H260419   1.234   5.005   3.389 -0.9448 -1.1341  0.5040
13002TIP3   OH260420   1.442   6.660  10.681 -0.2742 -0.5472  0.6896
13002TIP3    H160421   1.352   6.626  10.678  0.0475 -1.4878  1.3661
13002TIP3    H260422   1.495   6.584  10.705  0.6508  0.1062  0.7314
13003TIP3   OH260423   1.609   3.424  12.486  0.3687  0.1426 -0.2955
13003TIP3    H160424   1.579   3.341  12.522 -0.3598  0.3336 -0.4613
13003TIP3    H260425   1.698   3.434  12.520 -0.5320  0.6698  2.1030
13004TIP3   OH260426   6.751   5.716   4.803  0.1472  0.7992 -0.1292
13004TIP3    H160427   6.743   5.687   4.894 -1.0827  0.5698 -0.2818
13004TIP3    H260428   6.663   5.746   4.780 -0.0545 -0.8418 -1.7926
13005TIP3   OH260429   3.733   6.494  10.878  0.1326  0.0098  0.1607
13005TIP3    H160430   3.817   6.526  10.845 -0.2740  0.1902 -0.7217
13005TIP3    H260431   3.668   6.524  10.814 -0.4749 -1.1120  0.2206
13006TIP3   OH260432   6.649   2.801  15.474 -0.5732 -0.1273 -0.1068
13006TIP3    H160433   6.598   2.726  15.503 -1.5110  1.1497  1.7641
13006TIP3    H260434   6.584   2.868  15.451  0.1182  1.4280  2.0455
13007TIP3   OH260435   4.273   0.891   2.048 -0.4053 -0.1871 -0.6011
13007TIP3    H160436   4.307   0.850   1.969  1.7147 -0.3290  0.3113
13007TIP3    H260437   4.351   0.919   2.096 -1.6846  1.7817  0.4722
13008TIP3   OH260438   0.903   1.437   2.724 -0.2228  0.2728 -0.3393
13008TIP3    H160439   0.912   1.343   2.706 -1.1922 -0.1889  1.3742
13008TIP3    H260440   0.886   1.442   2.818 -1.1361  2.1184 -0.5643
13009TIP3   OH260441   4.261   5.757   1.618  0.2654  0.3071 -0.1877
13009TIP3    H160442   4.245   5.720   1.532 -0.5230 -2.1326  0.9381
13009TIP3    H260443   4.357   5.764   1.623  0.3734 -0.5373 -0.8615
13010TIP3   OH260444   2.626   0.245   3.756 -0.2645  0.0520 -0.1343
13010TIP3    H160445   2.664   0.176   3.811 -0.2100 -0.5641 -0.9299
13010TIP3    H260446   2.702   0.294   3.724 -0.2794  0.1999  0.0489
13011TIP3   OH260447   6.355   5.345   1.467 -0.3058  0.6382  0.6040
13011TIP3    H160448   6.278   5.295   1.440  0.5129  0.4130 -1.4260
13011TIP3    H260449   6.400   5.287   1.529  0.3650 -1.0200 -1.3216
13012TIP3   OH260450   1.148   5.562   5.742  0.2304 -0.2488 -0.1799
13012TIP3    H160451   1.127   5.545   5.650 -0.6366 -1.4765  0.2183
13012TIP3    H260452   1.074   5.615   5.774  0.2683 -0.2620 -0.0689
13013TIP3   OH260453   6.690   2.531   1.912  0.1894 -0.1133 -0.4005
13013TIP3    H160454   6.660   2.443   1.934  0.7860 -0.3118 -0.3512
13013TIP3    H260455   6.617   2.588   1.934  0.0739 -0.5189  0.2910
13014TIP3   OH260456   3.509   0.481  15.435 -0.2578 -0.4068 -0.0184
13014TIP3    H160457   3.537   0.566  15.400 -0.8675  0.7238  2.0969
13014TIP3    H260458   3.446   0.503  15.503 -1.1435 -2.6307 -0.0453
13015TIP3   OH260459   0.127   6.327  12.773  0.2229  0.4654 -0.3227
13015TIP3    H160460   0.189   6.272  12.724  1.1012  0.4192  0.7989
13015TIP3    H260461   0.100   6.273  12.847 -0.8198  0.6608 -0.5455
13016TIP3   OH260462   2.002   2.077   0.839  0.3101 -0.4413  0.5310
13016TIP3    H160463   2.084   2.104   0.880 -0.5625  1.5688  1.0914
13016TIP3    H260464   1.934   2.110   0.898 -0.9435  0.5094 -1.3441
13017TIP3   OH260465   5.926   5.850  11.615  0.7129 -0.1310 -0.3221
13017TIP3    H160466   6.005   5.903  11.623  0.4164  0.5170 -1.4712
13017TIP3    H260467   5.861   5.895  11.668  1.0919 -0.6513  0.6058
13018TIP3   OH260468   6.428   2.205  11.732  0.0108  0.0225  0.0341
13018TIP3    H160469   6.343   2.170  11.705  0.6277 -0.3528 -1.5132
13018TIP3    H260470   6.458   2.143  11.799 -0.3392 -0.6127 -0.3815
13019TIP3   OH260471   0.080   0.706   3.118 -0.1690  0.0877 -0.2026
13019TIP3    H160472   0.059   0.613   3.130 -0.6975  0.1832 -0.3733
13019TIP3    H260473   0.056   0.725   3.028  2.1353 -0.1769 -0.9181
13020TIP3   OH260474   2.386   4.732  12.817  1.2147 -0.0743 -0.4301
13020TIP3    H160475   2.424   4.663  12.762  1.3900  0.5995 -1.1817
13020TIP3    H260476   2.450   4.744  12.887  1.7429  0.0987 -0.9274
13021TIP3   OH260477   0.707   2.660   3.097  0.0248 -0.2849 -0.1257
13021TIP3    H160478   0.654   2.711   3.158  0.9642  1.7910 -0.9160
13021TIP3    H260479   0.657   2.580   3.081 -2.7288  1.3977 -0.6005
13022TIP3   OH260480   4.393   1.020   4.982 -0.2367 -0.0364 -0.9223
13022TIP3    H160481   4.441   0.937   4.983  0.6007  0.4291  0.1957
13022TIP3    H260482   4.323   1.008   5.047  0.7149  0.5615  0.2595
13023TIP3   OH260483   3.021   6.060  11.850 -0.0930  0.6463  0.8972
13023TIP3    H160484   3.038   6.122  11.779  1.0952  0.2454  0.7985
13023TIP3    H260485   3.085   6.083  11.918  3.4599 -2.9394 -0.7491
13024TIP3   OH260486   5.597   0.988   0.474 -0.0159  0.5299  0.5121
13024TIP3    H160487   5.562   1.020   0.557 -0.4320  1.6158 -0.0637
13024TIP3    H260488   5.587   0.893   0.479  1.0431  0.4453  2.1813
13025TIP3   OH260489   4.449   2.279  14.731 -0.1134  0.2444 -0.3920
13025TIP3    H160490   4.513   2.304  14.664  0.9130 -2.0697 -0.3385
13025TIP3    H260491   4.495   2.291  14.814 -0.6577  1.0256 -0.1849
13026TIP3   OH260492   6.027   0.346  11.909  0.1546 -0.0639 -0.4080
13026TIP3    H160493   6.076   0.399  11.847 -1.8940  0.9432 -1.2487
13026TIP3    H260494   5.994   0.408  11.974  0.3963 -0.7888  0.4267
13027TIP3   OH260495   3.132   1.817  12.739 -0.3789  0.1827  0.1280
13027TIP3    H160496   3.223   1.828  12.711 -0.5552  0.8257 -0.2266
13027TIP3    H260497   3.081   1.834  12.660 -0.8341  0.7248  0.5323
13028TIP3   OH260498   2.006   2.332   3.728 -0.1157 -0.3158  0.3847
13028TIP3    H160499   2.084   2.302   3.775  0.5626  0.5671 -0.1297
13028TIP3    H260500   2.004   2.280   3.648  1.3145  1.2213 -0.7237
13029TIP3   OH260501   2.149   6.307   1.084 -0.4212  1.2121  0.2960
13029TIP3    H160502   2.148   6.223   1.129 -0.3240  2.0789  2.0153
13029TIP3    H260503   2.121   6.287   0.995  0.4460 -0.7617  0.4000
13030TIP3   OH260504   3.245   6.022  14.365  0.3119  0.0002 -0.1537
13030TIP3    H160505   3.330   5.984  14.384  0.2951  0.7849  1.7187
13030TIP3    H260506   3.193   6.008  14.444 -0.2579  2.2955 -0.0271
13031TIP3   OH260507   3.234   1.443   3.341  0.3043 -0.4653 -0.8104
13031TIP3    H160508   3.244   1.355   3.379  0.0465 -0.6187 -1.0949
13031TIP3    H260509   3.307   1.450   3.279  1.0918  0.0191  0.1347
13032TIP3   OH260510   2.223   5.909  11.621  0.2335 -0.3816 -0.5951
13032TIP3    H160511   2.253   5.996  11.648  1.1762 -0.8010 -0.2277
13032TIP3    H260512   2.132   5.904  11.651 -0.4913  1.1945 -2.3621
13033TIP3   OH260513   5.907   3.110  15.559 -0.1874 -0.7619  0.0618
13033TIP3    H160514   5.934   3.157  15.480 -0.2608  0.2991  0.6452
13033TIP3    H260515   5.936   3.020  15.545 -2.0864 -1.1447 -2.1111
13034TIP3   OH260516   6.461   0.014  17.103  0.3738  0.0298 -0.4750
13034TIP3    H160517   6.420   0.091  17.065 -0.2982  0.5981  1.2857
13034TIP3    H260518   6.514   0.048  17.175  1.3432 -1.0117 -0.6777
13035TIP3   OH260519   3.739   6.676  13.292 -0.0853 -0.0137  0.1347
13035TIP3    H160520   3.720   6.606  13.230 -2.8929  0.7879 -0.0481
13035TIP3    H260521   3.715   6.756  13.246  1.2639  0.9523  1.0178
13036TIP3   OH260522   2.063   5.692   5.453 -0.2688 -0.0937 -0.2133
13036TIP3    H160523   2.045   5.633   5.526 -1.0870 -0.0657 -0.3872
13036TIP3    H260524   2.159   5.693   5.447 -0.2014 -0.3358  0.6564
13037TIP3   OH260525   5.729   1.738   6.622 -0.2204 -0.7648  0.0074
13037TIP3    H160526   5.811   1.788   6.616 -1.2649  0.9977 -0.1755
13037TIP3    H260527   5.723   1.692   6.538  0.0148  0.0387 -0.4625
13038TIP3   OH260528   6.574   0.021  14.462 -0.1224 -0.6677  0.3272
13038TIP3    H160529   6.505   0.070  14.508  1.3359  0.3627  1.4824
13038TIP3    H260530   6.581  -0.061  14.510 -1.9746 -1.7742 -1.1015
13039TIP3   OH260531   0.289   5.865  14.294 -0.1697  0.1196 -0.1963
13039TIP3    H160532   0.357   5.912  14.343  0.2526  0.3220 -0.9707
13039TIP3    H260533   0.238   5.820  14.362  0.2078  0.6571  0.4539
13040TIP3   OH260534   1.781   4.871   4.512  0.1648 -0.4094 -0.5119
13040TIP3    H160535   1.850   4.934   4.490  1.1093 -0.1353  2.7949
13040TIP3    H260536   1.700   4.921   4.501  0.8780  1.4376  1.7092
13041TIP3   OH260537   5.719   4.861  14.103 -0.3982 -0.3503  0.3873
13041TIP3    H160538   5.774   4.856  14.024  0.7087  1.1555  1.0130
13041TIP3    H260539   5.767   4.813  14.169  0.1426  0.8619  0.9027
13042TIP3   OH260540   1.847   5.138   1.764  0.1155  0.0189  0.1260
13042TIP3    H160541   1.778   5.163   1.824  0.5075 -0.5266  0.8283
13042TIP3    H260542   1.908   5.086   1.817  0.8934  0.2074 -0.5453
13043TIP3   OH260543   1.601   4.752   1.310 -0.3920 -0.3461  0.4261
13043TIP3    H160544   1.622   4.828   1.255  0.6791 -0.3397  0.8147
13043TIP3    H260545   1.675   4.693   1.298  0.3988  0.1271  2.6806
13044TIP3   OH260546   4.176   2.324  14.455  0.5012 -0.2751  0.1005
13044TIP3    H160547   4.086   2.355  14.450  0.8000  0.4590 -1.3130
13044TIP3    H260548   4.219   2.387  14.513  0.3816  0.1163 -0.2280
13045TIP3   OH260549   1.050   0.721  13.328 -0.1551 -0.2764 -0.6483
13045TIP3    H160550   1.110   0.706  13.401 -0.4417 -2.4785 -0.7774
13045TIP3    H260551   1.084   0.664  13.258 -2.3129 -1.5418 -0.7396
13046TIP3   OH260552   6.463   2.662   5.319  0.8357 -0.4937  0.6798
13046TIP3    H160553   6.413   2.698   5.247  1.6306  2.5235  1.4718
13046TIP3    H260554   6.424   2.576   5.336 -0.2160 -0.7353 -2.3911
13047TIP3   OH260555   0.514   0.643  14.753 -0.8708  0.2497 -0.1841
13047TIP3    H160556   0.499   0.692  14.834 -1.9192 -1.4516  0.6890
13047TIP3    H260557   0.492   0.553  14.774 -3.4411  0.0520 -2.9390
13048TIP3   OH260558   6.105   2.279  16.809  0.1500 -0.2929 -0.0062
13048TIP3    H160559   6.179   2.339  16.799  0.6957 -0.9491  0.0325
13048TIP3    H260560   6.031   2.336  16.828  0.5415  0.4139 -0.5358
13049TIP3   OH260561   4.543   5.812   2.590 -0.1955  0.2097 -0.5558
13049TIP3    H160562   4.498   5.882   2.636 -0.1442 -0.1122 -0.0109
13049TIP3    H260563   4.525   5.829   2.497  1.6338  2.2133 -0.6192
13050TIP3   OH260564   1.193   0.820   2.743 -0.1258  0.3303 -0.1781
13050TIP3    H160565   1.121   0.867   2.785  1.3898  2.8048 -0.1730
13050TIP3    H260566   1.186   0.842   2.650  0.6551  0.7032 -0.1616
13051TIP3   OH260567   4.743   6.657   5.330  0.0322 -0.4650  0.0959
13051TIP3    H160568   4.802   6.583   5.315  1.4686  0.4033  1.1215
13051TIP3    H260569   4.788   6.710   5.396 -0.6390  1.6479 -1.0440
13052TIP3   OH260570   0.815   0.730   1.703 -0.1713  0.3380  0.2080
13052TIP3    H160571   0.854   0.803   1.654  1.9372 -0.5599  0.4198
13052TIP3    H260572   0.817   0.761   1.794 -1.2336  0.8095  0.0818
13053TIP3   OH260573   4.712   4.470  14.898 -0.0474  0.0219  0.1561
13053TIP3    H160574   4.724   4.445  14.989  0.2911 -0.1392  0.0705
13053TIP3    H260575   4.662   4.397  14.860  0.6567 -0.3913 -0.0151
13054TIP3   OH260576   1.151   2.717   1.508 -0.8188 -0.2642 -0.0673
13054TIP3    H160577   1.189   2.804   1.494 -1.2097  0.0112  0.5281
13054TIP3    H260578   1.180   2.665   1.432  1.6786 -0.3997  0.8952
13055TIP3   OH260579   3.312   6.313   3.829 -0.5434  0.2989  0.0024
13055TIP3    H160580   3.262   6.395   3.829 -0.3803  0.3984 -0.0922
13055TIP3    H260581   3.397   6.337   3.793 -0.4332  0.1229  0.1465
13056TIP3   OH260582   3.134   6.108   2.146  0.6825 -0.3071  0.0509
13056TIP3    H160583   3.215   6.082   2.191  0.5339  0.2778  0.6750
13056TIP3    H260584   3.101   6.182   2.197  0.9942  1.0170 -1.5791
13057TIP3   OH260585   0.688   3.163   1.583  0.0617 -0.0683 -0.0567
13057TIP3    H160586   0.760   3.126   1.634  0.5873 -2.4785 -2.3188
13057TIP3    H260587   0.657   3.090   1.530 -2.8383  1.3836 -0.5429
13058TIP3   OH260588   4.450   4.127  13.423  0.5489 -0.1564 -0.4780
13058TIP3    H160589   4.456   4.209  13.374  0.8300 -0.0588 -0.2868
13058TIP3    H260590   4.421   4.154  13.510 -0.4315 -0.3848 -0.7289
13059TIP3   OH260591   4.547   4.678  11.909  0.0022  0.4920 -0.2098
13059TIP3    H160592   4.554   4.600  11.964 -0.0219 -0.7446 -1.8626
13059TIP3    H260593   4.463   4.717  11.933  0.9238  1.1876  2.0614
13060TIP3   OH260594   4.994   0.676  15.788 -0.0047 -0.1422 -0.3805
13060TIP3    H160595   5.058   0.628  15.734  1.0132  0.5968  0.1340
13060TIP3    H260596   4.942   0.607  15.829  1.9618 -0.9270  0.9985
13061TIP3   OH260597   2.846   2.094   5.089  0.4041  0.1538  0.0492
13061TIP3    H160598   2.818   2.178   5.054 -0.2882  0.5288  1.4026
13061TIP3    H260599   2.924   2.115   5.142 -0.8315  0.3221  1.9104
13062TIP3   OH260600   5.867   1.368  10.434  0.5150  0.3362  0.1673
13062TIP3    H160601   5.797   1.418  10.391 -0.2032  0.0225  0.9268
13062TIP3    H260602   5.892   1.422  10.509 -0.2960 -0.4289  1.0188
13063TIP3   OH260603   2.795   4.780  12.462  0.0487 -0.2085  0.0428
13063TIP3    H160604   2.749   4.847  12.411 -2.1597  0.1803  2.3034
13063TIP3    H260605   2.738   4.764  12.538  2.5268 -1.5736  1.7968
13064TIP3   OH260606   3.681   3.585   3.010  0.5580 -0.1029  0.2352
13064TIP3    H160607   3.774   3.578   3.033  0.5694 -1.1444 -0.0792
13064TIP3    H260608   3.680   3.588   2.915  0.2804  0.1967  0.2464
13065TIP3   OH260609   6.618   5.840  13.066  0.3138 -0.2150  0.1832
13065TIP3    H160610   6.633   5.917  13.121 -0.9243 -0.1950  0.5328
13065TIP3    H260611   6.551   5.868  13.004  0.8003 -0.6241 -0.5389
13066TIP3   OH260612   1.235   1.963  13.915  0.3074  1.0188 -0.2196
13066TIP3    H160613   1.284   1.933  13.838 -0.9885  0.3494 -0.8119
13066TIP3    H260614   1.244   2.058  13.913  1.6148  0.9196 -0.2689
13067TIP3   OH260615   5.426   0.638  15.875 -0.8073 -0.2435 -0.3201
13067TIP3    H160616   5.508   0.644  15.925 -0.8236 -1.1510 -0.1564
13067TIP3    H260617   5.423   0.719  15.824 -0.5794  0.5068  0.8108
13068TIP3   OH260618   0.013   4.486   5.184 -0.0094  0.1849 -0.0922
13068TIP3    H160619  -0.046   4.530   5.245  0.7041  0.7410  0.2108
13068TIP3    H260620  -0.045   4.451   5.116 -0.8152 -0.4315  0.8790
13069TIP3   OH260621   1.841   0.032  15.037 -0.2444  0.9989  0.0453
13069TIP3    H160622   1.790  -0.044  15.010 -2.0596  2.5521 -1.0313
13069TIP3    H260623   1.882   0.064  14.957 -0.1922  1.6566  0.3247
13070TIP3   OH260624   3.062   1.746   5.552 -0.0644 -0.0981 -0.3728
13070TIP3    H160625   3.087   1.713   5.465 -0.1692  2.9461 -1.6622
13070TIP3    H260626   2.969   1.765   5.545 -0.1056  0.0410  0.4652
13071TIP3   OH260627   1.121   2.511   5.073  0.1101 -0.5524 -0.0105
13071TIP3    H160628   1.087   2.572   5.008 -0.8093 -1.3028 -0.2575
13071TIP3    H260629   1.060   2.516   5.146 -0.3996 -1.6885 -0.3349
13072TIP3   OH260630   3.595   5.810  15.620 -0.7186 -0.8331  0.1188
13072TIP3    H160631   3.604   5.890  15.671 -0.3097 -0.6433 -0.2477
13072TIP3    H260632   3.505   5.780  15.637 -1.4803  0.6195 -1.0745
13073TIP3   OH260633   2.997   4.114  16.661 -0.3376 -0.6789  0.5136
13073TIP3    H160634   3.037   4.107  16.574  0.2185 -1.1324  0.7921
13073TIP3    H260635   3.072   4.120  16.721 -0.7248  0.2950  0.9143
13074TIP3   OH260636   2.793   4.850   2.497 -0.3868  0.3522  0.5361
13074TIP3    H160637   2.700   4.828   2.502  0.0012 -1.8677 -0.8157
13074TIP3    H260638   2.799   4.913   2.425 -0.7628 -0.1601  0.0460
13075TIP3   OH260639   4.246   1.971   2.903  0.3977 -0.0698  0.3714
13075TIP3    H160640   4.304   1.974   2.827 -1.0966 -1.2634 -0.9085
13075TIP3    H260641   4.238   2.062   2.931  1.1330  0.3800 -0.8020
13076TIP3   OH260642   1.230   1.211   4.820  0.6010  0.0526 -0.0900
13076TIP3    H160643   1.288   1.150   4.865  2.4560  1.1317 -0.9276
13076TIP3    H260644   1.274   1.230   4.737  0.2541  2.7384  0.2727
13077TIP3   OH260645   1.320   1.239  16.291 -0.1080 -0.0793  0.1850
13077TIP3    H160646   1.393   1.179  16.276 -0.7085 -0.7096 -0.2540
13077TIP3    H260647   1.244   1.182  16.303 -0.6210  0.5822  0.1432
13078TIP3   OH260648   5.048   6.725   1.929  0.2181  1.0072  0.4732
13078TIP3    H160649   5.007   6.660   1.872 -0.8781  0.4404  1.8608
13078TIP3    H260650   5.132   6.688   1.952  0.6033  1.1714 -0.6272
13079TIP3   OH260651   3.983   2.323   4.463  0.3255  0.2548 -0.6730
13079TIP3    H160652   3.989   2.347   4.556 -2.2195  1.5033 -0.7405
13079TIP3    H260653   3.949   2.233   4.465 -0.7036  0.6285 -0.3439
13080TIP3   OH260654   3.333   4.762  16.174 -0.0840  0.4517 -0.1193
13080TIP3    H160655   3.270   4.761  16.246 -0.6981  0.0139 -0.6468
13080TIP3    H260656   3.323   4.677  16.132 -0.1876  0.9254 -1.0943
13081TIP3   OH260657   3.096   0.489  13.667 -0.4979  0.1928  0.2410
13081TIP3    H160658   3.140   0.413  13.704 -0.7871 -0.0197  0.1548
13081TIP3    H260659   3.163   0.533  13.615 -0.1334  0.3975  0.8630
13082TIP3   OH260660   4.666   1.929  16.103 -0.0988  0.0500 -0.0398
13082TIP3    H160661   4.760   1.933  16.119 -0.3005  1.8398  1.1026
13082TIP3    H260662   4.657   1.886  16.019  1.6177 -1.9793  0.7290
13083TIP3   OH260663   3.812   4.293   2.525  0.6214 -0.2647 -0.4462
13083TIP3    H160664   3.750   4.352   2.480 -1.8105 -2.0369  0.3497
13083TIP3    H260665   3.872   4.352   2.571 -0.9399  1.5970 -0.6496
13084TIP3   OH260666   5.166   0.699  15.131  0.0475 -0.4714 -0.1224
13084TIP3    H160667   5.239   0.717  15.071  1.1615 -0.0003  1.3068
13084TIP3    H260668   5.194   0.737  15.214 -2.7295  1.5221  0.0064
13085TIP3   OH260669   5.279   2.972   0.305  0.0884 -0.3911 -0.2833
13085TIP3    H160670   5.362   2.926   0.318 -0.0216 -0.2251  1.2513
13085TIP3    H260671   5.219   2.932   0.369 -0.6908  0.2382 -0.6016
13086TIP3   OH260672   0.035   0.870  14.993 -0.0831  0.2277 -0.1209
13086TIP3    H160673  -0.026   0.864  14.920  1.1050 -2.4719 -0.9813
13086TIP3    H260674   0.029   0.786  15.037 -0.2722  1.5342  2.5905
13087TIP3   OH260675   3.582   4.112   1.062  0.1679  0.2266 -0.8413
13087TIP3    H160676   3.633   4.087   0.986  1.4810 -0.8463  0.3362
13087TIP3    H260677   3.503   4.058   1.057  0.1346  0.3400 -1.5598
13088TIP3   OH260678   5.822   0.134   5.682  0.4056  1.0005  0.0966
13088TIP3    H160679   5.761   0.195   5.641  1.2439 -0.0835 -3.0303
13088TIP3    H260680   5.891   0.189   5.719  0.6636  2.0684 -1.8446
13089TIP3   OH260681   3.018   3.584   2.757  0.5047  0.0559 -0.9457
13089TIP3    H160682   3.004   3.676   2.777 -0.1682  0.2268 -2.1195
13089TIP3    H260683   3.100   3.562   2.801  0.0768  0.8918  0.3318
13090TIP3   OH260684   5.419   5.862   2.546 -0.4884 -0.1486  0.3924
13090TIP3    H160685   5.373   5.840   2.627  1.2265  1.2612  1.8346
13090TIP3    H260686   5.448   5.777   2.511 -2.0936 -0.8518  0.6878
13091TIP3   OH260687   5.264   3.212   3.199  0.2821 -0.1398  0.4881
13091TIP3    H160688   5.261   3.234   3.292  0.1485 -1.0310  0.7097
13091TIP3    H260689   5.335   3.148   3.192  0.6747  0.3525 -0.1241
13092TIP3   OH260690   3.683   4.331  14.954 -0.3086  0.0314  0.7804
13092TIP3    H160691   3.679   4.412  15.005  2.0840  1.0446 -0.4908
13092TIP3    H260692   3.776   4.319  14.935 -0.4823 -3.4208  1.4719
13093TIP3   OH260693   2.223   2.396  12.604  0.5411 -0.4611  0.0828
13093TIP3    H160694   2.220   2.401  12.700 -0.3705 -1.8985  0.1703
13093TIP3    H260695   2.196   2.483  12.575 -1.4217 -0.6307  1.1683
13094TIP3   OH260696   6.538   2.400  15.736 -0.0635  0.1031 -0.2673
13094TIP3    H160697   6.621   2.352  15.747  0.9846  2.3600  3.6800
13094TIP3    H260698   6.472   2.340  15.770  0.6729 -0.0260  1.0146
13095TIP3   OH260699   1.805   1.613  10.918 -0.4192  0.5353  0.3854
13095TIP3    H160700   1.821   1.620  11.012 -0.9463  1.3189  0.4275
13095TIP3    H260701   1.883   1.651  10.877 -0.8619  1.6414  0.5410
13096TIP3   OH260702   5.005   5.391  16.434  0.4418  0.1100 -0.2789
13096TIP3    H160703   4.933   5.399  16.497 -0.2741  2.0121 -1.2881
13096TIP3    H260704   5.022   5.296  16.430  0.4307 -0.1104  2.6404
13097TIP3   OH260705   2.948   4.805  11.396  0.0630  0.1581  0.3091
13097TIP3    H160706   2.917   4.810  11.306 -1.0146  0.5765  0.6784
13097TIP3    H260707   2.892   4.866  11.444  0.9728  0.3467  1.1676
13098TIP3   OH260708   3.886   5.469  15.794  0.6866  0.1829  0.5020
13098TIP3    H160709   3.900   5.555  15.834 -0.8458  0.9889 -0.5801
13098TIP3    H260710   3.791   5.459  15.792  0.8149 -1.0905 -0.3251
13099TIP3   OH260711   5.184   1.357  14.940  0.2929 -0.6372  0.3991
13099TIP3    H160712   5.128   1.431  14.918 -0.1535 -0.1569  2.8142
13099TIP3    H260713   5.147   1.283  14.893 -2.1476 -0.2426  1.5576
13100TIP3   OH260714   6.212   5.732  15.514 -0.3435 -0.1166  0.4010
13100TIP3    H160715   6.151   5.767  15.450  0.3216 -0.7892 -0.6317
13100TIP3    H260716   6.175   5.756  15.599 -2.2904 -0.8932 -0.1764
13101TIP3   OH260717   2.238   2.960  10.882  0.3550  0.1432  0.1897
13101TIP3    H160718   2.237   2.932  10.973  0.2143 -0.1938  0.0861
13101TIP3    H260719   2.196   2.888  10.834  0.7019  0.1799 -0.1774
13102TIP3   OH260720   2.238   0.948  14.860 -0.3066 -0.1335 -0.0236
13102TIP3    H160721   2.300   1.009  14.820 -0.8806 -0.0568 -0.8215
13102TIP3    H260722   2.270   0.861  14.838  0.0145 -0.1119  0.3460
13103TIP3   OH260723   3.793   3.744   3.629  0.0738 -0.6367 -0.7134
13103TIP3    H160724   3.707   3.727   3.667  0.3168 -0.5883 -0.1230
13103TIP3    H260725   3.841   3.662   3.642  1.2916  0.4121  2.2513
13104TIP3   OH260726   6.673   3.108  16.944 -0.9261  0.6105 -0.3093
13104TIP3    H160727   6.594   3.153  16.912 -0.4866  0.8377 -1.1176
13104TIP3    H260728   6.690   3.146  17.030  0.5567  3.5091 -1.7413
13105TIP3   OH260729   0.521   5.094   5.675 -0.6585  0.3581 -0.3146
13105TIP3    H160730   0.508   5.002   5.695  2.7645 -0.1803  0.0362
13105TIP3    H260731   0.613   5.111   5.695 -1.2262  3.9801  0.0003
13106TIP3   OH260732   2.827   4.667  14.302 -0.2981  0.2443  0.1129
13106TIP3    H160733   2.797   4.585  14.340  1.7189  0.7285  3.0798
13106TIP3    H260734   2.833   4.727  14.376  0.7646  2.2982 -1.5345
13107TIP3   OH260735   3.674   5.335  11.845  0.3128 -0.2835  0.0276
13107TIP3    H160736   3.626   5.383  11.778 -0.7408 -2.7689 -1.1342
13107TIP3    H260737   3.739   5.397  11.878 -0.6132  1.7106 -1.7164
13108TIP3   OH260738   0.533   4.011  12.188 -0.0619 -0.4864  0.3147
13108TIP3    H160739   0.494   3.927  12.164 -0.8417  0.3956 -1.7070
13108TIP3    H260740   0.540   4.059  12.106 -0.5813  1.8402  1.5446
13109TIP3   OH260741   4.313   3.611  10.283 -0.4747  0.0638 -0.0506
13109TIP3    H160742   4.240   3.588  10.226 -1.3520 -2.2256  1.8664
13109TIP3    H260743   4.278   3.605  10.372  0.8246  3.5331  0.8890
13110TIP3   OH260744   0.979   4.507  11.388 -0.0362 -0.1685  0.0250
13110TIP3    H160745   1.036   4.464  11.326 -0.1353 -0.1065 -0.1098
13110TIP3    H260746   0.993   4.460  11.470 -0.7005 -0.9462 -0.2966
13111TIP3   OH260747   2.372   5.674  13.909 -0.1871 -0.3332  0.2050
13111TIP3    H160748   2.438   5.698  13.974 -0.6338  0.7277  0.2845
13111TIP3    H260749   2.422   5.630  13.840  0.8112  1.4747 -0.2866
13112TIP3   OH260750   0.481   2.489   2.696  0.2677 -0.1340  0.3295
13112TIP3    H160751   0.513   2.420   2.639 -2.1834 -1.3712  0.3163
13112TIP3    H260752   0.458   2.561   2.637  0.1208 -0.4366  0.0172
13113TIP3   OH260753   2.137   0.037   5.024  0.8583  0.2789  0.1301
13113TIP3    H160754   2.049   0.065   4.998 -0.4046 -2.2562  1.2344
13113TIP3    H260755   2.168  -0.015   4.949 -0.6185 -2.6588  1.3698
13114TIP3   OH260756   4.257   4.987  12.238  0.2423 -0.3261 -0.1420
13114TIP3    H160757   4.318   5.042  12.189 -0.8799  1.4065  0.3230
13114TIP3    H260758   4.174   4.994  12.190  0.1246 -1.8447 -0.2108
13115TIP3   OH260759   6.660   0.276   4.278 -0.1705  0.1926  0.3209
13115TIP3    H160760   6.619   0.361   4.264  1.8580  1.0038 -1.1948
13115TIP3    H260761   6.728   0.292   4.344 -1.2659 -0.8172  1.7631
13116TIP3   OH260762   4.246   0.776  15.870 -0.6356 -0.1125  0.4026
13116TIP3    H160763   4.310   0.845  15.887 -1.7343  0.4335  2.6105
13116TIP3    H260764   4.283   0.726  15.797  1.1758  1.5466  0.1201
13117TIP3   OH260765   4.183   5.056  15.902 -0.2706  0.3911 -0.1421
13117TIP3    H160766   4.188   5.111  15.980 -1.3269  0.9700 -0.4500
13117TIP3    H260767   4.089   5.043  15.888 -0.0885  0.0268 -1.1241
13118TIP3   OH260768   1.295   5.121  13.659  0.1208  0.6512 -0.2855
13118TIP3    H160769   1.210   5.160  13.638  0.9424  2.8820  0.2416
13118TIP3    H260770   1.358   5.175  13.611  1.4477  1.1703  1.8974
13119TIP3   OH260771   5.270   2.837   5.217  0.4338 -0.3137  0.4153
13119TIP3    H160772   5.224   2.917   5.242  1.1486  0.2398 -0.0098
13119TIP3    H260773   5.363   2.860   5.218  0.5758 -0.6310 -1.3787
13120TIP3   OH260774   2.204   3.308  14.347  0.2113 -0.2156  0.1442
13120TIP3    H160775   2.265   3.379  14.366  1.2681 -0.6428 -1.4522
13120TIP3    H260776   2.216   3.245  14.418  0.2470  0.5770  0.8459
13121TIP3   OH260777   3.898   5.120   5.887  0.2201  0.5844  0.3816
13121TIP3    H160778   3.851   5.159   5.960 -1.9211 -0.6933 -0.2398
13121TIP3    H260779   3.835   5.120   5.815  1.6710  0.1425 -0.9404
13122TIP3   OH260780   4.984   3.362   3.517 -0.0677 -0.6344  0.0821
13122TIP3    H160781   4.953   3.326   3.600 -1.7387  0.4078 -0.0308
13122TIP3    H260782   4.939   3.309   3.450  1.2584 -1.4612 -0.1816
13123TIP3   OH260783   6.725   6.551   0.622  0.2268  0.4312  0.2267
13123TIP3    H160784   6.658   6.581   0.562  0.4333  1.7123  0.5990
13123TIP3    H260785   6.735   6.623   0.685  3.4746  1.3180 -1.0610
13124TIP3   OH260786   1.203   0.114  14.402 -0.0975  0.2814 -0.1799
13124TIP3    H160787   1.117   0.092  14.365 -0.6400  1.8161  0.0640
13124TIP3    H260788   1.265   0.059  14.355 -1.4103 -2.6839  1.2935
13125TIP3   OH260789   2.160   2.988  11.141 -0.0560 -0.3766  0.0340
13125TIP3    H160790   2.160   2.953  11.230 -1.3785 -2.3985 -0.6858
13125TIP3    H260791   2.069   3.008  11.123  0.1525 -0.2649 -0.9558
13126TIP3   OH260792   0.807   4.543   2.401  0.3579 -0.7662 -0.4067
13126TIP3    H160793   0.801   4.638   2.388  0.0609 -0.0400  3.6285
13126TIP3    H260794   0.900   4.523   2.384  1.4439  1.1472  2.5358
13127TIP3   OH260795   6.714   1.190   4.250 -0.3426 -0.0566 -0.4520
13127TIP3    H160796   6.649   1.239   4.300  1.1779  1.3682  0.2287
13127TIP3    H260797   6.716   1.104   4.291  0.8282  1.0483  2.0165
13128TIP3   OH260798   5.915   3.747   4.857 -0.4870  0.1632  0.0302
13128TIP3    H160799   6.008   3.730   4.842 -0.4582  0.3948 -0.0572
13128TIP3    H260800   5.893   3.815   4.794 -0.8391 -0.2498 -0.2971
13129TIP3   OH260801   6.570   5.464   3.484 -0.0113  0.6126 -0.0824
13129TIP3    H160802   6.634   5.500   3.545 -1.0194  0.8385  0.8598
13129TIP3    H260803   6.623   5.428   3.413  1.2738 -0.9365  1.5707
13130TIP3   OH260804   4.904   6.760   3.259  0.3896 -0.3943 -0.2053
13130TIP3    H160805   4.985   6.725   3.223  0.3374 -1.0354  0.2730
13130TIP3    H260806   4.874   6.692   3.319  0.3312  0.5189  0.8307
13131TIP3   OH260807   5.894   6.669   5.607 -0.7711  0.0028 -0.0462
13131TIP3    H160808   5.876   6.763   5.612  2.4753  0.7092  0.9142
13131TIP3    H260809   5.825   6.628   5.659 -2.2008  1.8655 -0.4038
13132TIP3   OH260810   6.235   3.186  13.418 -0.1638  0.1922  0.3772
13132TIP3    H160811   6.246   3.161  13.326  0.6674  2.0967 -0.0748
13132TIP3    H260812   6.279   3.116  13.467 -0.3647 -0.6911 -0.6571
13133TIP3   OH260813   0.523   6.103   4.016  0.0595 -0.2373 -0.1270
13133TIP3    H160814   0.476   6.182   3.990  1.5058  0.1158 -1.9022
13133TIP3    H260815   0.456   6.036   4.025 -0.9393  0.6316 -0.9116
13134TIP3   OH260816   1.803   6.529   3.448 -0.0399 -0.4633 -0.1574
13134TIP3    H160817   1.728   6.548   3.392 -0.2031  2.2798  0.8536
13134TIP3    H260818   1.865   6.599   3.429  0.7175 -0.5926  1.6516
13135TIP3   OH260819   4.914   0.431  11.847 -0.0524 -0.0306 -0.1749
13135TIP3    H160820   4.968   0.357  11.875  2.1478  0.4473 -2.7872
13135TIP3    H260821   4.836   0.390  11.809 -1.3555 -0.7460  2.9183
13136TIP3   OH260822   2.985   6.099  14.323 -0.0011  0.0910  0.0515
13136TIP3    H160823   2.961   6.143  14.241 -1.1334 -0.5386  0.0342
13136TIP3    H260824   3.079   6.083  14.313  0.1584  1.2336 -0.5360
13137TIP3   OH260825   4.172   1.577   3.552 -0.7670 -0.0498 -0.8568
13137TIP3    H160826   4.174   1.492   3.596  0.6324  0.6607  0.5518
13137TIP3    H260827   4.134   1.636   3.617  0.9214  0.9329 -0.7162
13138TIP3   OH260828   0.102   2.991   5.724 -0.4866  0.8436  0.1341
13138TIP3    H160829   0.192   2.961   5.736 -0.2228 -0.7217 -4.0122
13138TIP3    H260830   0.110   3.080   5.690 -0.3185  0.2400 -1.5096
13139TIP3   OH260831   1.719   1.834   3.942  0.6518 -0.0024  0.1885
13139TIP3    H160832   1.741   1.927   3.941  1.1557 -0.1161 -0.4959
13139TIP3    H260833   1.802   1.790   3.960  0.7547 -0.3774 -1.0774
13140TIP3   OH260834   6.360   6.629  13.363  0.3294 -0.1376 -0.0156
13140TIP3    H160835   6.296   6.562  13.338  0.1314  0.5434 -1.4251
13140TIP3    H260836   6.422   6.632  13.290 -0.6321  2.3877 -0.8229
13141TIP3   OH260837   3.913   4.159   1.420 -0.1358 -0.3231 -0.3857
13141TIP3    H160838   3.869   4.168   1.335  0.5494  0.1129 -0.7081
13141TIP3    H260839   3.985   4.222   1.416 -1.3258  1.2659  1.3586
13142TIP3   OH260840   2.974   6.762   4.246  0.2547  0.7531 -0.2833
13142TIP3    H160841   3.008   6.851   4.239 -0.7430  1.1422 -0.3431
13142TIP3    H260842   2.972   6.745   4.340  1.7286  0.2652 -0.3139
13143TIP3   OH260843   0.065   2.222  13.941 -0.3750  0.2075  0.2897
13143TIP3    H160844   0.037   2.133  13.920  0.1008  0.6580 -2.6797
13143TIP3    H260845   0.160   2.221  13.930 -0.1698  0.7880  1.6939
13144TIP3   OH260846   5.214   0.901   2.007 -0.0467  0.3889 -0.2895
13144TIP3    H160847   5.140   0.949   1.970 -1.7611 -1.0946  1.0356
13144TIP3    H260848   5.249   0.960   2.074 -0.9147  0.5800  0.0123
13145TIP3   OH260849   1.619   4.319   6.364 -0.0167  0.0445 -0.6431
13145TIP3    H160850   1.588   4.383   6.428 -2.2077 -0.2663 -1.3110
13145TIP3    H260851   1.561   4.244   6.376  2.4588 -1.9154  0.1266
13146TIP3   OH260852   3.218   5.802   5.627  0.3314 -0.3742 -0.0544
13146TIP3    H160853   3.236   5.843   5.711  0.3111 -0.9502  0.2382
13146TIP3    H260854   3.263   5.717   5.631 -1.5077 -1.3855  0.2828
13147TIP3   OH260855   0.349   2.915  14.911 -0.0208 -0.2031  0.2898
13147TIP3    H160856   0.298   2.927  14.831 -0.0950 -0.0080  0.3653
13147TIP3    H260857   0.322   2.830  14.945 -0.2610 -0.1200  0.3064
13148TIP3   OH260858   0.619   1.702  15.903  0.1448  0.0562  0.2292
13148TIP3    H160859   0.575   1.780  15.938 -2.9549  0.5984 -4.0162
13148TIP3    H260860   0.706   1.704  15.942 -0.2560  4.8344  1.5118
13149TIP3   OH260861   3.060   6.659   3.303 -0.1047 -0.1552  0.1073
13149TIP3    H160862   3.078   6.592   3.368 -0.4591 -1.2878 -0.9282
13149TIP3    H260863   2.964   6.662   3.298 -0.0821  0.0976 -0.1959
13150TIP3   OH260864   0.168   2.544   1.514  0.3991 -0.0479 -0.3174
13150TIP3    H160865   0.074   2.558   1.523  0.2194 -1.7854  1.0316
13150TIP3    H260866   0.191   2.587   1.431 -1.3140  1.4939 -0.0601
13151TIP3   OH260867   3.436   2.959   1.165  0.2097  0.4669  0.2205
13151TIP3    H160868   3.470   2.928   1.081 -0.4549 -0.7273  0.3746
13151TIP3    H260869   3.341   2.962   1.153  0.1768  1.3610  0.5923
13152TIP3   OH260870   3.960   0.771   6.103  0.2574  0.0766 -0.2145
13152TIP3    H160871   4.045   0.794   6.142 -1.0099  1.5819  1.9334
13152TIP3    H260872   3.941   0.684   6.137  0.3004  0.3626  0.5804
13153TIP3   OH260873   4.408   2.730  12.922 -0.0352 -0.1491  0.0550
13153TIP3    H160874   4.464   2.663  12.883 -0.3172 -0.2632 -0.1622
13153TIP3    H260875   4.319   2.705  12.895  0.0370  1.7967 -2.3035
13154TIP3   OH260876   1.319   6.330   4.642  0.0702  0.5962 -0.4783
13154TIP3    H160877   1.347   6.371   4.724 -0.8013  0.5903 -0.1647
13154TIP3    H260878   1.384   6.262   4.625  0.3828  0.7513  0.0888
13155TIP3   OH260879   1.105   0.170   1.959  0.2194 -0.1050 -0.0797
13155TIP3    H160880   1.171   0.120   1.911  0.0121 -0.1320 -0.3401
13155TIP3    H260881   1.058   0.219   1.891 -0.3847 -0.5091  0.0433
13156TIP3   OH260882   4.356   1.543   3.819 -0.8913 -0.0465  0.1582
13156TIP3    H160883   4.402   1.489   3.754 -0.4369 -0.2660  0.6517
13156TIP3    H260884   4.286   1.487   3.852 -0.4317 -0.3527  0.6567
13157TIP3   OH260885   0.171   0.720  15.404  0.1958 -0.6385 -0.0811
13157TIP3    H160886   0.129   0.649  15.453  0.0493  0.3851  1.3573
13157TIP3    H260887   0.231   0.761  15.467  0.7997  0.0785 -1.0786
13158TIP3   OH260888   4.400   6.186   5.312 -0.3668 -0.3980 -0.3193
13158TIP3    H160889   4.404   6.137   5.394 -0.9676 -0.1113 -0.1178
13158TIP3    H260890   4.371   6.122   5.247  0.3708 -0.6921 -0.3651
13159TIP3   OH260891   4.020   3.263  16.990  0.5239 -0.5853 -0.2319
13159TIP3    H160892   3.948   3.224  16.939 -0.4447 -0.3270  0.9046
13159TIP3    H260893   3.983   3.278  17.076  2.8712 -3.4982  1.4822
13160TIP3   OH260894   4.650   6.208   2.347 -0.0425 -0.3011  0.0142
13160TIP3    H160895   4.600   6.289   2.358  0.2211 -0.0592 -0.5649
13160TIP3    H260896   4.684   6.189   2.434  0.3564  0.5111  0.0358
13161TIP3   OH260897   0.149   1.373  12.122 -0.4341 -0.3296  0.9368
13161TIP3    H160898   0.054   1.381  12.133 -0.4594  0.9751 -0.0811
13161TIP3    H260899   0.175   1.307  12.187 -1.6876  1.0770  2.9870
13162TIP3   OH260900   0.468   2.668  16.665  0.0550 -0.4266  0.1237
13162TIP3    H160901   0.470   2.646  16.572  1.1293 -0.0330  0.0395
13162TIP3    H260902   0.488   2.586  16.710  1.2450 -0.2567 -0.0708
13163TIP3   OH260903   2.503   4.016  12.805  0.3570  0.1683  0.6370
13163TIP3    H160904   2.574   3.951  12.808  0.3196  0.1474  1.2828
13163TIP3    H260905   2.510   4.062  12.889 -0.5990 -0.0556  0.8435
13164TIP3   OH260906   0.323   3.572   1.491  0.0793  0.5434 -0.5478
13164TIP3    H160907   0.347   3.486   1.457 -0.3906  0.9340 -1.9372
13164TIP3    H260908   0.382   3.633   1.446 -0.8931  1.1178 -1.0783
13165TIP3   OH260909   6.788   5.394  13.658  0.1650 -0.1172 -0.0631
13165TIP3    H160910   6.846   5.396  13.733 -0.1499 -1.0655  0.2077
13165TIP3    H260911   6.743   5.310  13.664 -1.3519  0.6538 -0.1704
13166TIP3   OH260912   5.452   4.232   1.248 -0.0012 -0.0213  0.1482
13166TIP3    H160913   5.399   4.302   1.287 -0.2299 -0.0378 -0.1251
13166TIP3    H260914   5.388   4.172   1.210  0.0117 -2.2381  3.3421
13167TIP3   OH260915   4.499   2.722  15.684 -0.2867 -0.7333 -0.2241
13167TIP3    H160916   4.477   2.771  15.764 -1.1623  0.0676 -0.9272
13167TIP3    H260917   4.423   2.734  15.627  0.5202 -0.8688 -1.3682
13168TIP3   OH260918   4.191   4.285  11.548 -0.1017  0.3838 -0.1303
13168TIP3    H160919   4.113   4.255  11.500  0.6238  0.7390 -1.6072
13168TIP3    H260920   4.189   4.236  11.630 -2.2761  0.9359  0.2200
13169TIP3   OH260921   3.749   0.504  13.168  0.0998  0.0453  0.3161
13169TIP3    H160922   3.688   0.578  13.159 -0.9269 -0.6415  1.2982
13169TIP3    H260923   3.710   0.435  13.115  1.6853  0.5232 -1.5931
13170TIP3   OH260924   4.330   4.651   5.466  0.0024 -0.7670 -0.0295
13170TIP3    H160925   4.292   4.668   5.552 -1.2759  2.1371 -1.0640
13170TIP3    H260926   4.425   4.649   5.483 -0.0636  1.9407  1.2186
13171TIP3   OH260927   4.656   6.488   4.454  0.4258 -0.0103  0.0962
13171TIP3    H160928   4.599   6.416   4.426 -0.0209 -0.1420  1.2753
13171TIP3    H260929   4.686   6.528   4.373 -2.4049  0.9186 -0.6058
13172TIP3   OH260930   2.331   1.691  11.114  0.6210 -0.1285 -1.1001
13172TIP3    H160931   2.423   1.699  11.090  1.7200 -1.4648  2.0824
13172TIP3    H260932   2.304   1.607  11.075  1.2149 -0.4321 -0.8804
13173TIP3   OH260933   5.233   4.842   2.714 -0.5653 -0.1127 -0.7101
13173TIP3    H160934   5.311   4.875   2.670  0.2487  1.2562  1.5613
13173TIP3    H260935   5.195   4.920   2.756 -0.4518 -1.4395  2.1241
13174TIP3   OH260936   5.129   3.978   5.238  0.0462  0.1687  0.3254
13174TIP3    H160937   5.087   3.909   5.288 -0.9840 -0.1347 -0.9196
13174TIP3    H260938   5.192   3.932   5.182  1.0319  0.4859  1.1314
13175TIP3   OH260939   6.313   4.502  17.052 -0.1910 -0.1922 -0.1723
13175TIP3    H160940   6.355   4.514  17.137 -1.0184  1.2041  0.0805
13175TIP3    H260941   6.322   4.587  17.009 -1.5465 -0.2714 -0.6525
13176TIP3   OH260942   3.842   5.045   2.671 -0.1173 -0.2664 -0.3605
13176TIP3    H160943   3.899   5.115   2.640 -0.6439 -0.2120 -1.2318
13176TIP3    H260944   3.873   4.967   2.624  1.3410 -0.9513  1.5788
13177TIP3   OH260945   1.745   0.029  14.426  0.0485 -0.4685  0.2281
13177TIP3    H160946   1.725   0.077  14.506  0.1493  1.5812 -0.9103
13177TIP3    H260947   1.823   0.072  14.391 -1.8387  0.9765 -2.6478
13178TIP3   OH260948   2.376   2.354  16.745  0.1639 -0.3016 -0.0559
13178TIP3    H160949   2.355   2.267  16.779  0.4982 -0.5640 -0.4994
13178TIP3    H260950   2.421   2.337  16.662 -0.0007  0.3011 -0.2788
13179TIP3   OH260951   0.864   6.671  16.127  0.3661 -0.4982 -0.4280
13179TIP3    H160952   0.953   6.686  16.161  0.1704 -2.0957  0.9243
13179TIP3    H260953   0.812   6.650  16.205 -0.9519 -0.6955 -1.3316
13180TIP3   OH260954   3.799   2.703  14.015  0.0438 -0.3681 -0.2028
13180TIP3    H160955   3.862   2.637  14.044  1.1387 -0.9002 -3.4018
13180TIP3    H260956   3.853   2.779  13.992 -0.8631  0.4175  0.1684
13181TIP3   OH260957   1.330   3.684   4.217  0.2566  0.0548 -0.0898
13181TIP3    H160958   1.369   3.762   4.257 -1.2709  0.8930 -0.1796
13181TIP3    H260959   1.351   3.613   4.277  1.3965  0.5722  0.1619
13182TIP3   OH260960   6.586   3.789  14.812  0.7465  0.3549  0.2606
13182TIP3    H160961   6.598   3.754  14.724 -1.5784 -1.2804  0.5122
13182TIP3    H260962   6.642   3.867  14.815  0.4759  0.7752 -2.8325
13183TIP3   OH260963   3.969   1.705  13.446  0.7998 -0.6329 -0.1935
13183TIP3    H160964   3.878   1.718  13.420  0.9718  0.4469 -0.3405
13183TIP3    H260965   3.967   1.702  13.542  0.5165 -1.4523 -0.2255
13184TIP3   OH260966   1.094   3.529  10.692  0.1444  0.0469 -0.3416
13184TIP3    H160967   1.175   3.511  10.740  0.0935 -1.1676 -0.7010
13184TIP3    H260968   1.051   3.598  10.744  0.0548 -1.2611  1.4176
13185TIP3   OH260969   5.760   1.497  16.220 -0.0656  0.2456  0.1118
13185TIP3    H160970   5.696   1.550  16.268  0.7589  2.6757 -1.3071
13185TIP3    H260971   5.844   1.519  16.260  0.1709 -1.0468  0.3625
13186TIP3   OH260972   5.640   4.031   4.488 -0.5280 -0.1502  0.2447
13186TIP3    H160973   5.648   4.108   4.432  2.2404  1.0824  2.1207
13186TIP3    H260974   5.604   4.065   4.570  0.7929 -0.7919  1.1160
13187TIP3   OH260975   1.129   3.027  12.919  0.0461  0.0628  0.3392
13187TIP3    H160976   1.112   2.937  12.948  2.3537 -1.0555 -1.4763
13187TIP3    H260977   1.054   3.049  12.863 -0.3019 -0.9121  0.3982
13188TIP3   OH260978   5.182   5.578   1.231 -0.0317  0.6689  0.1606
13188TIP3    H160979   5.095   5.619   1.230 -0.5557 -0.4261 -0.8389
13188TIP3    H260980   5.170   5.497   1.282  0.0416 -0.2003 -1.1633
13189TIP3   OH260981   1.545   1.251  16.497 -0.8756  0.8796 -0.4294
13189TIP3    H160982   1.573   1.177  16.443 -0.2527  0.3480  0.5858
13189TIP3    H260983   1.450   1.243  16.502 -0.7768 -0.0819 -0.0113
13190TIP3   OH260984   1.651   4.655   3.585 -0.3280 -0.4360 -0.3887
13190TIP3    H160985   1.680   4.623   3.671 -0.5560  0.3140 -0.0186
13190TIP3    H260986   1.656   4.579   3.528  0.1918 -0.8586  0.2036
13191TIP3   OH260987   0.206   6.005  13.305  0.1206 -0.8121 -0.0860
13191TIP3    H160988   0.227   5.925  13.256  0.2351  0.5960 -2.4446
13191TIP3    H260989   0.114   5.995  13.328  0.1301 -1.6100 -0.3468
13192TIP3   OH260990   0.723   2.741  15.968  0.7802 -0.3500 -0.2886
13192TIP3    H160991   0.680   2.824  15.989  0.4556 -0.4873 -0.4061
13192TIP3    H260992   0.744   2.703  16.053  1.0988 -0.0608 -0.2380
13193TIP3   OH260993   2.771   4.302   2.274  0.0953 -0.0201 -0.4842
13193TIP3    H160994   2.711   4.371   2.246 -0.0714 -0.4801 -1.2827
13193TIP3    H260995   2.789   4.253   2.195  0.6860 -0.5354 -0.0335
13194TIP3   OH260996   6.157   0.795  11.730 -0.5761 -0.6111 -0.6616
13194TIP3    H160997   6.084   0.799  11.792  0.1673  1.0406  0.1734
13194TIP3    H260998   6.214   0.727  11.766  0.0680  0.6340  0.8056
13195TIP3   OH260999   3.564   1.946   1.326 -0.5520 -0.4240  0.5157
13195TIP3    H161000   3.515   1.864   1.333 -1.5720  0.1211 -0.0418
13195TIP3    H261001   3.497   2.013   1.313  0.3758  0.2614 -1.0206
13196TIP3   OH261002   2.050   1.320  12.513  0.4120 -0.2716 -0.5451
13196TIP3    H161003   1.995   1.322  12.435 -0.5987 -2.5241  0.0136
13196TIP3    H261004   2.063   1.227  12.530  2.2264  0.1914  0.8712
13197TIP3   OH261005   5.842   1.091   4.113  0.2679  0.4124  0.1449
13197TIP3    H161006   5.751   1.068   4.099  0.1750  0.6809  0.2823
13197TIP3    H261007   5.886   1.009   4.135 -0.1719  0.4502  1.2335
13198TIP3   OH261008   6.210   1.587  11.534  0.0467 -0.1909 -1.7992
13198TIP3    H161009   6.261   1.545  11.464  2.7056  0.8020 -0.6101
13198TIP3    H261010   6.276   1.630  11.589 -1.6245 -2.5079  2.5091
13199TIP3   OH261011   5.808   6.011   2.515 -0.8995  0.0461  0.1711
13199TIP3    H161012   5.771   5.973   2.435  1.2197  0.1902 -0.9273
13199TIP3    H261013   5.834   5.936   2.568  1.6219 -0.1608 -1.2131
13200TIP3   OH261014   3.295   5.547   5.717  0.1857  0.1832  0.0822
13200TIP3    H161015   3.329   5.479   5.775 -0.6736  0.7814  1.3216
13200TIP3    H261016   3.205   5.519   5.698  0.2740  0.2852 -0.5274
13201TIP3   OH261017   3.155   5.877   3.117  0.0128 -0.2854  0.1041
13201TIP3    H161018   3.228   5.815   3.126 -0.7266 -1.1180  0.4965
13201TIP3    H261019   3.197   5.963   3.120  0.9719 -0.7459  0.4675
13202TIP3   OH261020   2.400   4.956   3.714  0.4184 -0.8157 -0.7749
13202TIP3    H161021   2.339   4.937   3.642 -1.7733  1.8933  0.2073
13202TIP3    H261022   2.448   5.034   3.685  0.2363 -0.3042  0.2776
13203TIP3   OH261023   4.951   4.497   3.067 -0.3123  0.1193 -0.3918
13203TIP3    H161024   4.946   4.456   2.981 -0.6190 -0.2283 -0.2096
13203TIP3    H261025   4.862   4.491   3.101 -0.0314 -0.4114  0.2589
13204TIP3   OH261026   1.090   0.916  15.254  0.0035  0.1489  0.2829
13204TIP3    H161027   1.077   0.961  15.337 -2.6647  1.7690 -0.8709
13204TIP3    H261028   1.098   0.986  15.189  1.2177 -1.0686 -0.9605
13205TIP3   OH261029   6.175   3.168   1.113  0.1518  0.5225 -0.2916
13205TIP3    H161030   6.156   3.075   1.106 -0.6432  0.6740 -0.2965
13205TIP3    H261031   6.227   3.189   1.036  0.9229 -0.0528  0.0655
13206TIP3   OH261032   0.119   4.809  11.684 -0.5904  0.6025  0.1078
13206TIP3    H161033   0.134   4.716  11.673 -1.1616  0.5292 -0.0585
13206TIP3    H261034   0.200   4.851  11.654 -0.0634  0.1319  0.8372
13207TIP3   OH261035   3.904   5.084   0.957 -0.0216  0.8310  0.0335
13207TIP3    H161036   3.814   5.052   0.950  1.0177 -2.6970  0.9361
13207TIP3    H261037   3.928   5.069   1.048  2.2008 -0.5891 -0.7251
13208TIP3   OH261038   3.556   2.839  14.023 -0.3120 -0.4346  0.4559
13208TIP3    H161039   3.650   2.829  14.011 -0.5456 -0.9010 -1.3354
13208TIP3    H261040   3.546   2.874  14.111  1.5999  0.5919  0.3206
13209TIP3   OH261041   2.612   0.094   5.583 -0.0133  0.0753 -0.0070
13209TIP3    H161042   2.559   0.171   5.563  1.3907  0.9694 -0.4126
13209TIP3    H261043   2.589   0.030   5.516 -0.8270  0.3071  0.0420
13210TIP3   OH261044   2.187   1.277  12.752 -0.4954  0.4226 -0.2987
13210TIP3    H161045   2.139   1.318  12.679  1.0107  0.2221 -1.4489
13210TIP3    H261046   2.279   1.296  12.734 -0.1119  1.1235  2.0599
13211TIP3   OH261047   3.751   1.527   2.757 -0.2332  0.2527 -0.5074
13211TIP3    H161048   3.700   1.603   2.788 -0.4726  0.4241 -1.3083
13211TIP3    H261049   3.689   1.477   2.704 -0.6299 -1.5047  1.4489
13212TIP3   OH261050   0.302   2.362   3.841  0.1328 -0.1289 -0.7485
13212TIP3    H161051   0.372   2.323   3.789  3.1740  2.9764  0.6568
13212TIP3    H261052   0.316   2.329   3.930 -1.0832 -0.5461 -0.6986
13213TIP3   OH261053   5.365   3.045  16.165 -0.3719 -0.3162  0.7755
13213TIP3    H161054   5.371   3.135  16.197 -0.7008 -0.3879  1.0445
13213TIP3    H261055   5.447   3.030  16.119 -0.4634  0.2425  0.4177
13214TIP3   OH261056   1.712   6.152   1.289 -0.0388 -0.3852  0.3530
13214TIP3    H161057   1.664   6.140   1.370  1.1147  1.3760  1.3637
13214TIP3    H261058   1.804   6.155   1.315  0.5131 -1.6333 -1.2688
13215TIP3   OH261059   1.252   1.520   3.760 -0.5841  0.5951  0.2510
13215TIP3    H161060   1.332   1.565   3.786 -0.3379  1.3488 -1.6246
13215TIP3    H261061   1.220   1.478   3.840  0.7913  1.6405  1.3892
13216TIP3   OH261062   2.003   3.133   1.167 -0.2380  0.0021 -0.3448
13216TIP3    H161063   2.084   3.146   1.218 -0.0293 -2.2547 -0.0159
13216TIP3    H261064   1.982   3.220   1.133  2.0787  0.7376 -0.0590
13217TIP3   OH261065   5.418   3.162  14.785  0.3313  0.2853  0.3401
13217TIP3    H161066   5.433   3.137  14.694  0.3321 -0.8116  0.6301
13217TIP3    H261067   5.417   3.079  14.833  2.8810  0.9489  1.7393
13218TIP3   OH261068   0.984   2.345  15.883  0.4712 -0.2697  0.1582
13218TIP3    H161069   0.949   2.429  15.852 -3.6942 -1.6799  0.3421
13218TIP3    H261070   1.073   2.365  15.911  1.0746  3.2006 -3.3245
13219TIP3   OH261071   3.238   0.303   2.965 -0.7547  0.2456  0.4650
13219TIP3    H161072   3.150   0.271   2.986 -0.0237 -1.9466  0.4902
13219TIP3    H261073   3.229   0.344   2.879 -1.7399 -0.3286  0.2772
13220TIP3   OH261074   5.810   4.798  17.100  0.3435  1.0876 -0.2865
13220TIP3    H161075   5.817   4.747  17.180 -2.4445  0.1433 -0.5333
13220TIP3    H261076   5.878   4.763  17.042  0.3188 -0.3878  0.5506
13221TIP3   OH261077   4.347   2.303  11.360 -0.0564 -0.0265  0.0458
13221TIP3    H161078   4.323   2.290  11.452  2.0863 -0.9125  0.5361
13221TIP3    H261079   4.303   2.232  11.314  0.0823 -0.4911  0.6188
13222TIP3   OH261080   0.397   3.002   4.285 -0.2967  0.1032  0.1543
13222TIP3    H161081   0.467   3.036   4.229  0.0137 -0.2500  0.3235
13222TIP3    H261082   0.331   3.071   4.284  1.1273  1.5947  2.0572
13223TIP3   OH261083   2.684   2.006  13.931 -0.4031 -0.0679 -0.9547
13223TIP3    H161084   2.634   1.926  13.916 -0.0524 -0.3525 -0.6143
13223TIP3    H261085   2.775   1.977  13.935 -0.4090  0.0806  1.0433
13224TIP3   OH261086   6.623   6.029   5.685 -0.1579 -0.0364  0.2877
13224TIP3    H161087   6.590   6.014   5.597 -0.0184 -2.4681  0.5917
13224TIP3    H261088   6.548   6.064   5.733 -0.5879  0.0995 -0.4629
13225TIP3   OH261089   3.746   1.178  13.874 -0.0380 -0.0421  0.3677
13225TIP3    H161090   3.823   1.173  13.930  0.2422 -2.0288 -0.0921
13225TIP3    H261091   3.690   1.107  13.905 -0.9198  0.3050 -0.3870
13226TIP3   OH261092   5.817   4.522  12.563 -0.5501 -0.0687  0.8175
13226TIP3    H161093   5.796   4.440  12.518 -1.0128  0.4632  0.0335
13226TIP3    H261094   5.772   4.516  12.647 -1.7674 -0.0150  0.1820
13227TIP3   OH261095   3.189   2.214  15.117 -0.1446 -0.4938  0.2495
13227TIP3    H161096   3.145   2.177  15.194 -1.1449 -0.4484 -0.2765
13227TIP3    H261097   3.136   2.184  15.043 -0.7215  1.5721 -0.2353
13228TIP3   OH261098   5.044   5.385  15.916  0.0486 -0.0964  0.2153
13228TIP3    H161099   4.958   5.423  15.899 -0.0669 -0.9171 -1.1539
13228TIP3    H261100   5.026   5.300  15.956  0.2244 -0.3598 -0.2676
13229TIP3   OH261101   6.655   6.218  15.170  0.6633  0.6542 -0.0964
13229TIP3    H161102   6.706   6.211  15.251 -1.2533  2.3264  1.3547
13229TIP3    H261103   6.694   6.292  15.124  1.0873  0.3676 -0.2080
13230TIP3   OH261104   4.482   4.563  15.368 -0.3947  0.0276 -0.2454
13230TIP3    H161105   4.476   4.654  15.340 -2.0417 -0.3644 -1.2734
13230TIP3    H261106   4.472   4.567  15.463  1.6484  1.0588 -0.0026
13231TIP3   OH261107   2.712   0.851   4.330  0.4062 -0.0683  0.0477
13231TIP3    H161108   2.619   0.835   4.347  0.2863 -0.8867 -1.2306
13231TIP3    H261109   2.743   0.898   4.407 -0.2973 -2.5909  1.9853
13232TIP3   OH261110   6.319   1.193   0.051  0.3852 -0.2783 -0.0391
13232TIP3    H161111   6.335   1.175   0.143 -1.1343  3.0924  1.0261
13232TIP3    H261112   6.239   1.144   0.031  1.8069 -2.6966 -0.3092
13233TIP3   OH261113   4.199   1.680  11.338 -0.6747 -0.1713  0.4276
13233TIP3    H161114   4.252   1.689  11.259  0.6490  0.7781  1.3821
13233TIP3    H261115   4.120   1.635  11.309 -0.5757  0.8627 -1.5905
13234TIP3   OH261116   6.734   3.721   6.449  0.1598  0.5734  0.2974
13234TIP3    H161117   6.714   3.742   6.540 -1.5060 -0.7609  0.2958
13234TIP3    H261118   6.741   3.625   6.447 -1.4508  0.4261 -1.2307
13235TIP3   OH261119   1.195   6.675  12.919  0.0557 -0.8410 -0.0283
13235TIP3    H161120   1.281   6.712  12.939 -1.1084  1.7942  0.5038
13235TIP3    H261121   1.174   6.622  12.997  0.5049 -0.1973  0.5444
13236TIP3   OH261122   1.975   5.182  14.359 -0.0757  0.0464  0.2878
13236TIP3    H161123   1.966   5.231  14.277 -0.7269  0.3161  0.5139
13236TIP3    H261124   1.885   5.158  14.382 -0.1651  1.9129  2.0953
13237TIP3   OH261125   2.005   1.306  16.933 -0.3195  0.3566  0.2785
13237TIP3    H161126   1.998   1.376  16.867 -0.1047 -1.5518 -1.8910
13237TIP3    H261127   2.081   1.332  16.986  0.3407  1.3184 -1.0647
13238TIP3   OH261128   3.864   4.602   3.567 -0.5647  0.3890 -0.5117
13238TIP3    H161129   3.900   4.555   3.491 -1.0545 -0.4721 -0.2236
13238TIP3    H261130   3.788   4.649   3.532  0.5461  1.8957 -1.0374
13239TIP3   OH261131   4.095   4.665  13.499 -0.5368 -0.0404 -0.1392
13239TIP3    H161132   4.009   4.636  13.469 -0.3106  0.5016 -1.3503
13239TIP3    H261133   4.154   4.594  13.476 -0.3897  0.3072 -0.8539
13240TIP3   OH261134   0.275   5.451   4.074 -0.2526 -0.4458 -0.5166
13240TIP3    H161135   0.209   5.381   4.072 -1.6788  0.8710 -1.0748
13240TIP3    H261136   0.282   5.480   3.984 -0.8154  1.1353 -0.0842
13241TIP3   OH261137   6.045   1.461   4.001 -0.5411 -0.0355  0.1202
13241TIP3    H161138   6.038   1.438   3.908  0.6278  0.0671 -0.0086
13241TIP3    H261139   6.038   1.557   4.002  0.2013  0.0279  0.0414
13242TIP3   OH261140   4.607   5.446   3.134 -0.2116 -0.0762  0.2059
13242TIP3    H161141   4.589   5.532   3.094 -1.2789  0.3155  1.4568
13242TIP3    H261142   4.569   5.383   3.073  1.3381  0.2419 -1.1677
13243TIP3   OH261143   4.036   0.649   4.601  0.1411 -0.2996 -0.4247
13243TIP3    H161144   4.082   0.676   4.522 -1.2891 -0.1042 -1.2281
13243TIP3    H261145   4.008   0.731   4.642  1.2363 -0.3837  0.5304
13244TIP3   OH261146   5.687   0.880   4.929 -0.1819  0.1601 -0.0205
13244TIP3    H161147   5.604   0.835   4.914 -0.2708  0.1651  0.4217
13244TIP3    H261148   5.735   0.872   4.847 -0.6960  0.3125 -0.3364
13245TIP3   OH261149   1.136   1.356  11.556  0.4312  0.0597  0.1429
13245TIP3    H161150   1.214   1.409  11.572  1.2490 -1.3015  0.8461
13245TIP3    H261151   1.138   1.289  11.624  0.7204 -2.2999 -2.0486
13246TIP3   OH261152   2.869   1.665  13.448 -0.3468  0.1489  0.0738
13246TIP3    H161153   2.836   1.749  13.478  0.2560  0.6581 -0.6512
13246TIP3    H261154   2.888   1.678  13.355  1.0011 -0.3797  0.2410
13247TIP3   OH261155   2.924   5.837  14.695  0.0470  0.1822 -0.2032
13247TIP3    H161156   2.886   5.925  14.687  1.1100  0.5296 -1.9940
13247TIP3    H261157   2.964   5.836  14.782 -1.6731  0.7449  0.6360
13248TIP3   OH261158   3.745   3.785  15.961 -0.0007  0.4223  0.6058
13248TIP3    H161159   3.652   3.797  15.983 -0.0001  1.3441  0.1478
13248TIP3    H261160   3.767   3.700  15.998 -0.4876  1.0915  2.5793
13249TIP3   OH261161   2.102   5.996   1.154  0.4837 -0.6157 -0.5273
13249TIP3    H161162   2.050   5.926   1.115  0.9843 -1.4090  0.1994
13249TIP3    H261163   2.172   5.951   1.200  0.1385  0.3091  0.9647
13250TIP3   OH261164   6.451   4.682  14.816 -0.4199 -0.1476 -0.6362
13250TIP3    H161165   6.494   4.672  14.731 -0.5755  1.5826 -0.9552
13250TIP3    H261166   6.360   4.657  14.801  0.1522 -2.6883 -0.2378
13251TIP3   OH261167   5.052   1.532   3.881 -0.4781 -0.2754 -0.2218
13251TIP3    H161168   5.010   1.504   3.800  0.0279 -1.5642 -0.0579
13251TIP3    H261169   5.050   1.455   3.937 -0.1257  0.3778  0.7108
13252TIP3   OH261170   1.217   4.887   1.993  0.0461  0.3206 -0.2680
13252TIP3    H161171   1.192   4.978   1.980  0.0930  0.3361 -0.2518
13252TIP3    H261172   1.161   4.856   2.064  0.3530  0.4734  0.0441
13253TIP3   OH261173   4.651   5.061   0.197  0.0022 -0.2772  0.1743
13253TIP3    H161174   4.697   5.021   0.270  0.6740  2.4352  1.3778
13253TIP3    H261175   4.718   5.070   0.129 -0.5594 -2.5586 -0.7722
13254TIP3   OH261176   1.503   5.090   1.685  0.0155  0.6805 -0.2888
13254TIP3    H161177   1.535   5.126   1.768  2.5254 -0.3137 -0.7375
13254TIP3    H261178   1.450   5.014   1.711  1.4369 -0.1085  0.4418
13255TIP3   OH261179   5.487   2.385   3.916  0.1910  0.2153 -0.4176
13255TIP3    H161180   5.409   2.434   3.893  0.6072  0.1633 -2.1013
13255TIP3    H261181   5.458   2.294   3.923 -0.1406  0.3769  0.2970
13256TIP3   OH261182   1.760   2.334   3.323 -0.0982  0.0838  0.0532
13256TIP3    H161183   1.677   2.351   3.278 -2.1266  0.1862  3.4950
13256TIP3    H261184   1.768   2.238   3.323 -0.7538  0.0140  0.4525
13257TIP3   OH261185   1.670   3.706   1.159  0.2635 -0.2453 -0.3505
13257TIP3    H161186   1.652   3.699   1.252  3.0857  0.0479  0.3109
13257TIP3    H261187   1.754   3.752   1.154  1.1919 -1.9785 -2.9251
13258TIP3   OH261188   6.699   2.221  12.159  0.4000 -0.0983  0.6571
13258TIP3    H161189   6.760   2.217  12.233 -1.0428 -2.0767  1.8213
13258TIP3    H261190   6.624   2.270  12.193  0.2109 -0.0132  0.1227
13259TIP3   OH261191   2.223   4.865   3.523 -0.1607 -0.2823  0.4086
13259TIP3    H161192   2.235   4.775   3.550  0.9806 -0.6058 -1.0155
13259TIP3    H261193   2.216   4.861   3.427  0.8554  1.1978  0.2254
13260TIP3   OH261194   0.832   2.036   3.367 -0.6610  0.0312 -0.1321
13260TIP3    H161195   0.906   2.000   3.414 -1.0255 -0.4533  0.0801
13260TIP3    H261196   0.824   2.126   3.399  1.0184  0.7527 -1.5665
13261TIP3   OH261197   3.624   3.896   2.825 -0.3480 -0.6177  0.2405
13261TIP3    H161198   3.628   3.951   2.747 -0.3045 -0.2472  0.4983
13261TIP3    H261199   3.613   3.807   2.792  0.2964 -0.5397 -0.2080
13262TIP3   OH261200   4.540   3.976  12.521  0.6155 -0.5131 -0.2698
13262TIP3    H161201   4.459   3.947  12.478  0.7384 -1.7640  0.2755
13262TIP3    H261202   4.602   3.990  12.450  0.4288 -1.2712 -0.5933
13263TIP3   OH261203   3.732   3.924  14.287  0.4167 -0.6041 -0.8509
13263TIP3    H161204   3.661   3.985  14.268  0.4900 -0.2570 -0.0293
13263TIP3    H261205   3.812   3.971  14.264  0.5212 -0.0935  0.4901
13264TIP3   OH261206   6.235   5.162   1.967 -0.1382  0.3925  0.2238
13264TIP3    H161207   6.271   5.074   1.965 -1.1585 -0.0550  0.8829
13264TIP3    H261208   6.301   5.213   2.014  0.1702 -0.1569  0.3950
13265TIP3   OH261209   4.850   0.668  16.218 -0.1732 -0.0116 -0.1395
13265TIP3    H161210   4.897   0.743  16.253  0.9035  0.8450 -3.1358
13265TIP3    H261211   4.765   0.670  16.263  1.1345  0.7787  2.4732
13266TIP3   OH261212   0.801   3.545   5.252 -0.0950  0.1939 -0.0313
13266TIP3    H161213   0.834   3.482   5.188 -1.4567 -0.1704 -0.4161
13266TIP3    H261214   0.879   3.577   5.297  0.6081 -2.5922  0.9557
13267TIP3   OH261215   1.151   3.379  11.475  0.1842  0.1205 -0.4066
13267TIP3    H161216   1.120   3.302  11.522 -0.5232  0.9704  0.5766
13267TIP3    H261217   1.105   3.376  11.391 -0.9228  0.2019  0.1780
13268TIP3   OH261218   5.580   5.984   3.184 -0.3463  0.1133  0.0315
13268TIP3    H161219   5.637   6.011   3.112 -1.4171 -0.8167 -1.2081
13268TIP3    H261220   5.513   5.929   3.143 -1.8268  0.7111  1.5202
13269TIP3   OH261221   2.288   6.588  16.375  0.1397  0.3560  0.2980
13269TIP3    H161222   2.256   6.596  16.286 -1.1134 -1.8763  0.4646
13269TIP3    H261223   2.235   6.649  16.426 -0.2418  0.4936 -0.2569
13270TIP3   OH261224   3.298   3.226   0.514  0.4919  0.0665 -0.2444
13270TIP3    H161225   3.203   3.238   0.518  0.1931 -2.1689  1.2986
13270TIP3    H261226   3.334   3.313   0.531 -1.3177  0.5759  1.3167
13271TIP3   OH261227   6.079   1.930  15.845 -0.0224 -0.3078 -0.1721
13271TIP3    H161228   6.075   1.887  15.759 -0.5490 -0.2543 -0.1801
13271TIP3    H261229   6.072   1.858  15.908  0.7995 -0.3903 -0.1622
13272TIP3   OH261230   4.123   5.019  12.936  0.4353  0.3333 -0.3013
13272TIP3    H161231   4.213   5.002  12.909 -0.5469 -0.6183 -3.3887
13272TIP3    H261232   4.096   4.937  12.979  1.2967  1.0374  1.7442
13273TIP3   OH261233   3.235   5.054  11.823 -0.2927 -0.6376 -0.6249
13273TIP3    H161234   3.285   5.118  11.773 -0.3230  0.6813  0.9593
13273TIP3    H261235   3.167   5.024  11.762 -1.4349  2.1992 -0.9016
13274TIP3   OH261236   4.023   0.909  15.815 -0.1297  0.7289  0.0376
13274TIP3    H161237   4.046   0.959  15.737 -0.1193 -0.0058 -0.4443
13274TIP3    H261238   4.097   0.849  15.827 -0.1059  0.8780  0.6468
13275TIP3   OH261239   5.366   3.617  12.058 -0.1220  0.2419  0.3971
13275TIP3    H161240   5.411   3.669  12.124  1.5876 -0.3917 -0.2137
13275TIP3    H261241   5.370   3.671  11.978  1.5733 -0.7189 -0.2139
13276TIP3   OH261242   2.696   6.734   4.337  0.1569  0.4382  0.0405
13276TIP3    H161243   2.750   6.735   4.416  1.3153  0.3322 -0.7356
13276TIP3    H261244   2.688   6.826   4.312 -1.1074  0.5818  0.8448
13277TIP3   OH261245   2.918   0.661  17.206  0.1062  0.2238 -0.3568
13277TIP3    H161246   2.981   0.635  17.138 -1.0721  1.1163 -1.8327
13277TIP3    H261247   2.970   0.663  17.287  1.3463 -1.7500 -1.0378
13278TIP3   OH261248   6.568   4.252  15.290  0.5284  0.0699 -0.4528
13278TIP3    H161249   6.479   4.287  15.281  0.1632 -0.7362 -0.1098
13278TIP3    H261250   6.623   4.315  15.243 -0.3325  0.0860 -1.4993
13279TIP3   OH261251   4.393   2.355  13.288  0.5801 -0.1888 -0.1247
13279TIP3    H161252   4.431   2.305  13.215 -0.2170 -0.0300 -0.6624
13279TIP3    H261253   4.308   2.384  13.255  0.5194  0.5053  0.6164
13280TIP3   OH261254   5.364   0.970  12.179 -0.3153 -0.2696  0.4189
13280TIP3    H161255   5.356   0.945  12.087  0.3690 -0.6852  0.4658
13280TIP3    H261256   5.343   1.063  12.181  2.3830  0.4425 -0.5989
13281TIP3   OH261257   4.471   3.683  11.507 -0.1500  0.5519  0.3172
13281TIP3    H161258   4.418   3.632  11.446  0.8934  3.2950 -3.1946
13281TIP3    H261259   4.555   3.637  11.510 -0.4819 -0.0595  0.4200
13282TIP3   OH261260   5.402   1.213   5.295  0.9714  0.0513  0.0943
13282TIP3    H161261   5.426   1.294   5.340 -0.7122  1.2824 -1.1168
13282TIP3    H261262   5.388   1.239   5.204  0.5587 -1.6500 -0.3620
13283TIP3   OH261263   2.461   5.298   3.936 -0.2554  0.4726  0.3213
13283TIP3    H161264   2.380   5.261   3.900 -0.5106 -1.2539  2.4215
13283TIP3    H261265   2.523   5.225   3.935  1.0848  1.5972 -0.6377
13284TIP3   OH261266   0.302   5.994   5.489 -0.0745 -0.0267 -0.1809
13284TIP3    H161267   0.282   5.930   5.557 -0.3694  1.3185  1.0508
13284TIP3    H261268   0.244   6.068   5.508  1.4927  1.3310 -0.4615
13285TIP3   OH261269   4.245   5.832  15.326 -0.0587  0.0906 -0.0838
13285TIP3    H161270   4.272   5.869  15.409  0.9747 -0.8646  0.0239
13285TIP3    H261271   4.219   5.908  15.273  0.4448  0.8101  0.6769
13286TIP3   OH261272   2.258   6.444  14.848  0.8475 -0.4262  0.3144
13286TIP3    H161273   2.227   6.405  14.766 -1.8255  2.5781 -0.3199
13286TIP3    H261274   2.178   6.461  14.898  1.9000  2.4987  1.1996
13287TIP3   OH261275   0.568   5.313   2.767 -0.4747 -0.5426 -0.6996
13287TIP3    H161276   0.506   5.373   2.809 -0.0567 -0.6398  0.0754
13287TIP3    H261277   0.654   5.347   2.792 -0.2327 -1.1670 -0.6682
13288TIP3   OH261278   3.403   0.585  12.898  0.7113 -0.5658 -0.3194
13288TIP3    H161279   3.431   0.505  12.853  0.2607 -1.1375  0.3781
13288TIP3    H261280   3.383   0.555  12.987  0.8999  0.4000  0.0508
13289TIP3   OH261281   2.709   6.275  14.350  0.9237  0.0303 -0.1973
13289TIP3    H161282   2.730   6.292  14.258 -1.2803  1.6917 -0.4704
13289TIP3    H261283   2.643   6.206  14.348  1.6985 -0.7464  0.2451
13290TIP3   OH261284   6.209   3.708   2.977  0.2071  0.1003 -0.1908
13290TIP3    H161285   6.181   3.626   3.018  2.7920 -0.4566  0.6888
13290TIP3    H261286   6.198   3.774   3.045 -1.2358  0.3856 -0.6759
13291TIP3   OH261287   4.687   1.769   0.003 -0.7606 -0.6220 -0.5996
13291TIP3    H161288   4.744   1.714   0.058 -0.5271  0.2220  0.0184
13291TIP3    H261289   4.688   1.725  -0.082 -1.2423 -2.0321  0.0830
13292TIP3   OH261290   3.007   0.601  14.543  0.4214  0.2480  0.2024
13292TIP3    H161291   2.955   0.611  14.463 -0.6682 -3.1101  0.3006
13292TIP3    H261292   3.097   0.615  14.514 -0.1683  2.1383 -0.8843
13293TIP3   OH261293   3.321   1.237  10.888 -0.2738  0.0333 -0.2627
13293TIP3    H161294   3.397   1.179  10.880  1.6213  2.4207 -0.4577
13293TIP3    H261295   3.277   1.206  10.967  0.7269 -1.5615 -0.2695
13294TIP3   OH261296   5.027   2.576   3.758  0.1804 -0.1104  0.1646
13294TIP3    H161297   5.053   2.487   3.738  0.3518  0.1719 -0.9470
13294TIP3    H261298   5.087   2.604   3.827 -0.4496 -1.1297  1.1669
13295TIP3   OH261299   0.765   1.809   4.795  0.1997 -0.3092 -0.2305
13295TIP3    H161300   0.674   1.788   4.776  0.1819 -0.0794 -0.4068
13295TIP3    H261301   0.805   1.822   4.710  0.2563  0.1604 -0.1367
13296TIP3   OH261302   4.309   4.065   4.994 -0.0767 -0.3004 -0.1208
13296TIP3    H161303   4.390   4.033   5.033 -0.4938  1.4085  2.3718
13296TIP3    H261304   4.317   4.043   4.901  3.1314 -0.3876  0.0586
13297TIP3   OH261305   3.596   6.770   5.949 -0.6650 -0.5503  0.6945
13297TIP3    H161306   3.549   6.799   6.027 -0.9937  0.9734 -0.0406
13297TIP3    H261307   3.683   6.747   5.981 -0.5347  0.8228  1.4205
13298TIP3   OH261308   3.205   2.143   1.186 -0.2818 -0.3180  0.5302
13298TIP3    H161309   3.189   2.093   1.266 -1.2814 -0.7484  0.0825
13298TIP3    H261310   3.271   2.093   1.139  0.8068  0.2817  1.3680
13299TIP3   OH261311   2.991   5.109   5.028  0.6470 -0.2731 -0.0572
13299TIP3    H161312   2.980   5.040   4.963 -0.7554 -0.8885  0.7903
13299TIP3    H261313   3.020   5.064   5.107 -0.5011  0.0354  0.5733
13300TIP3   OH261314   5.273   0.032  14.381  0.2808  0.3124 -0.7384
13300TIP3    H161315   5.347   0.039  14.321 -0.4841  1.1336 -1.6267
13300TIP3    H261316   5.231   0.118  14.376 -1.2376 -0.4227 -0.9193
13301TIP3   OH261317   5.607   3.211   5.515  0.0410 -0.6051 -0.1695
13301TIP3    H161318   5.549   3.138   5.495  2.3205 -2.7173  0.4636
13301TIP3    H261319   5.643   3.237   5.430 -1.7121  0.7234 -0.5671
13302TIP3   OH261320   2.399   5.716   3.946 -0.1339 -0.5993 -0.4375
13302TIP3    H161321   2.492   5.721   3.965 -0.4499 -1.7334  1.7176
13302TIP3    H261322   2.357   5.755   4.023 -1.4559  0.5399 -1.6736
13303TIP3   OH261323   3.838   1.264   0.058 -0.2663  0.1698 -0.3170
13303TIP3    H161324   3.817   1.178   0.021 -0.8715  0.3329 -0.3509
13303TIP3    H261325   3.819   1.255   0.151  2.4693 -0.6467  0.2601
13304TIP3   OH261326   2.511   5.595   1.845 -0.2996  0.3882  0.5980
13304TIP3    H161327   2.458   5.646   1.784 -1.2036  0.5278  1.4711
13304TIP3    H261328   2.579   5.556   1.791 -0.1033  1.8052 -0.2312
13305TIP3   OH261329   2.275   1.628  14.369 -0.0963 -0.6477  0.6803
13305TIP3    H161330   2.263   1.643  14.276  0.8025 -0.5206  0.5720
13305TIP3    H261331   2.203   1.675  14.411  0.2915  0.4686  0.1242
13306TIP3   OH261332   6.546   1.117  16.232 -0.1660 -0.0958 -0.2381
13306TIP3    H161333   6.568   1.180  16.301 -0.9437  1.1271 -1.0568
13306TIP3    H261334   6.490   1.053  16.274 -0.4252  0.4971  0.3309
13307TIP3   OH261335   3.325   3.620   3.444  0.2424 -0.1270 -0.2310
13307TIP3    H161336   3.379   3.541   3.446  1.1053  0.4618  1.2731
13307TIP3    H261337   3.384   3.689   3.414  0.0247  0.3046  0.3162
13308TIP3   OH261338   4.237   2.827  12.661  0.8316 -0.2323  0.0938
13308TIP3    H161339   4.211   2.764  12.728 -0.5801  0.7609  0.5351
13308TIP3    H261340   4.155   2.855  12.621  1.4128  1.2859 -0.1105
13309TIP3   OH261341   0.701   4.378   6.156  0.0524  0.1070 -0.7545
13309TIP3    H161342   0.682   4.391   6.249 -0.5394  0.7704 -0.9569
13309TIP3    H261343   0.797   4.372   6.152  0.0739 -0.1056 -0.0834
13310TIP3   OH261344   5.887   0.126  15.128 -0.4575  0.5589 -0.0951
13310TIP3    H161345   5.847   0.168  15.052 -0.9435  0.4876  0.1119
13310TIP3    H261346   5.815   0.076  15.168  0.6622 -2.7277 -1.8400
13311TIP3   OH261347   5.531   2.062   0.531 -0.1427 -0.3886  0.1594
13311TIP3    H161348   5.508   1.984   0.480 -0.0843  0.5414 -1.3582
13311TIP3    H261349   5.617   2.088   0.497  0.6845 -0.6697  1.9280
13312TIP3   OH261350   3.112   4.067   3.986  0.1691  0.2553  0.1592
13312TIP3    H161351   3.165   4.057   4.065 -0.1110  1.7318  0.5662
13312TIP3    H261352   3.040   4.006   3.997  2.4002 -2.8229 -1.0247
13313TIP3   OH261353   1.937   2.341   0.284 -0.3263  0.0625  0.2561
13313TIP3    H161354   1.887   2.378   0.357  0.3676  0.7915  0.3677
13313TIP3    H261355   2.005   2.288   0.326 -1.4332 -1.5569  0.0985
13314TIP3   OH261356   5.441   4.651   0.128  0.1275 -0.2809  0.3512
13314TIP3    H161357   5.453   4.655   0.034 -0.1110  0.4125  0.3418
13314TIP3    H261358   5.469   4.737   0.160 -1.8275  0.2946  0.6599
13315TIP3   OH261359   4.456   0.064  17.112 -1.0384 -0.2488 -0.6066
13315TIP3    H161360   4.531   0.042  17.057 -0.9283  2.8689 -1.8561
13315TIP3    H261361   4.489   0.056  17.202  0.1838 -0.7635 -1.0803
13316TIP3   OH261362   4.266   3.985   3.557 -0.1664  0.7077  0.3640
13316TIP3    H161363   4.221   4.067   3.578 -0.8314  0.5114 -0.2505
13316TIP3    H261364   4.197   3.929   3.519  1.0346  1.3089 -3.0846
13317TIP3   OH261365   4.434   1.268   3.045 -0.1806 -0.0677  0.2294
13317TIP3    H161366   4.447   1.184   3.088  1.7832 -0.2593 -0.6253
13317TIP3    H261367   4.441   1.248   2.951 -1.6121  0.7625 -0.0851
13318TIP3   OH261368   4.823   4.592  16.903  0.0792 -0.0623  0.4691
13318TIP3    H161369   4.750   4.584  16.965  1.1832 -0.3634  1.7719
13318TIP3    H261370   4.803   4.670  16.853 -1.5804 -0.6266  0.1934
13319TIP3   OH261371   3.306   0.255  16.193  0.1261 -0.6066 -0.1816
13319TIP3    H161372   3.233   0.196  16.174  0.0745 -0.5025 -0.3003
13319TIP3    H261373   3.383   0.198  16.193  0.3697 -0.3418 -2.4035
13320TIP3   OH261374   4.771   4.705  12.459 -0.1033  0.5412  0.3225
13320TIP3    H161375   4.713   4.782  12.462  1.0852  1.5560 -1.1637
13320TIP3    H261376   4.829   4.716  12.534 -0.2744  0.8463  0.4141
13321TIP3   OH261377   4.373   5.616   3.024 -0.3249  0.1423  0.0953
13321TIP3    H161378   4.354   5.562   2.947 -1.9113  0.6948  0.0634
13321TIP3    H261379   4.353   5.560   3.098 -0.7852  0.2737  0.0737
13322TIP3   OH261380   1.356   0.660   1.061  0.2653  0.0460  0.2302
13322TIP3    H161381   1.290   0.703   1.007 -0.5801 -1.9985 -0.4573
13322TIP3    H261382   1.407   0.608   1.000  1.6345  0.4866  0.9553
13323TIP3   OH261383   6.608   4.686   4.876  0.2520 -0.5127  0.1749
13323TIP3    H161384   6.561   4.707   4.957  0.3189  1.5945 -0.2547
13323TIP3    H261385   6.689   4.645   4.906  0.0970 -0.1219  1.1759
13324TIP3   OH261386   2.806   3.995   0.686 -0.1698  0.3005 -0.0584
13324TIP3    H161387   2.855   3.915   0.705  1.0069  1.2715  1.2217
13324TIP3    H261388   2.851   4.034   0.612 -0.2848  0.1532 -0.2060
13325TIP3   OH261389   0.608   6.259   0.342  0.1841  0.1274  0.3987
13325TIP3    H161390   0.579   6.314   0.270  1.3257 -1.1249 -1.0794
13325TIP3    H261391   0.530   6.210   0.368  0.1978 -0.9611 -1.4548
13326TIP3   OH261392   6.043   5.284  11.757 -0.0100  0.0582 -0.6622
13326TIP3    H161393   6.071   5.344  11.826 -0.5507 -1.6546  1.1321
13326TIP3    H261394   6.096   5.205  11.771 -0.9234 -0.7303 -1.4916
13327TIP3   OH261395   5.461   4.382   5.335  0.0302 -0.0426  0.9356
13327TIP3    H161396   5.485   4.474   5.346  0.0410  0.0002  0.5697
13327TIP3    H261397   5.419   4.358   5.418 -0.1819  0.3578  0.9487
13328TIP3   OH261398   0.678   5.959   3.795  0.0122  0.0544  0.2012
13328TIP3    H161399   0.715   5.899   3.731  1.4578  0.2246  0.8472
13328TIP3    H261400   0.724   5.939   3.877  0.5846  2.0706  0.4248
13329TIP3   OH261401   4.925   0.149  12.910  0.0628 -0.9645 -0.2896
13329TIP3    H161402   4.863   0.217  12.935  1.3873 -0.1516  0.9562
13329TIP3    H261403   4.878   0.096  12.846 -1.2534  0.6968 -0.7715
13330TIP3   OH261404   6.401   1.075  14.551 -0.0708  0.3238  0.3024
13330TIP3    H161405   6.456   1.152  14.534  0.7804 -0.4372 -0.5100
13330TIP3    H261406   6.333   1.107  14.611 -0.2534  1.9201 -0.6934
13331TIP3   OH261407   6.357   1.993  11.393 -0.5242  0.6461  0.5367
13331TIP3    H161408   6.427   1.940  11.432  0.7091  0.2256 -2.0198
13331TIP3    H261409   6.302   2.019  11.467 -0.5024 -3.1698  2.1023
13332TIP3   OH261410   4.502   2.003   4.595  0.4651  0.0090 -0.5732
13332TIP3    H161411   4.463   2.089   4.578  0.6356  0.2676  0.2724
13332TIP3    H261412   4.482   1.951   4.518 -3.6303 -0.6677  0.7286
13333TIP3   OH261413   6.010   5.518   5.453  0.7153  0.4954 -0.4779
13333TIP3    H161414   6.066   5.535   5.529 -0.3296  0.8859  0.2144
13333TIP3    H261415   6.071   5.520   5.379  1.9580 -1.0354  0.4165
13334TIP3   OH261416   6.099   3.081  13.986 -0.1841  0.4556  0.0226
13334TIP3    H161417   6.010   3.056  14.012  0.3940 -1.3209  0.4062
13334TIP3    H261418   6.094   3.176  13.972 -1.7892  0.6175  1.3983
13335TIP3   OH261419   3.204   5.489  12.287  0.0437 -0.5178 -0.3992
13335TIP3    H161420   3.286   5.511  12.243 -0.3190  0.5327 -0.5607
13335TIP3    H261421   3.196   5.394  12.274  1.0493 -0.5797 -0.6844
13336TIP3   OH261422   2.774   1.247  15.918  0.3459  0.7373 -0.0872
13336TIP3    H161423   2.805   1.242  16.008  0.2699  0.5841 -0.0693
13336TIP3    H261424   2.820   1.176  15.873  1.3096  1.5694 -0.4509
13337TIP3   OH261425   4.221   0.992   5.172  0.6321  0.0720  0.7243
13337TIP3    H161426   4.215   1.081   5.207 -1.1712 -0.6795  2.5036
13337TIP3    H261427   4.241   0.938   5.249 -0.6491 -1.3285  0.1064
13338TIP3   OH261428   2.077   5.095  12.532 -0.0707 -0.3550  0.5622
13338TIP3    H161429   2.085   5.058  12.620  1.1383  1.8027  1.4155
13338TIP3    H261430   2.002   5.048  12.494  1.5541 -3.9295  1.3341
13339TIP3   OH261431   0.610   4.907  17.149  0.1117 -0.3491 -0.4853
13339TIP3    H161432   0.524   4.889  17.187  0.1756 -1.2026 -0.7337
13339TIP3    H261433   0.669   4.845  17.191  0.5428 -0.0161 -0.5863
13340TIP3   OH261434   4.694   2.365   4.589 -0.1208 -0.5215 -0.7676
13340TIP3    H161435   4.629   2.407   4.646 -0.9431  0.2177 -2.1916
13340TIP3    H261436   4.731   2.295   4.642 -0.5949  0.3526  0.7924
13341TIP3   OH261437   1.992   6.038   2.773  1.2827  0.3588  0.4389
13341TIP3    H161438   2.006   6.057   2.680  0.2588 -0.6315  0.0516
13341TIP3    H261439   2.017   6.118   2.818 -1.7262  2.2838 -1.0000
13342TIP3   OH261440   4.852   1.588   2.053  0.0865 -0.0545  0.0374
13342TIP3    H161441   4.891   1.660   2.103 -2.9731  1.3110  0.7222
13342TIP3    H261442   4.883   1.602   1.963  1.5201  0.5998  0.5980
13343TIP3   OH261443   4.799   5.731  13.873 -0.1729  0.1678  0.0141
13343TIP3    H161444   4.775   5.778  13.792  0.1593  0.5415  0.1316
13343TIP3    H261445   4.856   5.660  13.843 -2.4418 -1.6165 -0.4570
13344TIP3   OH261446   3.719   5.150  13.812 -0.0582 -0.2740  0.2646
13344TIP3    H161447   3.677   5.094  13.746 -2.4152  1.1443  0.4347
13344TIP3    H261448   3.652   5.161  13.880  1.3684  0.4484  1.6254
13345TIP3   OH261449   3.724   6.219   4.257  1.1176 -0.4896  0.5702
13345TIP3    H161450   3.727   6.253   4.168 -1.1348 -0.5263  0.4237
13345TIP3    H261451   3.722   6.296   4.313 -0.3811 -0.3979  0.4181
13346TIP3   OH261452   5.548   5.860  12.699  0.6201 -0.1203  0.0710
13346TIP3    H161453   5.496   5.786  12.731  0.6452 -0.3928 -0.4987
13346TIP3    H261454   5.633   5.849  12.741  0.5586 -0.3025  0.1488
13347TIP3   OH261455   5.836   2.208  11.783 -0.0115 -0.2926 -0.7025
13347TIP3    H161456   5.914   2.249  11.744 -0.0473 -1.8768 -2.5748
13347TIP3    H261457   5.763   2.248  11.737 -0.1529 -0.8216 -0.9438
13348TIP3   OH261458   1.710   1.387  12.012 -0.0112 -0.7506  0.1189
13348TIP3    H161459   1.676   1.363  11.926 -1.1267 -2.6444  1.0186
13348TIP3    H261460   1.633   1.406  12.065  0.5608 -0.9925  1.0727
13349TIP3   OH261461   5.710   5.705  13.369 -0.4820  0.7469 -0.9631
13349TIP3    H161462   5.675   5.627  13.413 -0.9783 -0.0518 -2.6709
13349TIP3    H261463   5.779   5.736  13.427 -1.2552 -0.0956  0.4788
13350TIP3   OH261464   6.240   6.701  14.846 -0.2445  0.2240  0.0421
13350TIP3    H161465   6.314   6.645  14.869  1.5319  1.7782 -1.5156
13350TIP3    H261466   6.199   6.722  14.930  0.5308 -1.3445  0.8759
13351TIP3   OH261467   5.272   1.321  12.659  0.1673 -0.3535 -0.1930
13351TIP3    H161468   5.222   1.263  12.717  0.0434  0.0824  0.1416
13351TIP3    H261469   5.353   1.273  12.641 -0.6121 -1.3407 -1.2346
13352TIP3   OH261470   1.412   5.582  15.906  0.1394  0.1136  0.3337
13352TIP3    H161471   1.461   5.623  15.978  0.5349 -2.0873  1.4154
13352TIP3    H261472   1.432   5.489  15.914 -3.2474 -0.7658  0.0422
13353TIP3   OH261473   3.371   2.928   3.876 -0.4385 -0.7686  0.0942
13353TIP3    H161474   3.335   2.965   3.795 -1.8496 -0.4431  0.8281
13353TIP3    H261475   3.381   3.004   3.934  2.8958 -0.5919 -0.5092
13354TIP3   OH261476   5.706   1.721   1.628  0.1916  0.0246  0.6192
13354TIP3    H161477   5.699   1.626   1.626  2.3489 -0.1698 -0.5092
13354TIP3    H261478   5.798   1.739   1.609 -0.0724  2.3335  1.1999
13355TIP3   OH261479   4.806   6.016  15.174  0.0356 -0.4975 -0.2461
13355TIP3    H161480   4.744   6.086  15.191 -0.1527 -0.8737  0.6953
13355TIP3    H261481   4.888   6.046  15.214  0.4441 -0.0588 -1.3729
13356TIP3   OH261482   3.939   1.641   1.210  0.1989  0.1224 -0.3992
13356TIP3    H161483   3.958   1.720   1.261  1.9092  1.3422 -2.7362
13356TIP3    H261484   3.844   1.644   1.196 -0.0082  0.8155  0.9750
13357TIP3   OH261485   4.260   0.370   0.558 -0.1336  0.0714 -0.0241
13357TIP3    H161486   4.209   0.303   0.604 -1.0120 -1.0405 -2.4436
13357TIP3    H261487   4.196   0.414   0.503  1.1616  0.0178 -1.6121
13358TIP3   OH261488   2.731   0.253  13.705  0.2817 -0.8724  0.3261
13358TIP3    H161489   2.766   0.165  13.692 -0.3346 -0.8099 -2.3649
13358TIP3    H261490   2.643   0.239  13.739  0.2221 -1.2952  0.0105
13359TIP3   OH261491   5.353   3.866   3.281  0.0193 -0.1454 -0.0439
13359TIP3    H161492   5.326   3.804   3.213 -0.7068 -0.6994  0.7348
13359TIP3    H261493   5.332   3.952   3.244  1.2105 -0.3307 -1.2056
13360TIP3   OH261494   1.434   3.694  16.616 -0.3007 -0.2062 -0.1596
13360TIP3    H161495   1.479   3.665  16.537  0.2760 -0.7688  0.3579
13360TIP3    H261496   1.448   3.788  16.619 -1.3916  0.0292 -1.3742
13361TIP3   OH261497   6.291   2.237  14.732  0.3828  0.0270 -0.2428
13361TIP3    H161498   6.271   2.252  14.825  0.8636 -1.9542  0.2444
13361TIP3    H261499   6.366   2.292  14.714 -0.5348  1.4595  0.1474
13362TIP3   OH261500   4.960   4.313   4.236 -0.3942  0.0268 -0.4124
13362TIP3    H161501   4.962   4.257   4.314 -1.3464  1.4213  0.6664
13362TIP3    H261502   4.976   4.253   4.163 -0.4180 -1.4807  0.7705
13363TIP3   OH261503   3.795   0.579  15.386  0.2486 -0.3783  0.0712
13363TIP3    H161504   3.868   0.634  15.418 -0.8467  0.8553  0.5578
13363TIP3    H261505   3.743   0.638  15.331 -0.3657 -1.2559 -0.3068
13364TIP3   OH261506   2.953   1.454   4.304  0.3466  0.6302  0.6479
13364TIP3    H161507   2.937   1.362   4.285  1.6830  0.3463  0.8350
13364TIP3    H261508   2.959   1.496   4.218 -0.1902  0.5349  0.5635
13365TIP3   OH261509   3.412   0.925   3.392  0.6438 -0.0597  0.2741
13365TIP3    H161510   3.361   0.845   3.379  1.1011 -0.2099 -0.6710
13365TIP3    H261511   3.455   0.912   3.476 -0.7202 -0.0088  1.0034
13366TIP3   OH261512   4.927   1.502   5.069  0.3379 -0.3734  0.4223
13366TIP3    H161513   4.890   1.417   5.095  0.8203 -1.4557 -2.1086
13366TIP3    H261514   5.019   1.496   5.096  0.2825 -0.4882  0.5918
13367TIP3   OH261515   4.537   4.002   3.603 -0.3970  0.6911  0.0863
13367TIP3    H161516   4.561   3.951   3.680  0.6099 -0.4342 -0.9500
13367TIP3    H261517   4.442   3.991   3.596 -0.4044  0.2814  0.7810
13368TIP3   OH261518   2.295   2.611  15.215 -0.2379 -0.1188 -0.3901
13368TIP3    H161519   2.288   2.564  15.132  0.6965  0.6509 -0.9220
13368TIP3    H261520   2.226   2.574  15.269 -1.1279 -0.3613 -1.6457
13369TIP3   OH261521   4.484   2.714  10.127  0.1122 -0.2546  0.1981
13369TIP3    H161522   4.579   2.711  10.114  0.0752 -1.4443  0.0425
13369TIP3    H261523   4.471   2.779  10.195  0.8901  1.1792 -0.9610
13370TIP3   OH261524   5.970   4.294   3.139 -0.5040 -0.1772 -0.8033
13370TIP3    H161525   5.999   4.383   3.161 -2.0575 -0.2212  1.7426
13370TIP3    H261526   5.899   4.308   3.076 -0.6415  0.3848 -0.5362
13371TIP3   OH261527   6.043   5.731   2.924  0.1670  0.1304 -0.5866
13371TIP3    H161528   6.083   5.778   2.998  1.5869 -0.6266 -0.8300
13371TIP3    H261529   6.017   5.647   2.962  0.2236  0.0234 -0.7888
13372TIP3   OH261530   2.431   4.485  11.527 -0.4463  0.0540  0.0582
13372TIP3    H161531   2.451   4.521  11.440  0.1671  0.7776  0.4906
13372TIP3    H261532   2.337   4.500  11.537 -0.1963  1.6592  0.2587
13373TIP3   OH261533   2.571   5.454   2.076  0.4596  0.3872 -0.4264
13373TIP3    H161534   2.581   5.360   2.068 -0.2179  0.2791 -0.0458
13373TIP3    H261535   2.562   5.485   1.985  0.0081  0.0041 -0.5159
13374TIP3   OH261536   0.606   1.681  11.379  0.5435 -0.2769 -0.2408
13374TIP3    H161537   0.691   1.680  11.334  1.1520  1.2297  0.7965
13374TIP3    H261538   0.594   1.772  11.406 -0.4218 -0.8676  1.4667
13375TIP3   OH261539   2.608   2.676   4.099 -0.2117  0.4232 -0.2462
13375TIP3    H161540   2.675   2.657   4.033 -0.7542 -1.1389 -0.3853
13375TIP3    H261541   2.549   2.601   4.096  1.5531 -1.5218  4.2991
13376TIP3   OH261542   2.525   4.153   5.677 -0.6532 -0.2181 -0.2613
13376TIP3    H161543   2.501   4.203   5.755 -2.1119  1.6251 -1.7953
13376TIP3    H261544   2.442   4.130   5.637 -0.0127 -3.3382 -0.0607
13377TIP3   OH261545   6.477   4.542   0.049  0.0726  0.2179 -0.1658
13377TIP3    H161546   6.548   4.602   0.030  0.6767 -0.2931  0.4292
13377TIP3    H261547   6.507   4.491   0.124 -0.8505 -0.1224 -0.0027
13378TIP3   OH261548   0.396   1.084   6.648  0.5620  0.1820  0.0026
13378TIP3    H161549   0.430   1.071   6.737 -0.4694 -1.4148  0.1975
13378TIP3    H261550   0.471   1.120   6.600  0.9592  1.6995  1.6354
13379TIP3   OH261551   5.271   3.498   5.823  0.4376  0.1979 -0.0319
13379TIP3    H161552   5.178   3.520   5.831  0.5763  0.4742  1.0130
13379TIP3    H261553   5.308   3.570   5.772 -0.0689 -0.3682 -1.2369
13380TIP3   OH261554   6.759   1.354   2.465  0.7609 -0.1566 -0.5275
13380TIP3    H161555   6.664   1.342   2.475  0.5713  1.4508 -0.1748
13380TIP3    H261556   6.774   1.348   2.371  0.1298  0.6695 -0.6940
13381TIP3   OH261557   5.331   3.622  15.526  0.1478 -0.4661 -0.1622
13381TIP3    H161558   5.275   3.700  15.535 -0.5963 -0.8740 -1.1160
13381TIP3    H261559   5.413   3.647  15.569  0.5033  1.4308 -1.7788
13382TIP3   OH261560   1.495   2.129   0.214 -0.1870  0.3608 -0.0519
13382TIP3    H161561   1.526   2.215   0.188 -1.5495  0.4809 -1.4065
13382TIP3    H261562   1.532   2.069   0.149 -0.9453  0.2233 -0.3696
13383TIP3   OH261563   1.006   5.362   3.016  0.4840  0.5983 -0.2811
13383TIP3    H161564   1.049   5.344   3.099 -2.2684  1.6879  1.5275
13383TIP3    H261565   1.010   5.280   2.967 -0.2084 -0.9492  2.1190
13384TIP3   OH261566   6.011   4.017  13.742 -0.6900  0.1496  0.0024
13384TIP3    H161567   6.092   4.067  13.748 -2.2922  2.8602  1.2896
13384TIP3    H261568   6.005   3.970  13.825 -0.6723  0.3898  0.1409
13385TIP3   OH261569   1.646   6.349   1.652 -0.1662 -0.0889  0.6076
13385TIP3    H161570   1.566   6.364   1.702 -0.1370  0.8775  0.3896
13385TIP3    H261571   1.712   6.404   1.694  0.4171 -0.9486  0.8424
13386TIP3   OH261572   4.270   4.195   2.256 -0.2464 -0.3318 -0.3287
13386TIP3    H161573   4.253   4.189   2.350  1.8504 -0.2788  0.1050
13386TIP3    H261574   4.267   4.104   2.225 -1.1085 -0.3324 -0.2499
13387TIP3   OH261575   1.211   1.456   2.211  0.4946 -0.5361  0.5118
13387TIP3    H161576   1.154   1.389   2.248  1.1920 -1.5058 -0.1056
13387TIP3    H261577   1.300   1.423   2.226  0.8250 -0.3978 -0.9604
13388TIP3   OH261578   3.013   3.212   5.435  0.3799  0.0233  0.1779
13388TIP3    H161579   3.089   3.269   5.420 -0.4565  0.9592 -0.7129
13388TIP3    H261580   3.031   3.133   5.384  0.0675  0.9134 -1.3895
13389TIP3   OH261581   0.929   2.486  13.608 -0.0833  0.7084 -0.3383
13389TIP3    H161582   0.929   2.396  13.641  0.4993  0.1812 -1.7304
13389TIP3    H261583   0.875   2.482  13.529 -0.7676  1.7823  0.0528
13390TIP3   OH261584   6.560   5.544  11.670  0.5762 -0.0312  0.2607
13390TIP3    H161585   6.654   5.528  11.669  0.5332 -0.7350  2.1939
13390TIP3    H261586   6.533   5.521  11.759 -1.0845  2.1687  0.4220
13391TIP3   OH261587   5.393   6.690  11.650 -0.5059 -0.1606  0.4773
13391TIP3    H161588   5.432   6.771  11.619 -0.1737 -0.9778 -1.4039
13391TIP3    H261589   5.310   6.717  11.690 -0.7954  1.0567 -0.8424
13392TIP3   OH261590   3.348   5.214  14.340  0.1726  0.5934 -0.0664
13392TIP3    H161591   3.441   5.190  14.338  0.1553  0.5421 -0.2156
13392TIP3    H261592   3.334   5.266  14.261  0.2600  1.2782  0.3577
13393TIP3   OH261593   1.379   6.270   2.577 -0.6733  0.4133  0.1481
13393TIP3    H161594   1.367   6.175   2.582 -2.7836  0.6429  0.4053
13393TIP3    H261595   1.353   6.293   2.488  1.7246  0.5604 -0.5613
13394TIP3   OH261596   3.176   0.871   3.829  0.6970  0.1162  0.0772
13394TIP3    H161597   3.141   0.785   3.805  0.6653 -0.5829  2.4588
13394TIP3    H261598   3.100   0.920   3.859  0.4951  1.4865 -2.3471
13395TIP3   OH261599   3.654   6.573  14.654  0.4341 -0.2043 -0.0854
13395TIP3    H161600   3.560   6.564  14.662  0.3570  0.0018 -0.7063
13395TIP3    H261601   3.690   6.501  14.705 -0.0674 -0.5456 -0.2080
13396TIP3   OH261602   5.276   2.673   4.047 -0.0421  0.1021 -0.2799
13396TIP3    H161603   5.259   2.581   4.025  0.3496  0.5381 -2.6826
13396TIP3    H261604   5.314   2.710   3.968 -0.3084  2.3988  0.5904
13397TIP3   OH261605   1.493   4.840   4.806  0.6807 -0.3239 -0.1246
13397TIP3    H161606   1.556   4.911   4.819  2.0651 -1.5742  0.1762
13397TIP3    H261607   1.429   4.851   4.876  2.1245 -0.6770  1.2891
13398TIP3   OH261608   0.912   3.061   1.342  0.4062  0.6420 -0.3436
13398TIP3    H161609   0.982   3.109   1.387  1.2999  0.1711 -1.1948
13398TIP3    H261610   0.833   3.082   1.391  1.3153  0.2685  1.3695
13399TIP3   OH261611   4.022   5.176  13.734 -0.0348 -0.0647  0.0666
13399TIP3    H161612   4.076   5.112  13.689 -0.7906  0.2323 -1.3103
13399TIP3    H261613   3.983   5.228  13.664  0.4765  1.8447  1.1397
13400TIP3   OH261614   6.690   1.683   3.679 -0.8096 -0.0319 -0.2710
13400TIP3    H161615   6.652   1.638   3.754  1.3154  0.3505  1.1246
13400TIP3    H261616   6.774   1.716   3.711 -0.3060  1.0706 -2.5306
13401TIP3   OH261617   1.869   4.567  12.668  0.4884 -0.1514 -0.1614
13401TIP3    H161618   1.846   4.493  12.724  0.8619 -1.2478 -1.4251
13401TIP3    H261619   1.951   4.601  12.706 -0.3464  0.4828  1.1937
13402TIP3   OH261620   5.792   0.982  13.171  0.4249 -0.4003 -0.2882
13402TIP3    H161621   5.831   1.024  13.247 -1.3798 -0.1594  0.5435
13402TIP3    H261622   5.796   1.049  13.102 -1.8983  1.0537  0.8629
13403TIP3   OH261623   6.490   0.518   4.308 -0.2987 -0.2699  0.2961
13403TIP3    H161624   6.443   0.512   4.224 -1.1809 -0.7348  0.8070
13403TIP3    H261625   6.574   0.557   4.285 -1.0749  0.9577 -0.5910
13404TIP3   OH261626   5.159   0.281   3.853  0.3023  0.1286  0.5433
13404TIP3    H161627   5.197   0.323   3.775  2.5371  3.7738  3.2745
13404TIP3    H261628   5.069   0.311   3.854  0.2847  0.1753 -0.5041
13405TIP3   OH261629   0.794   6.158   4.462 -0.5380  0.5928 -0.5873
13405TIP3    H161630   0.773   6.202   4.380 -1.1637  0.7921 -0.3287
13405TIP3    H261631   0.788   6.064   4.441 -0.5234  0.6428 -0.8145
13406TIP3   OH261632   1.299   2.689   5.651 -0.2361  0.4193 -0.3493
13406TIP3    H161633   1.338   2.668   5.736 -0.4337 -0.7435 -0.5321
13406TIP3    H261634   1.205   2.673   5.662 -0.3021  0.5463 -0.6977
13407TIP3   OH261635   1.086   6.129   1.696  0.0287 -0.3319 -0.6496
13407TIP3    H161636   1.035   6.203   1.727 -1.8008 -1.7880 -0.0113
13407TIP3    H261637   1.061   6.057   1.753  1.6664 -1.4877 -1.3143
13408TIP3   OH261638   6.512   1.823   5.846  0.5442  0.5326  0.3914
13408TIP3    H161639   6.428   1.819   5.801  0.5748  0.7129  0.3141
13408TIP3    H261640   6.490   1.814   5.939  0.3300  1.6275  0.4619
13409TIP3   OH261641   0.318   1.275   0.145 -0.4876  0.1060  0.0708
13409TIP3    H161642   0.348   1.186   0.161 -1.7842 -0.1775  1.0689
13409TIP3    H261643   0.385   1.313   0.088  1.6488 -0.5517  2.0142
13410TIP3   OH261644   6.231   6.125   5.510 -0.2140 -0.0070 -0.2068
13410TIP3    H161645   6.196   6.045   5.551 -0.2479  0.2612  0.2920
13410TIP3    H261646   6.165   6.192   5.529  1.2249  0.8653  2.0155
13411TIP3   OH261647   5.559   3.095  16.530 -0.2787  0.0009 -0.0053
13411TIP3    H161648   5.603   3.016  16.500  0.3079  0.0640  0.6581
13411TIP3    H261649   5.628   3.147  16.571 -0.9544  0.1042  1.0522
13412TIP3   OH261650   0.362   5.979  11.435  0.2244 -0.5226 -0.5628
13412TIP3    H161651   0.366   6.074  11.429  0.3337 -0.4344  0.7899
13412TIP3    H261652   0.433   5.949  11.378 -0.9156  0.1176 -2.4144
13413TIP3   OH261653   0.049   1.760   1.339  0.1282 -0.0723 -0.2535
13413TIP3    H161654   0.064   1.743   1.432 -0.9040 -0.2013 -0.0985
13413TIP3    H261655   0.051   1.856   1.332  0.0534 -0.0562 -0.0685
13414TIP3   OH261656   4.523   1.468  11.205 -0.0189  0.3033 -0.6221
13414TIP3    H161657   4.477   1.550  11.219  3.1227  2.1056  0.1778
13414TIP3    H261658   4.512   1.419  11.287 -0.0107  0.9510 -0.2347
13415TIP3   OH261659   1.267   2.345  14.411  0.9426 -0.4299 -0.8116
13415TIP3    H161660   1.277   2.418  14.473 -0.4107 -0.4094 -0.5953
13415TIP3    H261661   1.342   2.288  14.430  0.3371 -0.6525  1.1829
13416TIP3   OH261662   2.721   4.936  17.117 -0.6335 -0.1406 -0.8866
13416TIP3    H161663   2.678   4.897  17.193  0.4906 -0.6726 -0.4990
13416TIP3    H261664   2.758   5.018  17.149  0.6464 -0.8075 -0.5905
13417TIP3   OH261665   0.563   3.955   2.887 -0.2831 -0.1170 -0.7437
13417TIP3    H161666   0.580   3.935   2.795  1.1299  1.0671 -0.7593
13417TIP3    H261667   0.600   4.042   2.901 -2.0193  0.4850  0.5206
13418TIP3   OH261668   5.024   5.810   3.880  0.3821  0.5513 -0.5161
13418TIP3    H161669   5.040   5.790   3.788  0.1948 -1.7860 -0.1017
13418TIP3    H261670   4.933   5.841   3.882 -0.2721 -1.2284 -0.9180
13419TIP3   OH261671   3.906   0.501  16.635 -0.1312  0.2934 -0.3554
13419TIP3    H161672   3.890   0.443  16.710 -0.7900  2.0745  0.9645
13419TIP3    H261673   3.828   0.494  16.581 -0.7070  0.7638  0.3938
13420TIP3   OH261674   2.585   2.193  15.265 -0.4302 -0.1152 -0.2399
13420TIP3    H161675   2.631   2.122  15.310 -0.8618  0.1190  0.6152
13420TIP3    H261676   2.599   2.176  15.172  1.5461  0.0781 -0.0171
13421TIP3   OH261677   1.746   0.945   5.795  0.0143 -0.4985  0.3677
13421TIP3    H161678   1.670   0.890   5.813 -1.7134  1.7838  0.4898
13421TIP3    H261679   1.760   0.995   5.876  0.0222  0.9066 -0.4612
13422TIP3   OH261680   1.480   1.122  13.718 -0.2658  0.4354  0.4135
13422TIP3    H161681   1.459   1.029  13.708  2.2799 -0.2458  0.9202
13422TIP3    H261682   1.508   1.131  13.808  1.5582  1.2311 -0.1979
13423TIP3   OH261683   4.674   5.959  12.752 -0.6097 -0.0659 -0.1602
13423TIP3    H161684   4.669   5.871  12.790  0.5234 -0.0599  0.0241
13423TIP3    H261685   4.722   5.948  12.670  0.8566  0.5784  0.5741
13424TIP3   OH261686   6.372   4.390   6.001  0.2761  0.6246  0.0628
13424TIP3    H161687   6.412   4.324   5.943  0.5740  1.6079 -0.8779
13424TIP3    H261688   6.444   4.422   6.055  0.0798  0.0077  0.7030
13425TIP3   OH261689   3.172   5.641  14.318  0.2127  0.2075  0.4188
13425TIP3    H161690   3.142   5.551  14.334  0.7472  0.3429  2.4422
13425TIP3    H261691   3.093   5.693  14.316 -0.0603 -0.2146 -0.1423
13426TIP3   OH261692   2.103   4.825  11.121  0.2742 -0.2055 -0.4914
13426TIP3    H161693   2.029   4.855  11.068 -0.4644 -0.5596  0.3255
13426TIP3    H261694   2.077   4.843  11.211  1.6150  0.6061 -0.2305
13427TIP3   OH261695   3.975   2.473  16.812  0.5542 -0.4922 -0.1824
13427TIP3    H161696   3.970   2.562  16.849  0.5340 -1.0054  1.0990
13427TIP3    H261697   4.046   2.431  16.862  1.6188 -0.7342 -1.8202
13428TIP3   OH261698   0.150   2.690   2.098  0.8727 -0.4667 -0.6088
13428TIP3    H161699   0.235   2.665   2.136  0.6716 -2.5622 -1.4231
13428TIP3    H261700   0.085   2.644   2.153  0.2378  1.0273 -0.0627
13429TIP3   OH261701   6.617   0.986  15.217 -0.9615 -0.3821  0.2738
13429TIP3    H161702   6.600   0.906  15.168  0.5220 -1.4727  1.4518
13429TIP3    H261703   6.704   0.974  15.254 -0.6427  1.8354  0.4087
13430TIP3   OH261704   0.954   0.951   4.953  0.0750  0.1805  0.3461
13430TIP3    H161705   0.919   0.887   5.015 -0.4446  0.3050  0.1827
13430TIP3    H261706   0.976   0.900   4.875 -1.2446  0.3369 -0.1447
13431TIP3   OH261707   2.577   5.181  15.564  0.0287  0.0698  0.8478
13431TIP3    H161708   2.670   5.159  15.561 -0.3283 -1.4755  0.5326
13431TIP3    H261709   2.552   5.196  15.473  0.1691  1.4910  1.0164
13432TIP3   OH261710   3.707   4.109   2.321  0.1386 -0.1586  0.3437
13432TIP3    H161711   3.783   4.163   2.341 -0.2367  0.7841 -0.6790
13432TIP3    H261712   3.635   4.172   2.313 -0.0221 -0.5680 -2.3948
13433TIP3   OH261713   0.042   5.096   3.784  0.0447  0.4473 -0.3949
13433TIP3    H161714  -0.054   5.093   3.784  0.0224 -2.6597  0.6461
13433TIP3    H261715   0.065   5.113   3.875  0.4053 -1.4960 -0.0833
13434TIP3   OH261716   3.566   6.067  13.595 -0.0199  0.0781  0.0588
13434TIP3    H161717   3.593   6.089  13.506  1.2894 -0.8634  0.1939
13434TIP3    H261718   3.648   6.052  13.642 -0.7113 -0.1876  1.2350
13435TIP3   OH261719   6.676   0.304  16.648 -0.9645 -0.2288 -0.3137
13435TIP3    H161720   6.667   0.399  16.653  0.0553 -0.1673  0.9663
13435TIP3    H261721   6.770   0.290  16.638 -0.9585 -1.1200  0.8000
13436TIP3   OH261722   0.517   5.136   1.845 -0.1929 -0.0616  0.6110
13436TIP3    H161723   0.581   5.155   1.776 -0.2306  0.7172  0.7871
13436TIP3    H261724   0.467   5.061   1.811  0.0862  0.0272 -0.0085
13437TIP3   OH261725   3.889   4.241   0.138  0.2926  0.2683 -0.1743
13437TIP3    H161726   3.867   4.221   0.047 -0.7593  0.4051  0.0405
13437TIP3    H261727   3.906   4.155   0.178 -2.3008 -0.1281  0.2520
13438TIP3   OH261728   0.868   4.840   1.894  0.0156  0.0117  0.1128
13438TIP3    H161729   0.850   4.823   1.987 -2.8525  0.4541 -0.2664
13438TIP3    H261730   0.847   4.758   1.850  0.5124  0.0683 -0.2311
13439TIP3   OH261731   6.383   5.529   3.999  0.2619 -0.0372 -0.5660
13439TIP3    H161732   6.402   5.489   4.084 -0.2043 -0.8234 -0.8175
13439TIP3    H261733   6.448   5.491   3.939 -1.3582 -2.0156 -1.2274
13440TIP3   OH261734   0.406   0.260  15.041  0.1073 -0.1530  0.0043
13440TIP3    H161735   0.413   0.165  15.027 -3.0905 -0.7768  1.6428
13440TIP3    H261736   0.356   0.268  15.122 -1.9065  2.9269 -1.3821
13441TIP3   OH261737   0.436   5.610  12.750 -0.0848 -0.0846 -0.2855
13441TIP3    H161738   0.446   5.518  12.729  1.9093 -0.5285  2.1629
13441TIP3    H261739   0.515   5.652  12.716  0.1589  0.2740  0.6830
13442TIP3   OH261740   5.369   3.607   2.819 -0.4087  0.2346  0.9735
13442TIP3    H161741   5.331   3.576   2.737  0.0823  0.2236  0.7479
13442TIP3    H261742   5.458   3.634   2.796  0.5991 -2.0196  1.9431
13443TIP3   OH261743   4.609   3.167   5.584 -0.1976 -0.0907 -0.2999
13443TIP3    H161744   4.521   3.151   5.550  0.0756  0.7407 -1.4853
13443TIP3    H261745   4.633   3.086   5.629 -1.8909 -0.0201  0.8054
13444TIP3   OH261746   5.510   6.274  14.156 -0.1223  0.0636 -0.0723
13444TIP3    H161747   5.511   6.369  14.148  0.9825  0.1630  1.0021
13444TIP3    H261748   5.421   6.249  14.132  0.3482  1.0541 -3.3431
13445TIP3   OH261749   0.997   1.465   4.488  0.2551  0.3809 -0.4452
13445TIP3    H161750   1.002   1.373   4.515 -1.1045 -0.2984 -2.3118
13445TIP3    H261751   1.089   1.491   4.475  0.7643 -0.1933  1.5501
13446TIP3   OH261752   1.566   0.064   4.133 -0.2031  0.2482  0.4452
13446TIP3    H161753   1.580  -0.003   4.201  1.6444  1.2286  1.1040
13446TIP3    H261754   1.625   0.039   4.062  0.2167  0.9448  0.5387
13447TIP3   OH261755   0.135   3.792   5.178  0.1762  0.2456 -0.6867
13447TIP3    H161756   0.206   3.740   5.141 -0.0460  1.7282 -3.4357
13447TIP3    H261757   0.170   3.881   5.182 -0.1951  0.3654  1.8702
13448TIP3   OH261758   2.299   3.816   4.294 -0.9296 -0.3153 -0.1588
13448TIP3    H161759   2.306   3.861   4.378  0.5706 -0.7683 -0.0207
13448TIP3    H261760   2.360   3.743   4.301  0.2763  0.4514 -2.1521
13449TIP3   OH261761   1.087   0.633  13.644 -0.1189  0.0950  0.1497
13449TIP3    H161762   1.133   0.704  13.599  1.2730 -0.5758  0.4287
13449TIP3    H261763   1.112   0.642  13.736 -0.2202 -0.5304  0.2447
13450TIP3   OH261764   6.476   6.696   3.613 -0.1764  0.0182  0.4989
13450TIP3    H161765   6.510   6.665   3.529 -0.1750 -1.2228  0.9379
13450TIP3    H261766   6.450   6.617   3.659 -0.2984  0.6924  1.6273
13451TIP3   OH261767   5.029   4.333  11.771 -0.0031  0.3258  0.1805
13451TIP3    H161768   4.947   4.297  11.737 -0.2058 -1.0457  2.0225
13451TIP3    H261769   5.004   4.417  11.809 -0.4804  0.0875  0.3967
13452TIP3   OH261770   4.956   3.003   3.527 -0.2058 -0.3172  0.7064
13452TIP3    H161771   4.938   2.909   3.530  0.9952 -0.5312  1.7968
13452TIP3    H261772   4.888   3.038   3.470 -1.6411 -1.6203  1.5372
13453TIP3   OH261773   4.130   3.557   2.770  0.3850 -0.0398 -0.1455
13453TIP3    H161774   4.057   3.496   2.776  0.7450 -0.5428 -0.7938
13453TIP3    H261775   4.203   3.504   2.740  1.1368  0.3617  0.8901
13454TIP3   OH261776   4.986   3.671  13.418  0.6827  0.0430  0.0184
13454TIP3    H161777   4.929   3.721  13.476  0.4044 -0.3282  0.0686
13454TIP3    H261778   4.948   3.583  13.416  1.8337 -0.4960  0.8774
13455TIP3   OH261779   1.000   6.185  13.159 -0.0325  0.4426  0.4347
13455TIP3    H161780   0.984   6.136  13.240  0.9696  0.2121  0.5097
13455TIP3    H261781   1.089   6.219  13.169  0.9750 -1.3718 -1.4347
13456TIP3   OH261782   1.057   2.546   5.668  0.3979 -0.1498 -0.0312
13456TIP3    H161783   1.013   2.557   5.752  1.8861  0.2460  0.7297
13456TIP3    H261784   1.072   2.452   5.661  1.7666 -0.0433  0.9825
13457TIP3   OH261785   6.519   6.782  13.721  0.4730  0.0074 -0.5102
13457TIP3    H161786   6.548   6.869  13.747 -0.2526  0.4562 -1.1591
13457TIP3    H261787   6.509   6.734  13.803  1.4988  0.3329 -0.1876
13458TIP3   OH261788   3.105   1.875   0.861  0.3749 -0.0514 -0.6474
13458TIP3    H161789   3.021   1.883   0.906  0.1594  1.0022 -1.2009
13458TIP3    H261790   3.128   1.965   0.837  1.4960 -0.3650 -0.8136
13459TIP3   OH261791   0.171   0.508  14.512 -0.0017 -0.5361  0.1672
13459TIP3    H161792   0.167   0.511  14.608 -2.0590  1.4305  0.1130
13459TIP3    H261793   0.090   0.465  14.486  0.6650 -1.2972 -0.7103
13460TIP3   OH261794   4.560   0.520   1.060  0.1995 -0.2302 -0.2756
13460TIP3    H161795   4.544   0.601   1.013 -0.9523 -0.2257  0.0864
13460TIP3    H261796   4.640   0.485   1.022 -1.2386 -0.7985 -3.0411
13461TIP3   OH261797   3.949   1.034  16.047  0.6354  0.1823  0.1326
13461TIP3    H161798   3.993   0.985  15.977  0.7824  1.8848 -1.0484
13461TIP3    H261799   3.910   1.109  16.001 -1.0068  0.2809  1.5981
13462TIP3   OH261800   3.922   5.096  12.756 -0.8358  0.0797 -0.2750
13462TIP3    H161801   3.865   5.023  12.782  0.3091 -0.7865 -0.1303
13462TIP3    H261802   3.998   5.089  12.813  0.2201  0.1491 -1.6105
13463TIP3   OH261803   2.163   0.993   4.718 -0.7994  0.0820 -0.2182
13463TIP3    H161804   2.091   1.050   4.690 -0.2441  0.6132 -0.5895
13463TIP3    H261805   2.147   0.911   4.671 -0.8700  0.3778 -0.7261
13464TIP3   OH261806   0.142   0.773  12.267  0.5686 -0.5820  0.0624
13464TIP3    H161807   0.172   0.790  12.357  0.9677 -0.3989 -0.1065
13464TIP3    H261808   0.209   0.811  12.211  0.5788 -1.1507 -0.3176
13465TIP3   OH261809   2.712   4.819   0.790  0.1323  0.3911 -0.4475
13465TIP3    H161810   2.742   4.728   0.788 -1.2889 -0.0881 -2.0360
13465TIP3    H261811   2.786   4.870   0.758  0.5910 -0.3282 -0.5423
13466TIP3   OH261812   5.164   1.563  15.476  0.5504 -0.2386  0.6123
13466TIP3    H161813   5.167   1.645  15.427  1.9396 -0.4953  0.2346
13466TIP3    H261814   5.222   1.578  15.550  1.9414 -1.3384 -0.2189
13467TIP3   OH261815   1.841   5.486   3.239  0.3917  0.6974 -0.2606
13467TIP3    H161816   1.881   5.559   3.192  1.5213  0.7140  0.6813
13467TIP3    H261817   1.874   5.495   3.329  0.9457 -1.2514 -0.2323
13468TIP3   OH261818   4.203   1.627  14.894 -0.3632  0.1558  0.4438
13468TIP3    H161819   4.260   1.688  14.849  0.1628 -0.1457  0.6970
13468TIP3    H261820   4.261   1.579  14.953 -0.8314 -0.3374  0.5056
13469TIP3   OH261821   6.051   0.282   3.425 -0.1929  0.3966 -0.4510
13469TIP3    H161822   5.995   0.210   3.452 -1.4164  0.7793 -1.8495
13469TIP3    H261823   6.133   0.240   3.397 -0.5705 -0.3653 -0.4315
13470TIP3   OH261824   4.894   1.566  13.214  0.0080  0.4139  0.2367
13470TIP3    H161825   4.897   1.610  13.128 -0.3634 -1.4458 -0.7805
13470TIP3    H261826   4.970   1.508  13.214 -1.6824 -1.9446 -0.2247
13471TIP3   OH261827   0.509   3.315   2.055  0.3116 -0.0138  0.3247
13471TIP3    H161828   0.474   3.402   2.073 -0.7094 -0.5415  1.0257
13471TIP3    H261829   0.499   3.305   1.960 -0.6769  0.1918  0.3923
13472TIP3   OH261830   1.666   5.151  13.777  0.7398  0.1357 -0.5667
13472TIP3    H161831   1.603   5.080  13.784  1.6600 -0.5755  0.9594
13472TIP3    H261832   1.646   5.208  13.851  0.2981  1.2645 -1.5190
13473TIP3   OH261833   4.865   0.981  12.558 -0.0914  0.4700  0.7348
13473TIP3    H161834   4.934   0.916  12.543  0.5592  0.5762  2.9960
13473TIP3    H261835   4.907   1.065  12.544  0.1236  0.5197  1.6546
13474TIP3   OH261836   6.487   3.660  12.494 -0.3465  0.0963 -0.0917
13474TIP3    H161837   6.565   3.608  12.509  0.4860  1.4533  0.5572
13474TIP3    H261838   6.475   3.710  12.576 -0.7396  1.3453 -0.8742
13475TIP3   OH261839   3.547   5.471   0.017  0.0797 -0.1301 -0.5861
13475TIP3    H161840   3.491   5.522   0.076  1.3141  2.2416 -1.3174
13475TIP3    H261841   3.489   5.403  -0.018 -1.9995  1.4027 -0.3442
13476TIP3   OH261842   6.354   2.160  16.701  0.6901  0.0047 -0.4776
13476TIP3    H161843   6.349   2.069  16.733  0.2174  1.0184  2.6970
13476TIP3    H261844   6.290   2.164  16.631  0.2913 -1.9875 -0.3144
13477TIP3   OH261845   1.123   5.119  15.400 -0.0872  0.1304 -0.4930
13477TIP3    H161846   1.217   5.098  15.404 -0.3684 -1.0016  1.2825
13477TIP3    H261847   1.102   5.148  15.488 -1.2928  1.0143 -1.0534
13478TIP3   OH261848   4.973   2.585   5.896  0.5307  0.0100 -0.0687
13478TIP3    H161849   4.991   2.497   5.930 -0.9460  0.1129  1.0908
13478TIP3    H261850   5.021   2.644   5.955 -1.4903  0.1476  1.5613
13479TIP3   OH261851   6.255   5.637   2.521 -0.2575  0.1649 -1.0104
13479TIP3    H161852   6.160   5.644   2.536 -0.5989 -2.2703 -1.4513
13479TIP3    H261853   6.270   5.683   2.439 -0.9849  0.9197 -0.7328
13480TIP3   OH261854   0.278   5.348  11.376 -0.1898 -0.2243 -0.1080
13480TIP3    H161855   0.232   5.297  11.309  0.8716 -0.9970 -0.2561
13480TIP3    H261856   0.336   5.286  11.419 -0.4554  0.3901  1.1805
13481TIP3   OH261857   2.205   4.345   4.013  0.1325  0.3705 -0.0799
13481TIP3    H161858   2.267   4.406   4.054  0.5745 -1.3350  2.0144
13481TIP3    H261859   2.246   4.322   3.930  1.3728  0.7329  0.4018
13482TIP3   OH261860   0.751   0.294  14.211 -0.1506  0.7799 -0.1187
13482TIP3    H161861   0.675   0.256  14.167  0.2518 -0.3344  0.1097
13482TIP3    H261862   0.742   0.388  14.197 -0.5765  0.5437 -1.6967
13483TIP3   OH261863   0.342   6.768   5.020  0.0179 -0.6114 -0.4034
13483TIP3    H161864   0.314   6.799   4.934  1.1289  0.0631 -0.5451
13483TIP3    H261865   0.378   6.681   5.003  1.2455 -0.0515 -0.8459
13484TIP3   OH261866   0.036   0.859  11.925 -0.3834 -0.5243  0.3475
13484TIP3    H161867  -0.038   0.823  11.975 -0.7028 -1.0327 -0.4867
13484TIP3    H261868   0.056   0.793  11.860 -0.0768  0.2095 -0.3190
13485TIP3   OH261869   6.428   2.750  11.070 -0.3234 -0.0778  0.3858
13485TIP3    H161870   6.487   2.777  11.000  0.0452 -1.0537  0.2994
13485TIP3    H261871   6.375   2.827  11.088  0.8621  0.7679  0.3574
13486TIP3   OH261872   5.501   1.490  14.010  0.1519 -0.1455  0.4854
13486TIP3    H161873   5.471   1.498  13.919  1.6107 -0.7622 -0.0945
13486TIP3    H261874   5.488   1.576  14.047 -0.0060  0.2618 -0.4782
13487TIP3   OH261875   3.984   1.865   1.352  0.0160 -0.0279 -0.4450
13487TIP3    H161876   3.912   1.880   1.413 -1.8394  1.2677 -2.7817
13487TIP3    H261877   4.042   1.941   1.364  0.7400 -0.7511  0.9770
13488TIP3   OH261878   4.633   3.856   4.315 -0.0231  0.4267  0.1863
13488TIP3    H161879   4.684   3.901   4.248 -0.8985 -0.7614 -1.3378
13488TIP3    H261880   4.654   3.903   4.397  1.7764  1.3235 -0.7378
13489TIP3   OH261881   4.282   3.692  12.271  0.2863  0.2254  0.4642
13489TIP3    H161882   4.372   3.702  12.301  0.6601  0.1655 -0.6122
13489TIP3    H261883   4.270   3.598  12.260  0.8432  0.3392 -1.5483
13490TIP3   OH261884   4.265   3.454   1.235  0.4407  0.3078  0.0383
13490TIP3    H161885   4.336   3.400   1.201  0.5996  0.5309  0.0152
13490TIP3    H261886   4.188   3.426   1.187  0.5641  0.2521 -0.1262
13491TIP3   OH261887   3.412   3.442  14.759 -0.1279 -0.4191  0.0338
13491TIP3    H161888   3.351   3.508  14.727  1.9144  1.4204 -0.3164
13491TIP3    H261889   3.397   3.366  14.702 -1.6063  0.2107 -0.4559
13492TIP3   OH261890   3.157   1.248  12.931  0.2196  0.0438 -0.0386
13492TIP3    H161891   3.211   1.327  12.929 -1.6565  1.4163 -2.4468
13492TIP3    H261892   3.085   1.267  12.870 -0.7047 -3.2709 -0.1647
13493TIP3   OH261893   1.705   3.831  13.866  0.7379  0.2647 -0.7263
13493TIP3    H161894   1.642   3.827  13.794  1.1832 -1.5633 -1.0776
13493TIP3    H261895   1.786   3.795  13.830  0.6840 -1.7227  0.9189
13494TIP3   OH261896   2.068   5.347  16.760  0.2799  0.6139 -0.2798
13494TIP3    H161897   2.110   5.395  16.688  0.4068  0.7212 -0.1369
13494TIP3    H261898   1.985   5.393  16.774  0.3033  0.6595 -0.2882
13495TIP3   OH261899   4.740   6.786  17.028 -0.2501  0.1710  0.4500
13495TIP3    H161900   4.735   6.879  17.007  0.2800  0.3105  0.9083
13495TIP3    H261901   4.823   6.757  16.990 -0.7616 -0.2913 -0.3383
13496TIP3   OH261902   1.566   1.304   1.443  0.1451  0.1697 -1.4074
13496TIP3    H161903   1.471   1.301   1.431  0.1560  1.3104 -2.0514
13496TIP3    H261904   1.582   1.257   1.524 -0.9174 -0.4926 -1.5595
13497TIP3   OH261905   5.416   1.873  11.569  0.3443  0.2475  0.0242
13497TIP3    H161906   5.505   1.857  11.601 -0.1559  1.1823  1.9978
13497TIP3    H261907   5.421   1.854  11.475  1.6558 -3.6742  0.6892
13498TIP3   OH261908   4.452   1.285   6.674 -0.0622 -0.1029 -0.0600
13498TIP3    H161909   4.468   1.231   6.597  0.8382  0.5119 -0.3166
13498TIP3    H261910   4.357   1.299   6.675  0.0418  1.0189 -1.8451
13499TIP3   OH261911   5.713   4.412  13.094  0.2381 -0.2034 -0.3013
13499TIP3    H161912   5.735   4.499  13.128  1.9401 -1.2121  1.3733
13499TIP3    H261913   5.748   4.352  13.159 -0.9193 -2.1647 -1.4164
13500TIP3   OH261914   4.203   2.663  11.916  0.1354 -0.2904  0.1005
13500TIP3    H161915   4.245   2.746  11.895 -1.6135  0.3218 -1.1701
13500TIP3    H261916   4.258   2.625  11.985  2.0497  0.9957 -0.6497
13501TIP3   OH261917   3.256   1.452  15.489 -0.0196  0.4991  0.0249
13501TIP3    H161918   3.170   1.490  15.468  0.5894  2.2642  0.5600
13501TIP3    H261919   3.319   1.516  15.455  1.0422  0.8816  2.5321
13502TIP3   OH261920   5.546   4.009   5.620 -0.8031 -0.6894  0.3605
13502TIP3    H161921   5.471   4.015   5.561 -0.6322  1.7083  0.2965
13502TIP3    H261922   5.507   3.997   5.707 -1.3538  1.1464  0.4081
13503TIP3   OH261923   0.783   6.091  14.663 -0.1480 -0.2307 -0.0068
13503TIP3    H161924   0.872   6.105  14.633 -0.3645  0.9435 -0.1635
13503TIP3    H261925   0.758   6.174  14.704 -1.6057 -0.0764 -1.1085
13504TIP3   OH261926   0.638   4.754  15.286  0.2558 -0.3069  0.2330
13504TIP3    H161927   0.671   4.666  15.304 -0.6480 -0.4945  1.0636
13504TIP3    H261928   0.703   4.812  15.325  0.2539 -0.6412  0.7463
13505TIP3   OH261929   2.620   0.060  14.565 -0.2692  0.2826 -0.1183
13505TIP3    H161930   2.549   0.014  14.610 -0.1190 -0.4633 -0.6235
13505TIP3    H261931   2.590   0.068  14.475  0.9099 -1.4662 -0.7251
13506TIP3   OH261932   4.100   0.749   2.230 -0.0197  0.0504 -0.2243
13506TIP3    H161933   4.158   0.801   2.174 -0.9485  0.4435 -0.8443
13506TIP3    H261934   4.081   0.670   2.180  0.9553 -0.6694  0.4964
13507TIP3   OH261935   1.889   5.443   1.332  0.0759 -0.3833 -0.4286
13507TIP3    H161936   1.942   5.388   1.390 -0.3807  1.2849  1.7110
13507TIP3    H261937   1.803   5.402   1.332  0.2259 -0.7012 -0.3647
13508TIP3   OH261938   6.427   6.564  11.627  0.1814 -0.0246 -0.2120
13508TIP3    H161939   6.412   6.656  11.647 -0.7191  0.1621 -1.6206
13508TIP3    H261940   6.341   6.523  11.635  0.5622 -0.7378  0.3229
13509TIP3   OH261941   0.658   0.861   2.154 -0.1702 -0.0374 -0.5042
13509TIP3    H161942   0.645   0.883   2.062  0.2571 -1.3219 -0.8923
13509TIP3    H261943   0.637   0.768   2.160  0.3515 -0.1056  0.5752
13510TIP3   OH261944   4.458   1.782   1.308  0.1951  0.1045 -0.1482
13510TIP3    H161945   4.506   1.865   1.303  0.0918  0.1158 -1.4275
13510TIP3    H261946   4.403   1.782   1.229  0.1053 -1.1202 -0.1031
13511TIP3   OH261947   4.790   4.932  11.086 -0.0929 -0.0259 -0.4466
13511TIP3    H161948   4.749   4.971  11.163 -2.0289 -1.1929 -0.7955
13511TIP3    H261949   4.812   4.842  11.113  2.2754  0.5280 -0.3074
13512TIP3   OH261950   5.611   2.571  17.132  0.8394 -0.6636 -0.0199
13512TIP3    H161951   5.652   2.620  17.204  1.5093 -0.5197 -0.4903
13512TIP3    H261952   5.670   2.497  17.117  0.4688 -0.9389 -0.1268
13513TIP3   OH261953   2.297   6.684   0.235  0.0096 -0.3119 -0.2077
13513TIP3    H161954   2.345   6.737   0.171 -2.3607  0.2478 -1.6538
13513TIP3    H261955   2.280   6.744   0.307  1.0597 -0.3890  0.1165
13514TIP3   OH261956   1.963   2.554   5.104 -0.3188  0.7091  0.0119
13514TIP3    H161957   2.034   2.494   5.128  0.4449  1.9988  1.1320
13514TIP3    H261958   2.006   2.639   5.099 -1.6642  1.3942 -0.0869
13515TIP3   OH261959   4.597   1.421   6.367 -0.1734 -0.7602 -0.2421
13515TIP3    H161960   4.691   1.430   6.383 -0.1116 -0.8567 -0.5325
13515TIP3    H261961   4.575   1.498   6.314 -0.2298 -0.8091 -0.2895
13516TIP3   OH261962   4.190   4.921   3.795 -0.0611 -0.5081 -0.0534
13516TIP3    H161963   4.122   4.896   3.857 -1.0066 -1.0756 -1.2850
13516TIP3    H261964   4.215   5.010   3.821 -2.4134  0.3656 -0.5281
13517TIP3   OH261965   5.688   0.120  16.871 -0.4542 -0.1053 -0.0187
13517TIP3    H161966   5.647   0.041  16.837 -2.1011  0.8519 -0.3895
13517TIP3    H261967   5.757   0.140  16.809 -0.9764 -0.4637 -0.7300
13518TIP3   OH261968   2.585   1.247  13.108  0.5312  0.0521 -0.1641
13518TIP3    H161969   2.575   1.181  13.176 -0.3159 -1.7984 -1.9942
13518TIP3    H261970   2.502   1.293  13.107  0.9898  0.9537  0.8563
13519TIP3   OH261971   2.386   4.390  11.196 -0.3125  0.2617 -0.6268
13519TIP3    H161972   2.415   4.318  11.252  1.4176  1.0954 -0.3823
13519TIP3    H261973   2.438   4.465  11.225 -1.9216  1.5918 -0.9952
13520TIP3   OH261974   0.068   4.389   1.577  0.3501  0.4633 -0.8668
13520TIP3    H161975   0.114   4.330   1.637 -2.5503  0.3555  1.4497
13520TIP3    H261976   0.082   4.476   1.614 -0.8047  0.4799 -0.4312
13521TIP3   OH261977   0.022   2.886  12.059  0.2463 -0.3193  0.3747
13521TIP3    H161978   0.079   2.946  12.106  0.8996 -0.9358  0.3826
13521TIP3    H261979  -0.021   2.835  12.128 -0.4628  0.2719  0.3762
13522TIP3   OH261980   1.167   6.340  15.950 -0.1889  0.3954  0.1494
13522TIP3    H161981   1.183   6.276  15.881  2.2795  2.5695 -1.4913
13522TIP3    H261982   1.082   6.378  15.928 -0.0011  0.1912 -1.0036
13523TIP3   OH261983   0.394   4.509  10.875  0.8128  0.1421 -0.0333
13523TIP3    H161984   0.467   4.530  10.817  0.5023 -0.3810 -0.6162
13523TIP3    H261985   0.361   4.424  10.845 -0.4114  0.6363 -0.1563
13524TIP3   OH261986   3.613   6.784   0.598  0.3482 -0.3868  0.1197
13524TIP3    H161987   3.674   6.833   0.543  0.2944  0.4216  0.7632
13524TIP3    H261988   3.665   6.713   0.636  0.6873 -0.1909  0.0253
13525TIP3   OH261989   4.302   3.503  13.274  0.0226  0.8744 -0.1161
13525TIP3    H161990   4.288   3.409  13.284  2.6008  0.4300 -0.0125
13525TIP3    H261991   4.296   3.519  13.180  1.1119  0.2961 -0.2949
13526TIP3   OH261992   2.351   0.181  16.142 -0.3952  0.5379 -0.0517
13526TIP3    H161993   2.366   0.125  16.066 -1.8498  0.1284 -0.0632
13526TIP3    H261994   2.271   0.229  16.122  1.0704  3.0685 -0.2688
13527TIP3   OH261995   4.091   4.963   1.865 -0.1648 -0.0144 -0.3825
13527TIP3    H161996   4.170   5.013   1.846  0.5223 -0.8116  0.2906
13527TIP3    H261997   4.120   4.872   1.866 -1.0211 -0.2983  0.1978
13528TIP3   OH261998   2.855   3.266  14.984  0.3312  0.9827  0.2307
13528TIP3    H161999   2.836   3.211  14.909 -0.1352  0.7799  0.4963
13528TIP3    H262000   2.904   3.340  14.948 -0.3660  1.1690 -0.3481
13529TIP3   OH262001   0.693   4.581  11.907 -0.5162  0.3103  0.1297
13529TIP3    H162002   0.709   4.582  12.001 -0.1072  0.8771  0.0645
13529TIP3    H262003   0.781   4.587  11.868 -0.7630  2.2005 -0.2610
13530TIP3   OH262004   6.090   2.122   1.038  0.2956  0.4246 -0.0478
13530TIP3    H162005   6.082   2.050   1.101 -0.3670 -0.2321 -0.8729
13530TIP3    H262006   6.120   2.081   0.958 -0.9235  0.9125 -0.7840
13531TIP3   OH262007   2.511   0.778  16.683 -0.1628  0.3161 -0.0764
13531TIP3    H162008   2.447   0.782  16.754 -0.9828  2.3338 -0.8447
13531TIP3    H262009   2.563   0.700  16.701 -3.2257 -1.8196  0.2857
13532TIP3   OH262010   0.053   4.089  11.805 -0.6083  0.1175 -0.3561
13532TIP3    H162011   0.099   4.132  11.732 -0.8745 -0.2141 -0.7249
13532TIP3    H262012   0.123   4.062  11.864 -0.3968  0.5274 -0.4096
13533TIP3   OH262013   2.311   6.168   0.536 -0.2609 -0.4121  0.1949
13533TIP3    H162014   2.301   6.172   0.441 -2.6937 -1.8037  0.3266
13533TIP3    H262015   2.328   6.259   0.561 -1.5157  0.3196 -1.4043
13534TIP3   OH262016   4.600   4.717  15.835 -0.0156 -0.2646  0.0473
13534TIP3    H162017   4.608   4.664  15.914  3.2892  1.1969  0.8743
13534TIP3    H262018   4.610   4.807  15.866  2.6844  0.2861 -2.0342
13535TIP3   OH262019   5.199   2.782   5.475  0.3173 -0.1557  0.5932
13535TIP3    H162020   5.239   2.798   5.389 -2.0147  2.0611 -0.2048
13535TIP3    H262021   5.229   2.856   5.529 -1.0718  0.4817  0.5388
13536TIP3   OH262022   3.936   5.700   4.839 -0.5473  0.2367 -0.3430
13536TIP3    H162023   3.846   5.692   4.870 -0.5666 -0.0164 -0.4564
13536TIP3    H262024   3.990   5.668   4.911 -0.6926 -2.5746 -1.3398
13537TIP3   OH262025   0.178   2.459  15.221  0.4792 -0.4180 -0.4324
13537TIP3    H162026   0.095   2.506  15.234  0.4804 -0.2978 -0.8502
13537TIP3    H262027   0.165   2.409  15.141  0.0478 -2.0856  0.6256
13538TIP3   OH262028   0.846   4.375   0.904 -0.2873 -0.2480  0.4901
13538TIP3    H162029   0.845   4.290   0.860 -3.9645  0.1245 -0.4735
13538TIP3    H262030   0.783   4.366   0.975  0.0272  1.3579  1.0114
13539TIP3   OH262031   3.275   0.253  16.988 -0.2981 -0.6170  0.9120
13539TIP3    H162032   3.369   0.264  17.001  0.4516 -3.9880 -0.3532
13539TIP3    H262033   3.236   0.272  17.073  1.5839  0.2418  1.6434
13540TIP3   OH262034   5.501   0.229   4.074  0.8872  0.2160  0.1337
13540TIP3    H162035   5.433   0.291   4.047  1.6399  0.4727 -1.2207
13540TIP3    H262036   5.584   0.273   4.054  1.4598 -0.5431  0.7496
13541TIP3   OH262037   0.329   5.075   6.362  0.6413  0.6616 -0.0697
13541TIP3    H162038   0.253   5.111   6.317 -0.1021  0.5500  1.0427
13541TIP3    H262039   0.372   5.150   6.402 -0.0003  0.5305  0.9095
13542TIP3   OH262040   2.564   4.039  15.690  0.3459  0.5086  0.2671
13542TIP3    H162041   2.591   4.114  15.742 -1.0269 -0.1231  2.0003
13542TIP3    H262042   2.540   3.972  15.755 -0.8795 -0.5208 -1.1839
13543TIP3   OH262043   2.172   3.944   3.563 -0.0667 -0.5465 -0.2219
13543TIP3    H162044   2.158   4.038   3.567  2.2252 -0.0996 -1.1344
13543TIP3    H262045   2.104   3.912   3.504 -1.0098  0.4909  0.2766
13544TIP3   OH262046   5.983   3.502  16.381 -0.0545 -0.1433 -0.5580
13544TIP3    H162047   5.969   3.410  16.359  0.1628 -0.0114 -1.2698
13544TIP3    H262048   5.967   3.507  16.475 -1.4218 -0.6503 -0.7371
13545TIP3   OH262049   4.897   5.884   3.556 -0.1377  0.1793 -0.4105
13545TIP3    H162050   4.875   5.973   3.528  0.1075 -0.5706 -3.3584
13545TIP3    H262051   4.958   5.853   3.489 -1.8708 -2.9558 -0.6927
13546TIP3   OH262052   0.660   1.873  12.976  0.1741  0.5466 -0.4630
13546TIP3    H162053   0.738   1.917  12.943  0.9096 -0.5587 -0.2540
13546TIP3    H262054   0.632   1.927  13.050  0.2955  1.3475 -0.9775
13547TIP3   OH262055   5.594   5.491  15.386 -0.0832 -0.5819  0.9902
13547TIP3    H162056   5.500   5.476  15.395 -0.7065  1.1338 -1.4596
13547TIP3    H262057   5.616   5.453  15.301  1.3326 -0.5430  1.3156
13548TIP3   OH262058   2.234   3.778   2.069  0.0983  0.3983 -0.8786
13548TIP3    H162059   2.166   3.842   2.052  0.3477  0.5857 -1.1785
13548TIP3    H262060   2.242   3.729   1.987  0.5636  0.6040 -0.9579
13549TIP3   OH262061   0.947   4.080  12.188 -0.4132  0.3707 -0.1645
13549TIP3    H162062   1.038   4.051  12.200 -0.5630  0.3048  0.9022
13549TIP3    H262063   0.910   4.017  12.126  0.1514  0.1648 -0.3014
13550TIP3   OH262064   0.313   6.017   2.905 -0.1013 -0.4403  0.3840
13550TIP3    H162065   0.284   5.939   2.857 -0.1204  0.1147 -0.5213
13550TIP3    H262066   0.393   5.989   2.950 -0.7636 -1.3234  1.0517
13551TIP3   OH262067   0.042   5.167   2.855  0.1143 -0.3370 -0.1721
13551TIP3    H162068  -0.017   5.186   2.782  0.9110  1.0612 -0.4808
13551TIP3    H262069   0.129   5.184   2.820  0.5762 -0.6501  0.8123
13552TIP3   OH262070   1.079   6.457   5.256 -0.2858 -1.0192 -0.0228
13552TIP3    H162071   1.167   6.491   5.269 -1.6862  2.5600  1.6340
13552TIP3    H262072   1.073   6.441   5.162  1.2353  1.7208 -0.6874
13553TIP3   OH262073   0.216   4.702   1.457  0.0455  0.1584  0.2487
13553TIP3    H162074   0.198   4.626   1.401  0.7861 -0.1886  0.4673
13553TIP3    H262075   0.169   4.684   1.538 -0.6666  0.4541 -0.0857
13554TIP3   OH262076   4.299   5.096   1.218 -0.1735 -0.1892  0.1311
13554TIP3    H162077   4.294   5.149   1.139  2.3372 -1.5687 -1.0972
13554TIP3    H262078   4.360   5.143   1.275 -1.1866  0.2913  0.8397
13555TIP3   OH262079   2.676   6.278   1.152  0.4873  0.4168 -0.0026
13555TIP3    H162080   2.583   6.282   1.175  0.4846 -0.4396  0.1596
13555TIP3    H262081   2.677   6.287   1.057  0.1826 -0.2386 -0.0753
13556TIP3   OH262082   3.027   4.312   2.385 -0.7618  0.6733  0.5831
13556TIP3    H162083   3.051   4.403   2.364  2.1739 -0.1265  0.0316
13556TIP3    H262084   2.937   4.303   2.353  0.0594  2.4091 -2.6719
13557TIP3   OH262085   3.717   0.624  10.624 -0.5585  0.1563  0.1659
13557TIP3    H162086   3.682   0.582  10.702 -0.9481  2.2001  1.1704
13557TIP3    H262087   3.760   0.554  10.576 -2.7703 -1.7373  0.7615
13558TIP3   OH262088   6.315   4.937  11.407 -0.1153  0.1321 -0.5658
13558TIP3    H162089   6.349   4.875  11.342 -0.1320 -1.5397  0.9310
13558TIP3    H262090   6.228   4.960  11.375 -0.4234 -1.2522 -0.8039
13559TIP3   OH262091   0.944   0.082   0.734  0.3849 -0.4951  0.7715
13559TIP3    H162092   0.959   0.030   0.813 -0.5333 -0.6969  0.8194
13559TIP3    H262093   0.863   0.048   0.698  0.8246 -0.4417 -0.3006
13560TIP3   OH262094   5.905   5.937   4.757 -0.3356 -0.1073  0.7418
13560TIP3    H162095   5.903   5.949   4.662 -0.1623 -0.2345  0.7225
13560TIP3    H262096   5.963   5.862   4.771  0.4480  0.5361  1.0106
13561TIP3   OH262097   2.068   2.435   0.695  0.2698 -0.2698  0.2019
13561TIP3    H162098   2.000   2.493   0.730 -0.5058 -1.1204  0.1397
13561TIP3    H262099   2.024   2.388   0.624  0.9974 -0.6681  0.0113
13562TIP3   OH262100   5.010   4.218   3.051 -0.4828 -0.1775  0.1228
13562TIP3    H162101   5.038   4.224   3.143 -1.2451 -0.4399  0.3744
13562TIP3    H262102   5.002   4.124   3.035  1.6372 -0.2656 -0.8386
13563TIP3   OH262103   1.831   2.924  12.645  0.3819 -0.3342 -0.1225
13563TIP3    H162104   1.763   2.904  12.581  0.1364  1.6828 -0.5555
13563TIP3    H262105   1.912   2.891  12.605 -0.0193 -0.7292 -0.6184
13564TIP3   OH262106   0.338   1.146   4.626 -0.1441 -1.0628  0.0364
13564TIP3    H162107   0.253   1.183   4.652  0.4234  1.6089 -1.5188
13564TIP3    H262108   0.398   1.172   4.696  0.0981  0.4096 -0.6842
13565TIP3   OH262109   0.726   0.811  11.470 -0.4934  0.5737  0.3021
13565TIP3    H162110   0.739   0.861  11.551  1.8247 -0.3777  0.6036
13565TIP3    H262111   0.801   0.834  11.415 -0.9390 -0.3477 -0.7305
13566TIP3   OH262112   2.929   3.034  11.119  0.3229  0.1705 -0.6682
13566TIP3    H162113   2.874   3.006  11.046  1.4118 -3.3404 -0.3041
13566TIP3    H262114   3.008   3.068  11.077  0.5763 -0.9957 -1.1573
13567TIP3   OH262115   3.943   4.919  12.391  0.0727 -0.3200  0.1847
13567TIP3    H162116   3.940   4.987  12.324  3.6277 -0.4123 -0.2713
13567TIP3    H262117   3.935   4.837  12.341 -1.1418 -0.3518  0.3911
13568TIP3   OH262118   2.548   0.619  14.226 -0.4499 -0.0080 -0.3019
13568TIP3    H162119   2.599   0.679  14.281 -0.3271 -0.9657  0.6571
13568TIP3    H262120   2.597   0.613  14.144  0.1570  0.2794  0.0378
13569TIP3   OH262121   0.402   1.478  16.650 -0.2252  0.1122  0.0324
13569TIP3    H162122   0.382   1.518  16.565  1.6884 -0.0747 -0.5410
13569TIP3    H262123   0.493   1.502  16.667  0.0544 -1.5629  1.0653
13570TIP3   OH262124   3.673   4.776  17.013  1.0676 -0.1327  0.3659
13570TIP3    H162125   3.666   4.806  17.104  0.8534  0.6853  0.0898
13570TIP3    H262126   3.626   4.843  16.963  2.9599  0.5763 -0.5730
13571TIP3   OH262127   0.860   5.881  10.982  0.2375  0.6398 -0.5738
13571TIP3    H162128   0.870   5.969  10.945  0.4292  0.6439 -0.5132
13571TIP3    H262129   0.891   5.822  10.913 -1.1889  0.5296 -1.1589
13572TIP3   OH262130   0.738   0.806  15.451  0.2051  0.2959 -0.5917
13572TIP3    H162131   0.715   0.899  15.455  1.6580  0.6628  1.8880
13572TIP3    H262132   0.811   0.798  15.513  1.2552 -2.1986 -2.0298
13573TIP3   OH262133   2.995   3.305   0.559 -0.0522 -0.2598 -0.2695
13573TIP3    H162134   2.906   3.290   0.530 -0.5826  0.5183  0.8760
13573TIP3    H262135   3.002   3.401   0.567  0.4333 -0.3773  0.9456
13574TIP3   OH262136   5.294   1.525   3.699 -0.3484  0.2955  0.1849
13574TIP3    H162137   5.262   1.436   3.688 -0.3011  0.2701  0.2544
13574TIP3    H262138   5.314   1.533   3.793  0.4684  0.1024  0.0345
13575TIP3   OH262139   1.614   3.038   0.374 -0.0528  0.3446  0.9940
13575TIP3    H162140   1.616   3.065   0.466  0.3733 -1.6356  1.6271
13575TIP3    H262141   1.700   2.997   0.360  0.4631  1.9233 -0.7458
13576TIP3   OH262142   3.481   6.323  14.502  0.4290 -0.6114 -0.4094
13576TIP3    H162143   3.480   6.406  14.455  1.1859  0.1938  0.9170
13576TIP3    H262144   3.560   6.279  14.471  0.5518 -0.3984 -0.4010
13577TIP3   OH262145   3.958   3.033   3.366  0.2433  0.3288  0.2834
13577TIP3    H162146   4.024   2.968   3.390  0.3469  0.0595 -0.6954
13577TIP3    H262147   3.885   2.982   3.331 -0.8080  0.5748  2.0118
13578TIP3   OH262148   1.951   5.363  14.998  0.0690  0.3586  0.2179
13578TIP3    H162149   1.876   5.422  14.986  1.5346  2.1436 -0.5496
13578TIP3    H262150   1.926   5.309  15.073 -1.9740  0.9223  0.0118
13579TIP3   OH262151   5.494   2.728  11.858 -0.1302  0.0704 -0.2975
13579TIP3    H162152   5.424   2.728  11.794 -0.6447 -2.4568  0.1406
13579TIP3    H262153   5.452   2.706  11.941  0.8779  0.7145  0.4165
13580TIP3   OH262154   6.744   3.511  15.942  0.1145  0.6056  0.4393
13580TIP3    H162155   6.654   3.531  15.966 -1.0643 -2.3879 -0.9712
13580TIP3    H262156   6.771   3.443  16.004  1.9666  2.3596  1.6853
13581TIP3   OH262157   4.722   0.050  13.249 -0.4561  0.0662 -0.5130
13581TIP3    H162158   4.659   0.101  13.198 -1.8691  1.7645  2.6175
13581TIP3    H262159   4.675  -0.029  13.275  0.7987 -1.6128 -2.9972
13582TIP3   OH262160   4.704   1.575  15.824  0.0428  0.3036  0.0127
13582TIP3    H162161   4.771   1.637  15.795  1.0883 -1.1239 -0.7318
13582TIP3    H262162   4.722   1.495  15.775 -1.4323 -0.5304  0.7556
13583TIP3   OH262163   5.312   2.270   6.188  0.0749 -0.2481 -0.1190
13583TIP3    H162164   5.234   2.281   6.243 -1.3426  1.4545 -2.3069
13583TIP3    H262165   5.281   2.221   6.112  1.0909  0.5054 -1.0517
13584TIP3   OH262166   1.207   0.396  15.017 -0.2175  0.4218 -0.2801
13584TIP3    H162167   1.179   0.485  15.042 -2.8926 -0.2460 -0.6042
13584TIP3    H262168   1.214   0.399  14.922  1.5564  0.7376 -0.1630
13585TIP3   OH262169   0.044   4.952   0.919 -0.7385  0.5183 -0.3337
13585TIP3    H162170   0.024   5.031   0.969  0.8926  0.1395  1.0044
13585TIP3    H262171  -0.036   4.900   0.923 -0.1533 -0.3406  3.5716
13586TIP3   OH262172   3.544   0.147  14.828  0.0377 -0.2694 -0.1259
13586TIP3    H162173   3.602   0.072  14.846  0.5274  0.2722  0.6300
13586TIP3    H262174   3.493   0.120  14.751  0.9581 -0.9567 -0.5195
13587TIP3   OH262175   5.228   4.541   3.908  0.1775 -0.0436 -0.3115
13587TIP3    H162176   5.164   4.612   3.920 -0.3380 -0.2582 -1.6254
13587TIP3    H262177   5.178   4.462   3.927  0.3672 -0.1425 -0.2304
13588TIP3   OH262178   5.229   5.135   5.414 -0.4220  0.2292 -0.6650
13588TIP3    H162179   5.267   5.134   5.502 -1.1812 -0.2380 -0.3313
13588TIP3    H262180   5.135   5.120   5.428 -0.9287  2.3457 -1.3662
13589TIP3   OH262181   5.969   1.763   1.904 -0.3587  0.6290 -0.1271
13589TIP3    H162182   6.035   1.805   1.959  0.3630  0.4197 -0.8184
13589TIP3    H262183   6.012   1.750   1.820 -0.9527 -0.4061 -0.2973
13590TIP3   OH262184   5.681   5.707  11.821  0.1730  0.0802  0.1856
13590TIP3    H162185   5.699   5.613  11.815  2.2038  0.4170  0.3075
13590TIP3    H262186   5.627   5.726  11.745  1.3096 -0.8659 -0.8872
13591TIP3   OH262187   2.396   6.647  13.496  0.0870  0.1925  0.3548
13591TIP3    H162188   2.490   6.644  13.480  0.2210 -0.3453  1.2173
13591TIP3    H262189   2.361   6.570  13.450 -0.2702  1.6193 -1.9367
13592TIP3   OH262190   5.589   3.745  13.395  0.5794  0.0503  0.3950
13592TIP3    H162191   5.580   3.840  13.381  0.3924  0.0324  0.3845
13592TIP3    H262192   5.648   3.717  13.325 -0.2866 -0.0211 -0.3365
13593TIP3   OH262193   3.025   3.607  10.838  0.2472  0.2410 -0.1281
13593TIP3    H162194   3.024   3.701  10.823 -1.2823  0.1162 -0.9400
13593TIP3    H262195   3.104   3.577  10.793 -0.6587  0.8030 -2.1877
13594TIP3   OH262196   5.060   3.350  10.947  0.1975 -0.3387 -0.3174
13594TIP3    H162197   5.050   3.255  10.959 -0.7830 -0.4815 -1.9467
13594TIP3    H262198   5.096   3.381  11.030  1.6869 -2.3019 -0.1503
13595TIP3   OH262199   3.486   2.202  14.860  0.3253 -0.0609  0.3520
13595TIP3    H162200   3.430   2.260  14.808 -0.8732 -0.1581  1.4626
13595TIP3    H262201   3.431   2.178  14.936  0.6218 -2.9116 -0.2167
13596TIP3   OH262202   5.193   6.715  14.121  0.3969 -0.3041 -0.2674
13596TIP3    H162203   5.168   6.776  14.190  1.1692  0.9975 -1.1018
13596TIP3    H262204   5.128   6.645  14.126 -0.6273  0.6750  0.5966
13597TIP3   OH262205   2.136   1.729  13.791 -0.6524  0.3029  0.5736
13597TIP3    H162206   2.144   1.648  13.841 -0.5201 -0.3817 -0.5323
13597TIP3    H262207   2.196   1.790  13.835  0.1131 -0.5442  0.7322
13598TIP3   OH262208   0.750   5.611   5.145  0.2051 -0.6388  0.4331
13598TIP3    H162209   0.779   5.667   5.073  1.4885  1.8028  2.6807
13598TIP3    H262210   0.830   5.585   5.190 -0.5600 -2.0763  1.0470
13599TIP3   OH262211   3.148   4.454   5.069 -0.2994 -0.4784  0.5362
13599TIP3    H162212   3.099   4.536   5.072  0.3071 -0.1269  0.9318
13599TIP3    H262213   3.087   4.388   5.103 -0.8914 -0.2483 -0.0716
13600TIP3   OH262214   5.993   1.575   3.315  0.3240 -0.1853 -0.7347
13600TIP3    H162215   5.997   1.659   3.269  0.3783  0.0647 -0.2800
13600TIP3    H262216   5.969   1.598   3.405 -1.0410 -0.7768 -0.9298
13601TIP3   OH262217   5.941   1.818   6.468 -0.0483  0.2537 -0.1206
13601TIP3    H162218   6.019   1.854   6.425  0.1408  1.8246  1.4146
13601TIP3    H262219   5.893   1.773   6.398  0.8732  1.5887 -1.6700
13602TIP3   OH262220   4.686   4.929   0.465  0.1512  0.1862  0.2915
13602TIP3    H162221   4.770   4.919   0.511  1.5062 -1.1246 -2.2641
13602TIP3    H262222   4.653   4.839   0.456 -1.2662  0.6385  0.7516
13603TIP3   OH262223   4.714   3.496  10.521 -0.1456 -0.8897  0.3265
13603TIP3    H162224   4.735   3.587  10.501 -1.2258 -0.7941 -0.4348
13603TIP3    H262225   4.772   3.445  10.464 -0.5366 -0.6511 -0.2983
13604TIP3   OH262226   2.853   3.942  11.490 -0.2804 -0.1421  0.1417
13604TIP3    H162227   2.824   3.978  11.573 -0.6486  0.1353 -0.1078
13604TIP3    H262228   2.935   3.989  11.471 -0.1696 -0.2411  0.3685
13605TIP3   OH262229   1.801   4.608  15.361  0.0785 -0.6455  0.1847
13605TIP3    H162230   1.855   4.623  15.283  0.0646 -0.3920  0.2228
13605TIP3    H262231   1.857   4.636  15.434 -0.0960 -0.4049  0.2253
13606TIP3   OH262232   3.993   3.712  11.402  0.1835 -0.3831  0.3201
13606TIP3    H162233   3.933   3.646  11.369  0.8611 -2.3358  2.6892
13606TIP3    H262234   3.944   3.757  11.471  0.6004 -0.2150  0.5137
13607TIP3   OH262235   2.159   3.888   1.012 -0.3384 -0.0632  0.2481
13607TIP3    H162236   2.189   3.817   0.955  0.2109  1.0396 -0.8944
13607TIP3    H262237   2.209   3.877   1.093  2.6522  1.1640 -1.2536
13608TIP3   OH262238   1.535   1.600  15.731 -0.2236  0.2305 -0.5220
13608TIP3    H162239   1.535   1.567  15.822 -0.4443  0.0265 -0.5965
13608TIP3    H262240   1.606   1.551  15.689 -0.2012  0.2368 -0.4920
13609TIP3   OH262241   2.239   5.312  12.521  0.1393 -0.1636  0.0218
13609TIP3    H162242   2.167   5.248  12.520 -0.2282  0.1803 -2.4834
13609TIP3    H262243   2.318   5.259  12.519 -0.1448 -0.5787 -0.7635
13610TIP3   OH262244   3.990   5.659   1.918 -0.1551 -0.2876 -0.4401
13610TIP3    H162245   4.085   5.673   1.925  0.0156 -1.6605  0.4102
13610TIP3    H262246   3.952   5.722   1.979  0.3452 -0.9184  0.5569
13611TIP3   OH262247   1.997   1.060  15.102  0.2217  0.1270  0.6573
13611TIP3    H162248   2.038   1.062  15.016  1.0333  1.9560  1.0483
13611TIP3    H262249   2.037   1.132  15.150  0.4204 -1.3455  2.8675
13612TIP3   OH262250   1.909   5.551   2.650  0.2407 -0.0178  0.2337
13612TIP3    H162251   1.989   5.564   2.600 -0.4955 -1.0676 -1.2622
13612TIP3    H262252   1.857   5.630   2.634 -0.3645 -0.7260 -1.4123
13613TIP3   OH262253   5.433   6.635  12.333  0.0976 -0.0279 -0.5016
13613TIP3    H162254   5.490   6.702  12.370 -0.2675  0.1150 -0.1934
13613TIP3    H262255   5.492   6.562  12.312  0.2596 -0.3328  0.8591
13614TIP3   OH262256   6.739   5.826  12.374 -0.3004 -0.0928 -0.5254
13614TIP3    H162257   6.823   5.871  12.388  0.9225 -2.6768  1.2004
13614TIP3    H262258   6.696   5.829  12.459 -2.2714  1.5765 -1.4944
13615TIP3   OH262259   5.729   6.210  12.895 -0.4649 -0.5814 -0.6364
13615TIP3    H162260   5.687   6.259  12.825 -0.1613  0.3346 -0.1980
13615TIP3    H262261   5.791   6.152  12.851 -0.6919 -0.4362 -1.1529
13616TIP3   OH262262   2.211   0.418   1.910 -0.1456  0.7720 -0.7026
13616TIP3    H162263   2.285   0.464   1.869  1.6302  0.2542  1.6798
13616TIP3    H262264   2.210   0.332   1.868  1.7501  0.1833  0.3518
13617TIP3   OH262265   3.604   5.532  16.108  0.1284 -0.1588  0.0381
13617TIP3    H162266   3.571   5.622  16.113 -3.0252 -1.2623  1.9528
13617TIP3    H262267   3.606   5.512  16.015 -2.6622  0.8040 -0.3209
13618TIP3   OH262268   1.165   6.641  11.633  0.3563 -0.0385 -0.1668
13618TIP3    H162269   1.110   6.570  11.666 -2.9262  1.8549 -0.9986
13618TIP3    H262270   1.176   6.700  11.708  1.8852 -0.6871  0.1562
13619TIP3   OH262271   2.298   2.902   2.150 -0.0219 -0.2543  0.6442
13619TIP3    H162272   2.329   2.867   2.067 -0.0553  0.9327  0.1192
13619TIP3    H262273   2.206   2.923   2.135 -0.6043 -1.8666  1.5959
13620TIP3   OH262274   2.354   6.300   2.162 -0.0515  0.0817 -0.4931
13620TIP3    H162275   2.353   6.387   2.201 -0.7977 -0.6565  1.2603
13620TIP3    H262276   2.372   6.315   2.069 -0.5519  2.1223 -0.3098
13621TIP3   OH262277   5.570   0.267   2.770  0.4713  0.2265  0.6330
13621TIP3    H162278   5.535   0.348   2.731 -0.5029  0.6645  2.3245
13621TIP3    H262279   5.661   0.288   2.789 -0.6571  2.4520  4.6225
13622TIP3   OH262280   4.342   0.539   1.570 -0.0834  0.4179  0.2331
13622TIP3    H162281   4.337   0.572   1.480 -0.6040 -0.4929 -0.0866
13622TIP3    H262282   4.435   0.522   1.584 -0.2407 -1.7327 -1.0109
13623TIP3   OH262283   0.125   3.009  14.701  0.3854 -0.2856  0.7360
13623TIP3    H162284   0.157   3.097  14.722  1.1141 -0.2057 -0.5986
13623TIP3    H262285   0.044   3.024  14.651  0.9957 -0.3078 -0.3044
13624TIP3   OH262286   5.482   0.198   4.523  0.1622  0.2040 -0.2893
13624TIP3    H162287   5.517   0.217   4.437  0.5252  1.3932  0.0978
13624TIP3    H262288   5.527   0.259   4.582 -1.1743  0.4858  0.5063
13625TIP3   OH262289   5.101   6.345  15.355  0.5406  0.8903  0.0820
13625TIP3    H162290   5.068   6.430  15.385  2.1403  1.4752  0.2515
13625TIP3    H262291   5.182   6.366  15.309  2.2873 -0.7375  2.2080
13626TIP3   OH262292   6.290   2.852  13.284  0.0712  0.6688  0.0141
13626TIP3    H162293   6.331   2.808  13.210  0.2666  2.8907 -1.2708
13626TIP3    H262294   6.237   2.922  13.245 -0.9162  1.0552  1.9127
13627TIP3   OH262295   3.694   6.634   4.632  0.5793 -0.5157 -0.1723
13627TIP3    H162296   3.646   6.551   4.638  1.4756 -0.9689  1.6106
13627TIP3    H262297   3.626   6.701   4.625 -0.3146 -1.1999  1.4530
13628TIP3   OH262298   6.024   3.883   5.334 -0.5746  0.4401  0.2901
13628TIP3    H162299   5.995   3.793   5.318 -0.4361  0.4876 -0.2406
13628TIP3    H262300   6.116   3.874   5.359 -0.4262  0.4634 -0.2225
13629TIP3   OH262301   5.437   4.807  11.513 -0.2690  0.2100  0.0968
13629TIP3    H162302   5.373   4.821  11.584  0.1106 -1.9541  0.9430
13629TIP3    H262303   5.521   4.832  11.551 -0.1472 -0.3806  0.2301
13630TIP3   OH262304   3.779   6.450  15.580  0.2510  0.2130  0.9249
13630TIP3    H162305   3.821   6.377  15.535 -2.0042 -1.2100  0.9617
13630TIP3    H262306   3.849   6.492  15.630  1.4100 -2.6945  1.9020
13631TIP3   OH262307   2.048   2.859  12.195 -0.6144  0.0625 -0.0695
13631TIP3    H162308   2.046   2.944  12.151  2.5300  0.9142  1.1923
13631TIP3    H262309   2.072   2.796  12.127  0.1083  0.7056 -0.4175
13632TIP3   OH262310   3.511   4.319  17.121 -0.3729 -0.0821  0.3771
13632TIP3    H162311   3.465   4.402  17.109 -0.7996  0.5114  4.4333
13632TIP3    H262312   3.599   4.345  17.148  0.2841 -1.0714 -0.7322
13633TIP3   OH262313   4.213   6.683   0.672 -0.4190  0.2598 -1.2512
13633TIP3    H162314   4.207   6.779   0.666  0.0609  0.3606 -0.2776
13633TIP3    H262315   4.307   6.665   0.661  0.1284  0.2440  2.3051
13634TIP3   OH262316   5.120   0.548  12.114 -0.2538  0.4964 -0.0212
13634TIP3    H162317   5.206   0.588  12.129  0.1715 -0.1664 -0.6280
13634TIP3    H262318   5.115   0.477  12.178  1.2059 -1.7884 -2.2304
13635TIP3   OH262319   1.782   3.519  16.930 -0.1751 -0.2870 -0.6043
13635TIP3    H162320   1.810   3.428  16.918  1.2893 -0.1941  1.4810
13635TIP3    H262321   1.744   3.521  17.018 -1.5307  0.8632 -1.1685
13636TIP3   OH262322   0.323   4.073   0.616 -0.4661  0.8709  0.0392
13636TIP3    H162323   0.404   4.022   0.630 -0.5546  0.8010  0.3161
13636TIP3    H262324   0.347   4.162   0.642 -0.8471  0.5948  1.4723
13637TIP3   OH262325   0.075   2.984  11.807 -0.5242 -0.2436 -0.8125
13637TIP3    H162326   0.068   2.966  11.901  0.1099 -2.5551 -1.1507
13637TIP3    H262327  -0.013   2.966  11.773 -0.8119  0.8093 -0.6459
13638TIP3   OH262328   5.730   0.348   3.709  0.4958 -0.9966  1.2900
13638TIP3    H162329   5.795   0.340   3.779  0.7372  1.6870  1.4860
13638TIP3    H262330   5.667   0.279   3.727  1.4246 -1.4267  3.1922
13639TIP3   OH262331   4.785   1.384  11.584  0.5261 -0.0288  0.6032
13639TIP3    H162332   4.714   1.324  11.563 -1.3401  1.9124  0.9680
13639TIP3    H262333   4.741   1.461  11.619  2.9052  0.8554  1.8759
13640TIP3   OH262334   0.238   2.768  12.402  0.3744 -0.2844 -0.2696
13640TIP3    H162335   0.208   2.712  12.330 -1.6100 -0.6329  0.7406
13640TIP3    H262336   0.166   2.829  12.417  0.7938 -0.1171  1.2911
13641TIP3   OH262337   4.676   3.763  12.168  0.1653 -0.2546  0.3143
13641TIP3    H162338   4.634   3.702  12.108  0.9750  1.0252 -1.6665
13641TIP3    H262339   4.648   3.735  12.255 -3.1406 -0.6627 -0.7509
13642TIP3   OH262340   2.487   4.234   4.564 -0.3449  0.5664 -0.1657
13642TIP3    H162341   2.416   4.171   4.580 -0.4055  0.8994  1.0040
13642TIP3    H262342   2.452   4.317   4.597  0.5740  0.7421  0.3833
13643TIP3   OH262343   3.934   0.839  13.964 -0.3244  0.1025 -0.2095
13643TIP3    H162344   3.943   0.925  14.006 -1.2446 -0.2898  0.8256
13643TIP3    H262345   3.972   0.851  13.877 -1.1940  1.8054 -0.3991
13644TIP3   OH262346   4.610   3.363   1.390  0.8162  0.0278  0.1550
13644TIP3    H162347   4.627   3.446   1.346  0.8301 -0.9621 -1.8498
13644TIP3    H262348   4.664   3.300   1.343 -0.4423 -1.3827  0.5351
13645TIP3   OH262349   4.091   3.270   3.341  0.7147  0.6399 -0.5265
13645TIP3    H162350   4.123   3.281   3.252 -0.3289  0.3042 -0.9661
13645TIP3    H262351   4.036   3.191   3.337  0.6684  0.6063  0.4172
13646TIP3   OH262352   2.312   1.727   5.384  0.6578 -0.3258 -0.2389
13646TIP3    H162353   2.365   1.796   5.423  0.9588 -0.2433 -0.7933
13646TIP3    H262354   2.246   1.707   5.451  0.9183  0.0985  0.1477
13647TIP3   OH262355   1.265   5.890  14.803 -0.2491  0.1622 -0.6896
13647TIP3    H162356   1.356   5.863  14.789  0.4285  1.9914 -0.0879
13647TIP3    H262357   1.254   5.967  14.748 -1.6255 -0.3271 -1.1521
13648TIP3   OH262358   4.011   3.199  13.490  0.0268 -0.0029 -0.2798
13648TIP3    H162359   3.944   3.187  13.423  0.1048 -1.2827 -0.1515
13648TIP3    H262360   4.091   3.163  13.451  0.1427 -0.4718  0.3753
13649TIP3   OH262361   1.095   2.823  13.358  0.4456 -0.0181  0.7416
13649TIP3    H162362   1.129   2.912  13.348 -1.9829  0.8050 -1.2577
13649TIP3    H262363   1.005   2.828  13.326 -0.4761 -2.7719  2.5705
13650TIP3   OH262364   1.772   2.174   2.043  1.0027  0.0781  0.2225
13650TIP3    H162365   1.769   2.108   2.112 -0.0493  0.6167  0.7191
13650TIP3    H262366   1.855   2.158   1.998  0.6279 -1.8115  0.0957
13651TIP3   OH262367   6.343   2.144  15.250  0.2114 -0.0298  0.7031
13651TIP3    H162368   6.249   2.151  15.267  0.2005 -0.0703  0.6598
13651TIP3    H262369   6.385   2.186  15.325  0.1241  2.1546 -0.3775
13652TIP3   OH262370   3.333   5.190   5.644  0.2885 -0.7423  0.4956
13652TIP3    H162371   3.347   5.162   5.734 -1.0437 -1.6244  0.4466
13652TIP3    H262372   3.243   5.164   5.624 -0.0942  1.1453 -0.4711
13653TIP3   OH262373   2.112   0.340  14.252  0.3795  0.3305 -0.0115
13653TIP3    H162374   2.175   0.377  14.190 -0.1294 -1.9390 -1.9904
13653TIP3    H262375   2.033   0.393  14.241  1.1043  1.6223  0.7082
13654TIP3   OH262376   4.263   1.425   0.988  0.1029 -0.2572  0.7560
13654TIP3    H162377   4.183   1.443   1.038 -0.9415 -1.9154 -0.2356
13654TIP3    H262378   4.275   1.331   0.994  1.3936 -0.1665 -0.0132
13655TIP3   OH262379   4.011   5.283  13.040 -0.0301 -0.3137  0.1479
13655TIP3    H162380   4.079   5.347  13.063  0.1489  0.1408 -1.4807
13655TIP3    H262381   4.043   5.242  12.960 -1.2258 -0.7907 -0.1080
13656TIP3   OH262382   2.314   3.711   2.319  0.2046  0.1648  0.1082
13656TIP3    H162383   2.287   3.721   2.228  0.3858  3.5190  0.3147
13656TIP3    H262384   2.401   3.669   2.314 -0.4297 -1.0737 -1.1081
13657TIP3   OH262385   5.108   1.956  15.039  0.0791 -0.3131  0.4805
13657TIP3    H162386   5.081   1.879  15.089  0.7568  0.1974  1.6852
13657TIP3    H262387   5.180   1.925  14.984 -0.1426 -0.7096  0.4116
13658TIP3   OH262388   5.794   0.211  14.532 -0.0006  0.1660  0.5123
13658TIP3    H162389   5.769   0.212  14.625  4.0833 -0.2654  1.8544
13658TIP3    H262390   5.776   0.300  14.502 -1.0449  0.4433  1.8299
13659TIP3   OH262391   5.533   4.910  16.848  0.3776  0.5337 -0.2064
13659TIP3    H162392   5.601   4.961  16.892  0.4634 -2.2434  3.3619
13659TIP3    H262393   5.579   4.833  16.814 -0.8055 -1.4028  2.2910
13660TIP3   OH262394   6.613   5.535  15.134  0.2634 -0.1601  0.6440
13660TIP3    H162395   6.640   5.464  15.076  0.2966 -0.2858  0.8145
13660TIP3    H262396   6.556   5.493  15.198 -1.1254  0.2601 -0.2741
13661TIP3   OH262397   3.699   2.442  16.030  0.2544 -0.0494 -0.0628
13661TIP3    H162398   3.633   2.418  16.095  0.5251  1.2651  0.7412
13661TIP3    H262399   3.782   2.443  16.077  0.3732  1.4999 -0.2405
13662TIP3   OH262400   5.450   0.393  12.495  0.6133 -0.6372 -0.4382
13662TIP3    H162401   5.511   0.463  12.519 -1.4323  0.4968  1.9980
13662TIP3    H262402   5.425   0.412  12.404  1.3175  0.8547 -0.3401
13663TIP3   OH262403   6.533   4.826  11.601  0.0560 -0.6116 -0.2314
13663TIP3    H162404   6.514   4.754  11.661  1.0421 -1.5088 -0.9729
13663TIP3    H262405   6.447   4.852  11.566 -0.5520 -0.0221  1.5709
13664TIP3   OH262406   6.684   4.012   2.287  0.5825 -0.6180  0.3175
13664TIP3    H162407   6.648   3.997   2.375  0.0526 -0.4086  0.1435
13664TIP3    H262408   6.679   3.926   2.244 -2.5648 -0.0810 -0.7210
13665TIP3   OH262409   4.941   4.417   6.010 -0.0701 -0.1893 -0.0472
13665TIP3    H162410   4.884   4.462   6.073 -1.0633 -1.6082  0.1272
13665TIP3    H262411   4.998   4.363   6.063 -0.6996 -1.1562 -0.3339
13666TIP3   OH262412   6.115   1.647  11.962  0.4334 -0.3866  0.7349
13666TIP3    H162413   6.182   1.578  11.963  1.5949  0.5800 -1.4574
13666TIP3    H262414   6.045   1.612  11.907  0.9712  0.0730 -0.2807
13667TIP3   OH262415   2.120   2.923   1.028 -0.4252  0.1579 -0.0256
13667TIP3    H162416   2.072   2.990   1.077 -1.1386 -0.9491  0.8374
13667TIP3    H262417   2.153   2.970   0.951 -0.1651  1.7002  0.9702
13668TIP3   OH262418   4.733   1.853  14.579  0.0576  0.2915  0.0055
13668TIP3    H162419   4.727   1.946  14.601  0.1845  0.3229 -0.0922
13668TIP3    H262420   4.729   1.808  14.664 -0.6232  0.3553  0.0108
13669TIP3   OH262421   5.130   4.936   3.004  0.9044  0.5019 -0.1140
13669TIP3    H162422   5.201   4.998   3.018  1.1932  0.3840 -1.0038
13669TIP3    H262423   5.173   4.851   2.998  0.7976  0.5137 -1.4168
13670TIP3   OH262424   0.192   5.645  14.073  0.1245  0.1803  0.6642
13670TIP3    H162425   0.109   5.662  14.029 -0.1500 -3.3217 -0.4710
13670TIP3    H262426   0.258   5.683  14.015 -0.4564 -1.3941 -1.1325
13671TIP3   OH262427   1.903   2.440  10.840  0.3413 -0.6778  0.3833
13671TIP3    H162428   1.966   2.513  10.839 -0.6729  0.2568 -1.3828
13671TIP3    H262429   1.859   2.448  10.924  0.6710  0.4020  0.4785
13672TIP3   OH262430   5.292   3.284  12.746 -0.1677  0.5684  0.1708
13672TIP3    H162431   5.225   3.351  12.758 -0.7812 -0.3413  2.4617
13672TIP3    H262432   5.257   3.207  12.791  0.9016 -1.0461 -1.5996
13673TIP3   OH262433   5.295   6.698  10.920 -0.1920  0.8266  0.4817
13673TIP3    H162434   5.244   6.759  10.868  0.4156 -0.1036 -1.2989
13673TIP3    H262435   5.231   6.636  10.954 -0.3822 -0.1106 -1.4236
13674TIP3   OH262436   5.003   6.046  11.793 -0.0654 -0.2227  0.0322
13674TIP3    H162437   5.040   5.958  11.790  1.5225  0.3776  0.7378
13674TIP3    H262438   4.985   6.068  11.701  1.9779 -0.3245 -0.4354
13675TIP3   OH262439   0.621   1.073   6.096 -0.0117  0.5664  0.1943
13675TIP3    H162440   0.588   1.074   6.006 -0.0979  0.6376  0.2257
13675TIP3    H262441   0.641   0.981   6.114  1.9637  0.7860 -0.6050
13676TIP3   OH262442   2.502   3.489  11.319 -0.5642 -0.1117 -0.2867
13676TIP3    H162443   2.466   3.410  11.279 -0.4639  0.6126 -1.8717
13676TIP3    H262444   2.582   3.460  11.363 -0.5300 -0.8883 -0.8518
13677TIP3   OH262445   3.964   5.798  16.968 -0.0196  0.1998  0.7064
13677TIP3    H162446   3.977   5.710  16.932  0.6427 -0.0057  1.4180
13677TIP3    H262447   3.869   5.810  16.969 -0.0611  0.1496 -0.9259
13678TIP3   OH262448   4.692   5.193  12.034 -0.9884 -0.2736 -0.3581
13678TIP3    H162449   4.613   5.147  12.006 -0.4349 -1.0516 -0.6879
13678TIP3    H262450   4.695   5.179  12.129 -0.0928 -2.1762 -0.6144
13679TIP3   OH262451   3.874   2.860  11.015  0.7700 -0.6707 -0.3359
13679TIP3    H162452   3.828   2.913  10.949 -0.5411 -1.0823  0.2050
13679TIP3    H262453   3.960   2.900  11.022  0.0718  0.9431 -0.4798
13680TIP3   OH262454   1.548   4.328   4.786 -0.0704 -0.0934  0.5039
13680TIP3    H162455   1.491   4.321   4.863  0.1015  1.0965  0.7648
13680TIP3    H262456   1.512   4.403   4.738  1.3339  0.7565  0.7367
13681TIP3   OH262457   5.206   4.110   1.149  0.2672  0.8832  0.5217
13681TIP3    H162458   5.139   4.130   1.214 -0.6264 -0.5898  0.0844
13681TIP3    H262459   5.205   4.186   1.090 -1.5191  0.6005  0.1361
13682TIP3   OH262460   0.321   4.013  13.559  0.3662  0.1364 -0.1805
13682TIP3    H162461   0.373   4.029  13.480  1.9553 -0.0386  0.7854
13682TIP3    H262462   0.367   3.942  13.604 -1.7605 -1.3351 -0.1775
13683TIP3   OH262463   4.184   1.309   3.719  0.9547  0.5685 -0.4709
13683TIP3    H162464   4.279   1.299   3.729  0.9658  0.0814 -0.9940
13683TIP3    H262465   4.149   1.220   3.730  0.0314  1.2511  4.5293
13684TIP3   OH262466   1.568   5.634   2.897  0.1604  0.0764 -0.2576
13684TIP3    H162467   1.491   5.689   2.910  1.1260  1.3379  0.3279
13684TIP3    H262468   1.632   5.667   2.959  0.6905 -1.9605  0.3582
13685TIP3   OH262469   0.193   4.202   1.753  0.2393  0.2177  0.5220
13685TIP3    H162470   0.230   4.140   1.689 -0.2579  0.6184 -0.1639
13685TIP3    H262471   0.256   4.202   1.825  1.2435  0.3812 -0.3249
13686TIP3   OH262472   6.166   6.625  12.921  0.0046 -0.6301  0.0184
13686TIP3    H162473   6.178   6.574  13.001  1.3640  1.5849  1.3586
13686TIP3    H262474   6.155   6.715  12.952 -2.4579 -0.0496 -2.2061
13687TIP3   OH262475   2.463   0.081   3.607  0.0424 -0.0656 -0.3861
13687TIP3    H162476   2.510   0.059   3.526  0.5901 -0.0826 -0.0671
13687TIP3    H262477   2.525   0.133   3.657 -0.8114  1.1872 -0.5975
13688TIP3   OH262478   3.012   1.134   1.236 -0.1546 -0.6088 -0.0149
13688TIP3    H162479   2.967   1.113   1.318 -0.2686 -0.9810 -0.1706
13688TIP3    H262480   2.941   1.155   1.175 -0.1264 -1.2758 -0.2841
13689TIP3   OH262481   2.564   5.158  13.772  0.7251 -0.1436  0.1165
13689TIP3    H162482   2.535   5.249  13.771  2.9825  0.7541  2.8395
13689TIP3    H262483   2.658   5.162  13.754  0.7974 -2.0304 -0.2106
13690TIP3   OH262484   0.342   5.955   3.863  0.0803 -0.2046 -0.0349
13690TIP3    H162485   0.431   5.921   3.875 -0.1522 -0.1323  2.1889
13690TIP3    H262486   0.323   5.936   3.771  2.4938  0.0705 -0.6792
13691TIP3   OH262487   2.713   4.300   1.382 -0.5517  0.0300  0.0618
13691TIP3    H162488   2.728   4.395   1.383  0.4447 -0.0550 -1.7976
13691TIP3    H262489   2.765   4.267   1.455  1.4544  0.6713 -0.9910
13692TIP3   OH262490   6.552   0.722  11.884 -0.0603  0.4106  0.1646
13692TIP3    H162491   6.566   0.808  11.844 -0.2357  0.5258  0.3539
13692TIP3    H262492   6.560   0.661  11.810 -2.2253  0.7553 -0.4131
13693TIP3   OH262493   1.264   5.630   0.448 -1.3814  0.2768 -0.0236
13693TIP3    H162494   1.276   5.555   0.390 -2.4456 -1.1112  1.4530
13693TIP3    H262495   1.256   5.705   0.389 -1.0272 -0.8531 -1.5879
13694TIP3   OH262496   2.501   3.852   3.200  0.1362  0.7470 -0.1954
13694TIP3    H162497   2.494   3.831   3.107 -0.9473  0.5830 -0.0857
13694TIP3    H262498   2.560   3.928   3.203 -1.2675  1.9423 -1.1950
13695TIP3   OH262499   4.476   1.495   4.624 -0.1265 -0.8033  0.2960
13695TIP3    H162500   4.460   1.533   4.538 -0.7201  0.9289  1.1310
13695TIP3    H262501   4.394   1.506   4.671 -0.8428 -4.4439  0.1922
13696TIP3   OH262502   2.973   3.619  13.778  0.3513  0.4189 -0.0451
13696TIP3    H162503   2.912   3.581  13.715 -0.0585  2.1525 -0.7493
13696TIP3    H262504   2.920   3.635  13.856  0.7691 -1.3515  0.6680
13697TIP3   OH262505   2.780   1.208   1.096 -0.0560  0.5434 -0.9469
13697TIP3    H162506   2.715   1.166   1.152  0.4546 -1.2560 -1.6213
13697TIP3    H262507   2.751   1.299   1.089 -1.4712  0.2161  0.2334
13698TIP3   OH262508   2.079   0.212  12.879  0.3186  0.5385 -0.6453
13698TIP3    H162509   2.068   0.300  12.843 -1.7665  1.9558  2.9831
13698TIP3    H262510   2.015   0.159  12.832  0.1255  1.4336 -1.4205
13699TIP3   OH262511   3.991   5.727  16.492  0.5191 -0.3768 -0.3952
13699TIP3    H162512   3.918   5.706  16.551  1.5126 -0.1985  0.9442
13699TIP3    H262513   3.950   5.771  16.418 -0.6943  0.0956  0.5243
13700TIP3   OH262514   5.630   5.918   1.425 -0.4797  0.3859  0.3650
13700TIP3    H162515   5.692   5.851   1.394 -1.2507  0.1391 -0.7189
13700TIP3    H262516   5.685   5.987   1.461  0.3486 -0.7613  1.3917
13701TIP3   OH262517   0.641   6.533   5.393  0.1077  0.5665  0.3667
13701TIP3    H162518   0.561   6.583   5.402 -0.7425 -0.6072 -0.3761
13701TIP3    H262519   0.662   6.505   5.483 -0.1595  1.0939  0.5951
13702TIP3   OH262520   5.410   1.218   4.582  0.3749  0.6014 -0.2024
13702TIP3    H162521   5.478   1.164   4.543  1.2258  2.0931 -0.8740
13702TIP3    H262522   5.343   1.226   4.514  1.1894  2.0069 -0.8891
13703TIP3   OH262523   2.151   0.395  15.298  0.7321 -0.2811  0.1029
13703TIP3    H162524   2.087   0.382  15.228 -0.0767  0.4110  0.6985
13703TIP3    H262525   2.127   0.332  15.366  1.3623 -0.7762 -0.1158
13704TIP3   OH262526   3.522   1.601  12.791  0.2580 -0.7304  0.0795
13704TIP3    H162527   3.572   1.554  12.724  0.7124 -2.1673  1.3865
13704TIP3    H262528   3.577   1.598  12.869 -1.0179 -0.6194  1.0129
13705TIP3   OH262529   2.989   4.641  16.570  0.0664  0.2526 -0.6060
13705TIP3    H162530   2.982   4.716  16.629  0.9269 -0.2592  0.1907
13705TIP3    H262531   2.945   4.569  16.616  0.8463 -0.1814 -0.5080
13706TIP3   OH262532   3.342   5.745   4.770 -0.6938  0.3257  0.5283
13706TIP3    H162533   3.297   5.691   4.704  0.6040 -0.8940  0.5712
13706TIP3    H262534   3.394   5.682   4.820 -0.7370  1.3877  1.9693
13707TIP3   OH262535   3.753   0.494  11.851 -0.0521 -0.3625  0.4894
13707TIP3    H162536   3.748   0.443  11.933  0.6171 -2.9243 -0.9451
13707TIP3    H262537   3.839   0.536  11.854 -0.9966  1.6359  2.1372
13708TIP3   OH262538   5.310   0.910  12.938 -0.3772  0.0579 -0.0508
13708TIP3    H162539   5.395   0.946  12.963 -1.1293  1.2351  0.8921
13708TIP3    H262540   5.294   0.841  13.002  0.3124 -0.8815 -0.8575
13709TIP3   OH262541   5.446   2.789   3.858  0.4754 -1.0987  0.2818
13709TIP3    H162542   5.468   2.868   3.907  1.7134 -0.1843 -1.6286
13709TIP3    H262543   5.374   2.814   3.801  0.0521 -1.7175  0.5266
13710TIP3   OH262544   3.061   3.860   5.058  0.1664 -0.2834 -0.1170
13710TIP3    H162545   3.047   3.911   5.138  0.4833  0.7897 -0.7207
13710TIP3    H262546   3.052   3.769   5.086 -0.1320  0.0828  1.0564
13711TIP3   OH262547   3.265   1.663   0.762 -0.4562  0.6307 -0.2815
13711TIP3    H162548   3.222   1.740   0.798 -0.0045  1.5873 -1.6904
13711TIP3    H262549   3.208   1.590   0.785 -0.4284  1.2297  1.8771
13712TIP3   OH262550   3.040   4.095  16.387 -0.0577 -0.2625 -0.1143
13712TIP3    H162551   3.012   4.120  16.299 -2.5278 -0.3713  0.5655
13712TIP3    H262552   3.040   3.999  16.386  0.1204 -0.2633 -0.0485
13713TIP3   OH262553   2.168   3.583  16.426  0.0619 -0.2074 -0.7490
13713TIP3    H162554   2.216   3.664  16.443 -1.6495  1.5330 -3.4944
13713TIP3    H262555   2.137   3.555  16.513 -0.1388  2.6673  0.2227
13714TIP3   OH262556   1.269   1.873  12.456  0.2268 -0.3482  0.2763
13714TIP3    H162557   1.308   1.802  12.508  1.6880  1.2438  1.4676
13714TIP3    H262558   1.336   1.941  12.455 -1.5349  1.4603  0.0961
13715TIP3   OH262559   0.809   6.652   4.565 -0.4030  0.0003 -0.0460
13715TIP3    H162560   0.876   6.698   4.617 -0.6713  0.1312  0.1860
13715TIP3    H262561   0.733   6.710   4.568  0.3402  1.2861 -2.6906
13716TIP3   OH262562   2.831   0.086   0.805 -0.5123 -0.3590  0.1945
13716TIP3    H162563   2.831  -0.007   0.827 -0.4246 -0.5646 -0.6455
13716TIP3    H262564   2.892   0.093   0.731  0.5257  0.5789  1.0967
13717TIP3   OH262565   3.818   1.558  14.339  0.0298  0.3300  0.4037
13717TIP3    H162566   3.857   1.605  14.266 -0.1298 -0.4032 -0.1698
13717TIP3    H262567   3.725   1.551  14.316 -0.0737  0.3557  0.8132
13718TIP3   OH262568   1.781   2.116   4.466  0.0777  0.5905 -0.2421
13718TIP3    H162569   1.868   2.136   4.432 -0.4275 -1.2797 -2.9402
13718TIP3    H262570   1.741   2.201   4.481  1.2996  1.5335 -1.9884
13719TIP3   OH262571   0.346   2.052   2.079 -0.1186  0.2993  0.0359
13719TIP3    H162572   0.391   2.128   2.117  0.6453  0.0747 -0.4059
13719TIP3    H262573   0.416   1.993   2.052 -0.7112 -0.6282  0.4807
13720TIP3   OH262574   5.272   2.782  16.140 -0.1468 -0.5752  0.3272
13720TIP3    H162575   5.362   2.788  16.106  0.1994 -0.4338  1.2302
13720TIP3    H262576   5.233   2.866  16.119 -0.1067 -0.6848 -0.1869
13721TIP3   OH262577   0.714   1.594   1.398 -0.5740  0.8174 -0.2351
13721TIP3    H162578   0.795   1.586   1.448 -1.5560 -1.5613  1.1148
13721TIP3    H262579   0.737   1.563   1.310 -0.2629 -1.1507  0.4889
13722TIP3   OH262580   4.798   5.450   1.485  0.1993  0.3545 -0.2291
13722TIP3    H162581   4.771   5.377   1.541  2.4505 -0.5620 -0.2584
13722TIP3    H262582   4.727   5.514   1.495 -1.1827 -1.2343  0.8665
13723TIP3   OH262583   1.106   1.107  14.661 -0.2379 -0.4626  0.3463
13723TIP3    H162584   1.169   1.141  14.597  0.0828  0.1524  0.9658
13723TIP3    H262585   1.105   1.173  14.731 -1.1993 -0.7111  0.5858
13724TIP3   OH262586   4.639   4.115   5.397 -0.1173  0.1521 -0.0105
13724TIP3    H162587   4.645   4.025   5.429  0.0717 -0.3332 -1.3699
13724TIP3    H262588   4.580   4.111   5.322 -0.4164  1.2319  0.1491
13725TIP3   OH262589   4.423   1.476   5.236  0.0113  0.4413 -0.3743
13725TIP3    H162590   4.420   1.551   5.296  0.9477  0.3560 -0.2094
13725TIP3    H262591   4.472   1.409   5.284  0.0228  0.0674 -0.9005
13726TIP3   OH262592   3.182   4.716  11.850 -0.6744 -0.0833  0.4372
13726TIP3    H162593   3.246   4.777  11.887 -0.2395  0.1396 -0.6367
13726TIP3    H262594   3.115   4.773  11.810 -0.8857 -0.3114  0.4631
13727TIP3   OH262595   3.890   5.306  14.837  0.3894  0.0506  0.4001
13727TIP3    H162596   3.885   5.378  14.774 -1.7571 -0.4188 -0.0495
13727TIP3    H262597   3.979   5.272  14.827  1.0588  1.8696 -0.2296
13728TIP3   OH262598   4.477   2.618   0.509  0.4796 -0.7641 -0.0373
13728TIP3    H162599   4.545   2.587   0.568 -0.3673  0.0922  1.4563
13728TIP3    H262600   4.479   2.714   0.518 -1.9128 -0.7447  1.3070
13729TIP3   OH262601   5.419   5.728   0.774 -0.7193 -0.6945  0.2818
13729TIP3    H162602   5.417   5.784   0.851 -0.7572  0.6389 -0.6360
13729TIP3    H262603   5.506   5.742   0.737 -0.4650 -1.8248  0.4278
13730TIP3   OH262604   2.231   6.704  13.012 -0.1880  0.5039 -0.0029
13730TIP3    H162605   2.259   6.789  13.046 -2.4749  1.1822  0.4137
13730TIP3    H262606   2.149   6.723  12.966 -0.6659 -1.4413 -0.0609
13731TIP3   OH262607   5.740   6.508  13.605 -0.2631 -0.4471 -0.0616
13731TIP3    H162608   5.789   6.557  13.672 -2.6762  2.0292  0.0677
13731TIP3    H262609   5.704   6.432  13.651  1.3450 -0.9609  0.4101
13732TIP3   OH262610   2.655   5.145  16.253  0.4923 -0.9693 -0.0901
13732TIP3    H162611   2.640   5.116  16.343  1.1547  0.2036  0.4304
13732TIP3    H262612   2.723   5.212  16.261  1.5619 -1.8104 -1.6331
13733TIP3   OH262613   0.446   3.095  15.731  0.2512  0.8318  0.1426
13733TIP3    H162614   0.508   3.120  15.663  0.1160  0.0983 -0.2611
13733TIP3    H262615   0.360   3.104  15.689  0.1022  1.4962  0.5842
13734TIP3   OH262616   3.796   5.660   3.921  0.2343  0.1010  0.1359
13734TIP3    H162617   3.760   5.632   4.005  1.5112  1.5544  1.2240
13734TIP3    H262618   3.816   5.578   3.874 -1.3319 -0.7257  0.8321
13735TIP3   OH262619   3.777   1.076  14.583 -0.0642  0.5015 -0.0675
13735TIP3    H162620   3.836   1.094  14.657 -0.7805  0.6111  0.4913
13735TIP3    H262621   3.755   1.162  14.549 -2.4441  0.7311  1.7761
13736TIP3   OH262622   5.556   4.594  15.362 -0.2313  0.0627 -0.0953
13736TIP3    H162623   5.467   4.623  15.344 -0.2498  0.0747  0.0115
13736TIP3    H262624   5.548   4.500  15.380 -0.3275  0.1991  0.6097
13737TIP3   OH262625   6.200   5.588  14.808 -0.2505 -0.2221  0.6235
13737TIP3    H162626   6.115   5.629  14.788 -0.1046  0.2197  0.9115
13737TIP3    H262627   6.202   5.582  14.903  0.1865  0.0774  0.6353
13738TIP3   OH262628   1.986   5.545   0.058 -0.1227 -0.4073 -0.6261
13738TIP3    H162629   2.019   5.481   0.122 -0.9270 -0.5122 -0.3003
13738TIP3    H262630   1.968   5.493  -0.020  0.1843 -0.4031 -0.6995
13739TIP3   OH262631   4.676   5.314   5.898 -0.4883 -0.4401  0.2834
13739TIP3    H162632   4.696   5.260   5.974  0.0564 -1.7140 -0.7199
13739TIP3    H262633   4.698   5.403   5.925  1.1967 -1.0708  1.1153
13740TIP3   OH262634   1.534   2.242   3.550 -0.5293  0.9745 -0.1672
13740TIP3    H162635   1.473   2.288   3.608 -0.4937  1.0639 -0.2014
13740TIP3    H262636   1.585   2.311   3.509 -1.6155  1.0305 -1.5080
13741TIP3   OH262637   3.703   1.749  12.936  0.0643 -0.5365  0.1501
13741TIP3    H162638   3.770   1.817  12.936  1.2514 -1.6662  0.0958
13741TIP3    H262639   3.620   1.797  12.939  0.8545  0.9038 -0.0867
13742TIP3   OH262640   0.964   5.937  13.005 -0.1890  0.3107 -0.3291
13742TIP3    H162641   0.999   6.014  13.050 -1.0570  0.2906  0.3966
13742TIP3    H262642   0.874   5.930  13.035 -0.3786 -0.5035 -1.0405
13743TIP3   OH262643   3.035   2.041  13.980  0.0075 -0.5222  0.2351
13743TIP3    H162644   3.109   2.094  14.011  2.9998 -4.7032  1.0544
13743TIP3    H262645   3.075   1.970  13.931 -3.7502 -1.8054 -1.3523
13744TIP3   OH262646   4.754   1.988  13.797 -0.1074 -0.1248  0.2546
13744TIP3    H162647   4.719   1.972  13.884  0.4266 -0.5943  0.3933
13744TIP3    H262648   4.794   1.904  13.772  0.3002  0.1921 -0.1743
13745TIP3   OH262649   4.686   0.073   0.574  0.3073 -0.6574 -0.5129
13745TIP3    H162650   4.696   0.166   0.556 -1.0745 -0.1819  1.0001
13745TIP3    H262651   4.598   0.064   0.611  1.3652 -2.1265  1.9097
13746TIP3   OH262652   0.226   1.289   2.171  0.3885  0.2145  0.1027
13746TIP3    H162653   0.161   1.328   2.113  1.0071  0.5343 -0.3909
13746TIP3    H262654   0.225   1.345   2.249 -1.6410 -1.1707  1.1695
13747TIP3   OH262655   1.670   0.111  11.616 -0.2999  0.3667 -0.3412
13747TIP3    H162656   1.677   0.016  11.623  0.0722  0.3038 -1.4131
13747TIP3    H262657   1.609   0.125  11.543 -0.5957  0.9523  0.0107
13748TIP3   OH262658   3.640   1.921   0.000 -0.8687 -0.0328  0.0536
13748TIP3    H162659   3.666   1.865   0.073 -0.8445 -2.1263 -1.4741
13748TIP3    H262660   3.598   1.861  -0.062  0.3359  1.3808 -2.2666
13749TIP3   OH262661   3.616   6.181   5.126  0.5141 -0.2466 -0.4393
13749TIP3    H162662   3.603   6.276   5.129  2.1771  0.0125 -0.6296
13749TIP3    H262663   3.696   6.167   5.177 -0.0641 -1.6279  0.1210
13750TIP3   OH262664   4.828   1.229   5.558  0.2723 -0.3447  0.2252
13750TIP3    H162665   4.808   1.323   5.548  0.2624 -0.1950  1.4813
13750TIP3    H262666   4.831   1.216   5.653 -0.7101 -1.8270  0.0746
13751TIP3   OH262667   5.692   3.221   1.315  0.1092  0.2260  0.5541
13751TIP3    H162668   5.761   3.259   1.368  0.2228  0.4230  0.2665
13751TIP3    H262669   5.635   3.294   1.292 -0.7048 -0.0762  1.5380
13752TIP3   OH262670   2.175   3.685  11.299 -0.1454 -0.3042 -0.0879
13752TIP3    H162671   2.188   3.639  11.216 -1.1359 -0.1674 -0.3302
13752TIP3    H262672   2.104   3.636  11.342  0.2725 -0.2975  0.6159
13753TIP3   OH262673   1.862   0.985   5.545  0.2676 -0.0358  0.0415
13753TIP3    H162674   1.828   0.952   5.628 -1.1271 -0.9953 -0.8802
13753TIP3    H262675   1.795   1.047   5.515 -0.4883 -1.5660 -1.5560
13754TIP3   OH262676   0.559   4.223  16.026 -0.3586 -0.2892 -0.8061
13754TIP3    H162677   0.588   4.313  16.013 -2.6914  0.7780  0.8006
13754TIP3    H262678   0.497   4.207  15.955  0.1832 -0.7327 -1.1927
13755TIP3   OH262679   1.009   4.043   4.472 -0.0304  0.3115  0.1584
13755TIP3    H162680   1.015   4.124   4.422 -3.7861  0.8838  0.3281
13755TIP3    H262681   1.010   4.072   4.563  0.6696 -0.0814  0.2797
13756TIP3   OH262682   4.508   3.824   5.378  0.3666 -0.2309 -0.1833
13756TIP3    H162683   4.520   3.804   5.285  1.2206 -1.4781  0.1611
13756TIP3    H262684   4.415   3.842   5.388  0.3815  0.6164 -1.3958
13757TIP3   OH262685   0.083   5.092   6.111  0.2018  0.0242  0.5104
13757TIP3    H162686   0.137   5.020   6.077 -0.5848 -1.0943  1.5557
13757TIP3    H262687   0.081   5.078   6.205 -3.2147 -0.9702  0.4224
13758TIP3   OH262688   4.525   2.021   1.863  0.1086  0.0104  0.6395
13758TIP3    H162689   4.533   1.979   1.778 -0.6166  1.4805 -0.1848
13758TIP3    H262690   4.596   2.085   1.865  1.9220 -1.9001  2.3465
13759TIP3   OH262691   3.669   5.802  11.919  0.2550  0.2329 -0.3598
13759TIP3    H162692   3.734   5.752  11.869  1.8238  1.1495  0.6557
13759TIP3    H262693   3.647   5.876  11.862 -0.9932 -0.7983 -1.2756
13760TIP3   OH262694   2.908   6.648  15.211  0.2856  0.1175 -0.1043
13760TIP3    H162695   2.938   6.734  15.183  1.0018 -0.8072 -2.4895
13760TIP3    H262696   2.980   6.589  15.189 -1.0748 -1.3963 -0.7403
13761TIP3   OH262697   1.908   2.670  15.297  0.2579  0.4936 -0.2112
13761TIP3    H162698   1.980   2.606  15.291  4.0037  4.3370 -1.6086
13761TIP3    H262699   1.893   2.681  15.391  1.3290 -0.5904  0.1125
13762TIP3   OH262700   6.600   0.249  10.981 -0.3047 -0.1555  0.2308
13762TIP3    H162701   6.587   0.320  11.043 -0.6118 -0.4097  0.4638
13762TIP3    H262702   6.683   0.209  11.007  1.1049  1.5410 -1.3283
13763TIP3   OH262703   2.884   4.809  13.066 -0.0587  0.1104 -0.0573
13763TIP3    H162704   2.921   4.893  13.094  1.8396 -0.1083 -1.6783
13763TIP3    H262705   2.859   4.766  13.148 -0.8580  2.1115  0.8293
13764TIP3   OH262706   6.075   1.805  15.141  0.5182  0.6353 -0.5493
13764TIP3    H162707   6.028   1.848  15.212 -0.5334 -0.7949 -0.3219
13764TIP3    H262708   6.065   1.864  15.066  1.6759  2.1751  0.4538
13765TIP3   OH262709   5.180   0.007   1.462 -0.2978  0.3200 -0.6500
13765TIP3    H162710   5.268   0.026   1.495  0.2704  3.1517 -3.2565
13765TIP3    H262711   5.185  -0.083   1.430  1.9120  0.6167 -1.3142
13766TIP3   OH262712   1.451   2.619  16.227 -0.0217 -0.4070  0.1454
13766TIP3    H162713   1.357   2.610  16.238 -0.0511  1.3177  2.1108
13766TIP3    H262714   1.465   2.713  16.216  1.4534 -0.6602 -0.3905
13767TIP3   OH262715   1.260   5.426   4.663 -0.6712 -0.6223 -0.8800
13767TIP3    H162716   1.299   5.466   4.585 -1.0420 -1.2902 -1.4190
13767TIP3    H262717   1.325   5.363   4.693 -0.6168 -0.5171 -0.7779
13768TIP3   OH262718   1.799   2.108  15.410 -0.2042  0.0702  0.4554
13768TIP3    H162719   1.767   2.066  15.490 -0.1591  1.1025  1.0358
13768TIP3    H262720   1.748   2.189  15.404  0.9464  0.8115  0.3621
13769TIP3   OH262721   0.185   5.393   0.428 -0.2368  0.0499  0.2685
13769TIP3    H162722   0.271   5.429   0.406 -0.1519 -0.5139 -0.3520
13769TIP3    H262723   0.130   5.414   0.352 -0.7505  0.7034  0.8014
13770TIP3   OH262724   0.174   2.814   6.615  0.2901  0.0707  0.1634
13770TIP3    H162725   0.229   2.889   6.633 -0.5276  0.7790 -0.2186
13770TIP3    H262726   0.187   2.755   6.689 -0.2774  1.3018  1.2677
13771TIP3   OH262727   3.730   6.020   6.597 -0.2200  0.1123 -0.0383
13771TIP3    H162728   3.676   5.947   6.629 -1.7382  0.5032 -1.5800
13771TIP3    H262729   3.813   5.978   6.571  0.0031 -0.6084  1.6946
13772TIP3   OH262730   1.601   2.638   0.255 -0.0254  0.6918  0.0683
13772TIP3    H162731   1.585   2.558   0.204 -0.5234  0.9884 -0.2550
13772TIP3    H262732   1.693   2.659   0.238 -0.2207  0.8673 -0.8479
13773TIP3   OH262733   3.391   6.192  11.466 -0.2522 -0.2975  0.1069
13773TIP3    H162734   3.472   6.227  11.429 -2.2653  2.9467 -1.7950
13773TIP3    H262735   3.394   6.098  11.446  3.1525 -0.3983  0.5462
13774TIP3   OH262736   2.784   2.614  15.068 -0.1513  0.1654 -0.1094
13774TIP3    H162737   2.746   2.681  15.125 -0.5710 -1.2644  1.3624
13774TIP3    H262738   2.726   2.538  15.079 -1.2931  0.2876 -3.7887
13775TIP3   OH262739   0.331   0.017   0.815  0.1381  0.7285 -0.2555
13775TIP3    H162740   0.295  -0.068   0.792 -1.2296  1.3276 -0.4229
13775TIP3    H262741   0.344   0.013   0.910 -2.1587  1.1011  0.1318
13776TIP3   OH262742   5.139   1.550  13.383  0.1781  0.4952  0.0731
13776TIP3    H162743   5.182   1.635  13.375  0.9971  0.1464  0.5599
13776TIP3    H262744   5.101   1.551  13.471 -0.2879  0.5653 -0.1273
13777TIP3   OH262745   1.841   5.642  15.946  0.1187 -0.2526  0.4543
13777TIP3    H162746   1.802   5.726  15.971  0.0628 -0.4347  0.9868
13777TIP3    H262747   1.913   5.666  15.887  1.0923  0.2765  1.8085
13778TIP3   OH262748   2.481   4.501  15.375  0.3739  0.6514 -0.0817
13778TIP3    H162749   2.439   4.416  15.388 -0.2687  1.2375  1.9346
13778TIP3    H262750   2.416   4.565  15.402  0.5975  1.8800 -2.1972
13779TIP3   OH262751   2.158   1.917  11.889  0.2604 -0.0901  0.1669
13779TIP3    H162752   2.212   1.839  11.876  1.5928  0.8316 -0.0076
13779TIP3    H262753   2.118   1.903  11.975  2.2670  0.0179  1.1768
13780TIP3   OH262754   4.260   4.166  15.101 -0.1594  0.0048  0.9784
13780TIP3    H162755   4.280   4.114  15.023  1.3295  1.4609  0.3396
13780TIP3    H262756   4.188   4.118  15.143  0.8977 -2.3958  0.2727
13781TIP3   OH262757   0.521   3.174   5.558  0.6392 -0.4244 -0.5439
13781TIP3    H162758   0.489   3.167   5.647 -1.1056 -3.2829 -1.2855
13781TIP3    H262759   0.617   3.174   5.567  0.5267 -1.9197  1.2905
13782TIP3   OH262760   4.929   6.553  11.659  0.7323  0.3542 -0.6188
13782TIP3    H162761   4.868   6.603  11.605  1.7821  1.9906 -0.3619
13782TIP3    H262762   4.875   6.516  11.729  0.1314  2.6753  0.2420
13783TIP3   OH262763   6.154   3.518   1.761 -0.0560  0.2395 -0.2842
13783TIP3    H162764   6.126   3.605   1.788 -0.2680  0.4376 -1.1230
13783TIP3    H262765   6.204   3.485   1.836  0.2049  1.1611 -0.0388
13784TIP3   OH262766   2.587   6.701  13.735  0.0774  0.8377  0.2191
13784TIP3    H162767   2.541   6.783  13.719  0.5901  1.1314  0.2248
13784TIP3    H262768   2.527   6.650  13.789 -0.9648  0.5068 -1.1998
13785TIP3   OH262769   1.456   2.847   4.008  0.0220  0.3219  0.4454
13785TIP3    H162770   1.501   2.769   3.977  0.6832  1.8396 -2.7638
13785TIP3    H262771   1.367   2.840   3.972 -0.6625  0.0304  2.0759
13786TIP3   OH262772   3.084   2.250  15.826  0.4625  0.5738  0.2356
13786TIP3    H162773   3.123   2.165  15.806 -1.6566 -0.6229  0.9051
13786TIP3    H262774   3.031   2.271  15.750 -0.5617  0.3179  0.8601
13787TIP3   OH262775   4.003   0.065  16.908  1.0270 -0.3595  0.1621
13787TIP3    H162776   4.067   0.110  16.964  0.4284  1.0536 -0.2350
13787TIP3    H262777   3.931   0.127  16.900 -0.2194 -1.7444  0.2391
13788TIP3   OH262778   0.865   0.573  14.182  0.0315  0.1987  0.5571
13788TIP3    H162779   0.775   0.597  14.160 -0.1275 -0.3222  0.6218
13788TIP3    H262780   0.919   0.637  14.136 -0.3163 -0.4112 -0.7351
13789TIP3   OH262781   6.095   6.526   0.693  0.1313 -0.0168 -0.7983
13789TIP3    H162782   6.108   6.573   0.775 -1.7686 -1.6091  0.4958
13789TIP3    H262783   6.046   6.586   0.638  0.3748  0.6203 -0.3349
13790TIP3   OH262784   4.377   5.121  12.029  0.2048  0.1050 -0.1949
13790TIP3    H162785   4.354   5.191  11.968 -1.4882 -0.8408 -0.7043
13790TIP3    H262786   4.418   5.054  11.974  0.8027  0.2285  0.1005
13791TIP3   OH262787   2.047   6.642  14.125  0.0994  0.6389  0.2661
13791TIP3    H162788   2.016   6.719  14.077  0.3279  0.3908 -0.2965
13791TIP3    H262789   1.969   6.605  14.166 -0.3273  0.1577 -0.9303
13792TIP3   OH262790   3.440   6.698   1.552 -0.0932  0.0820  0.1438
13792TIP3    H162791   3.391   6.699   1.470  0.9133 -1.4577 -0.5168
13792TIP3    H262792   3.522   6.653   1.531  0.8750  1.0494  1.6269
13793TIP3   OH262793   2.165   0.162   1.778 -0.1919  0.2203  0.4203
13793TIP3    H162794   2.242   0.105   1.779  1.0956  1.8778  0.2588
13793TIP3    H262795   2.155   0.188   1.687 -0.4997  0.5992  0.5590
13794TIP3   OH262796   1.683   2.974   2.963  0.1259  0.1031  0.7031
13794TIP3    H162797   1.744   3.044   2.940 -1.6635  1.6667  0.4643
13794TIP3    H262798   1.698   2.959   3.057  0.8247  0.4972  0.6605
13795TIP3   OH262799   0.941   0.969  12.166 -0.1219 -0.1242  0.5346
13795TIP3    H162800   0.901   1.008  12.245  1.7113  0.2292  1.3342
13795TIP3    H262801   0.942   0.875  12.183  3.3017  0.1139  2.5657
13796TIP3   OH262802   5.919   3.137   0.006  0.3138 -0.6370  0.0821
13796TIP3    H162803   5.842   3.136   0.063  1.1104 -1.6716  1.1743
13796TIP3    H262804   5.883   3.149  -0.082 -0.8994  1.8045  0.8173
13797TIP3   OH262805   1.863   1.383  13.291  0.0743 -0.5016  0.3276
13797TIP3    H162806   1.786   1.414  13.338  1.0389  0.8420  1.0872
13797TIP3    H262807   1.915   1.338  13.358 -0.4293 -2.2008 -0.3662
13798TIP3   OH262808   6.538   2.774   3.155  0.0487 -0.3447  0.5545
13798TIP3    H162809   6.499   2.775   3.242  1.2713 -0.6211  1.1227
13798TIP3    H262810   6.622   2.730   3.166  0.0026 -0.8515 -0.8683
13799TIP3   OH262811   1.676   1.745  11.836  0.1163  0.0256 -0.4266
13799TIP3    H162812   1.767   1.733  11.863 -0.3122  0.7911  1.5543
13799TIP3    H262813   1.665   1.840  11.830 -0.6909 -0.0386 -0.1260
13800TIP3   OH262814   5.411   6.670   3.990  0.6800  0.9899 -0.1876
13800TIP3    H162815   5.372   6.692   4.075 -0.3627  0.8909 -0.6386
13800TIP3    H262816   5.380   6.738   3.931  0.9501  0.7388 -0.6241
13801TIP3   OH262817   0.406   5.858  10.485 -0.1318 -0.8906  0.1920
13801TIP3    H162818   0.374   5.947  10.473 -1.6558 -1.2637  1.1573
13801TIP3    H262819   0.447   5.858  10.571  0.7703 -0.8917 -0.2315
13802TIP3   OH262820   0.377   2.535   4.629 -0.1555  0.0809 -0.2894
13802TIP3    H162821   0.337   2.496   4.551 -1.0721  1.7703 -0.7166
13802TIP3    H262822   0.303   2.573   4.677  0.7552  2.0552 -0.3658
13803TIP3   OH262823   0.202   2.180   1.251 -0.3561 -0.2235  0.0396
13803TIP3    H162824   0.207   2.116   1.180 -2.4864 -2.2410  1.5685
13803TIP3    H262825   0.182   2.263   1.206 -1.9105 -1.4721 -1.7422
13804TIP3   OH262826   0.102   4.262  15.930 -0.4049 -0.2289  0.1734
13804TIP3    H162827   0.062   4.216  15.857  0.0737 -2.9690  1.5280
13804TIP3    H262828   0.065   4.221  16.008 -1.2217  2.8676  1.5819
13805TIP3   OH262829   5.358   3.535   2.543  0.4215 -0.0632  0.0987
13805TIP3    H162830   5.418   3.568   2.477  1.7350  0.9643  1.7355
13805TIP3    H262831   5.271   3.550   2.506  1.1035 -0.4142 -1.7753
13806TIP3   OH262832   5.646   0.037   0.150 -0.3434 -1.0340  0.0165
13806TIP3    H162833   5.693   0.033   0.067  0.4665 -0.2260  0.4150
13806TIP3    H262834   5.710   0.010   0.216 -1.1049 -2.0959  0.3435
13807TIP3   OH262835   0.576   1.637  16.249 -0.0672 -0.2698 -0.4618
13807TIP3    H162836   0.641   1.685  16.197 -0.3815 -0.0703 -0.6726
13807TIP3    H262837   0.581   1.547  16.216  2.6824 -1.1636  1.9663
13808TIP3   OH262838   1.895   6.641   5.102 -0.7679  0.5310  0.2097
13808TIP3    H162839   1.904   6.730   5.066 -0.3802  0.5264  0.2888
13808TIP3    H262840   1.870   6.655   5.193  0.3333  0.5813  0.5133
13809TIP3   OH262841   3.416   0.071  16.816 -0.3522  0.0467  0.1573
13809TIP3    H162842   3.473   0.046  16.889 -0.5843  0.1562  0.3751
13809TIP3    H262843   3.331   0.087  16.856  0.1174  2.7205  0.3031
13810TIP3   OH262844   1.338   0.697  11.916  0.3314 -0.2173 -0.0086
13810TIP3    H162845   1.399   0.636  11.876 -0.1262 -2.3267  2.2745
13810TIP3    H262846   1.378   0.721  11.999 -0.1906  1.4650 -0.2056
13811TIP3   OH262847   5.228   5.562   3.111  0.3060 -0.4058 -0.0669
13811TIP3    H162848   5.183   5.538   3.031  1.1787  0.8445 -0.9836
13811TIP3    H262849   5.163   5.552   3.180 -0.7938 -0.4577 -1.0877
13812TIP3   OH262850   2.422   6.458  16.571 -0.7374  0.1293 -0.0689
13812TIP3    H162851   2.389   6.523  16.509 -1.7175  1.8145  2.0711
13812TIP3    H262852   2.492   6.502  16.618 -0.0178 -1.0951  0.0533
13813TIP3   OH262853   1.510   5.347  16.629  0.0114 -0.4760  0.4127
13813TIP3    H162854   1.515   5.428  16.578  1.1135  0.8035  2.4097
13813TIP3    H262855   1.543   5.279  16.570 -0.2912  0.6398 -1.0856
13814TIP3   OH262856   1.540   5.782   4.526 -0.2525 -0.3042 -0.3633
13814TIP3    H162857   1.493   5.797   4.608 -0.0644 -0.2164 -0.2707
13814TIP3    H262858   1.481   5.727   4.474 -0.7161  0.3026 -0.4902
13815TIP3   OH262859   1.259   4.014   3.355  0.8567 -0.0629 -0.0449
13815TIP3    H162860   1.212   3.942   3.397  0.8668  0.2658  0.5437
13815TIP3    H262861   1.255   3.994   3.261  0.7823 -0.7814  0.1029
13816TIP3   OH262862   4.955   4.088  15.043 -0.3202  0.0753 -0.3821
13816TIP3    H162863   4.863   4.073  15.064 -0.1610 -0.6348 -0.1690
13816TIP3    H262864   4.956   4.099  14.948 -0.5066 -0.9470 -0.5161
13817TIP3   OH262865   5.381   2.603  12.136 -0.6024  0.0206 -0.1382
13817TIP3    H162866   5.369   2.580  12.228  1.0117 -1.4459 -0.2243
13817TIP3    H262867   5.439   2.679  12.137 -0.9511  0.2873  0.0478
13818TIP3   OH262868   4.820   3.384   5.805 -0.6123  0.2243 -0.1077
13818TIP3    H162869   4.753   3.364   5.870 -0.0173 -0.9338  0.1656
13818TIP3    H262870   4.862   3.300   5.787  1.3280  1.0437  0.3392
13819TIP3   OH262871   3.783   2.312   0.605 -0.7242 -0.0368 -0.0177
13819TIP3    H162872   3.802   2.405   0.615 -1.4560  0.2185 -0.9866
13819TIP3    H262873   3.763   2.300   0.512 -0.5940 -1.1706  0.0787
13820TIP3   OH262874   5.905   5.363  12.305 -0.1091  0.0254  0.2017
13820TIP3    H162875   5.929   5.442  12.353  1.4310 -0.3136  0.0376
13820TIP3    H262876   5.943   5.291  12.356  1.5239 -0.3432 -1.4282
13821TIP3   OH262877   0.418   4.685   0.323 -0.3032 -0.1886 -0.0025
13821TIP3    H162878   0.353   4.716   0.387  1.4299 -1.1219  2.3964
13821TIP3    H262879   0.502   4.698   0.368  0.8279 -3.5166 -0.9120
13822TIP3   OH262880   2.377   5.630   5.732  0.3280  0.3666 -0.0027
13822TIP3    H162881   2.327   5.642   5.813  0.9825 -0.5195  0.5465
13822TIP3    H262882   2.391   5.536   5.726  0.7670  0.4776 -0.8654
13823TIP3   OH262883   2.872   0.336  11.793 -0.1858  0.1571  0.0686
13823TIP3    H162884   2.822   0.256  11.780 -1.2848  0.9016 -0.4039
13823TIP3    H262885   2.857   0.359  11.885  0.2236 -0.2246  0.2361
13824TIP3   OH262886   6.432   1.878  17.104  0.0997  0.0579  0.1438
13824TIP3    H162887   6.396   1.831  17.179  0.6810  0.1232  0.4680
13824TIP3    H262888   6.512   1.830  17.081 -1.2404 -1.3366 -1.8793
13825TIP3   OH262889   6.769   5.823   0.988  0.0474  0.2492  0.3898
13825TIP3    H162890   6.780   5.801   0.895 -1.1146 -0.7233  0.4586
13825TIP3    H262891   6.772   5.919   0.990  0.3489  0.2763 -0.6091
13826TIP3   OH262892   4.889   1.755  16.749  0.8492  0.1378 -0.0205
13826TIP3    H162893   4.848   1.726  16.830  0.6889  1.4648  0.3931
13826TIP3    H262894   4.893   1.677  16.694  0.0333 -0.5468  0.8783
13827TIP3   OH262895   5.306   3.275   5.214  0.8655 -0.1146  0.2675
13827TIP3    H162896   5.262   3.322   5.143  0.2688 -0.4817  0.3856
13827TIP3    H262897   5.247   3.203   5.235  2.0791 -1.3781 -0.4112
13828TIP3   OH262898   1.907   1.892  12.459  0.5293  0.1003  0.3128
13828TIP3    H162899   1.861   1.973  12.482 -0.0128  0.1312 -0.8169
13828TIP3    H262900   1.915   1.845  12.542 -1.0273  0.3551  0.6444
13829TIP3   OH262901   2.944   5.021   0.083 -0.0789 -0.4955 -0.3266
13829TIP3    H162902   2.922   4.952   0.020  0.4830 -0.7345 -0.2738
13829TIP3    H262903   3.022   4.988   0.127 -0.2543 -0.1651  0.2417
13830TIP3   OH262904   5.381   0.563  13.516  0.7344  0.2597  0.5181
13830TIP3    H162905   5.455   0.623  13.527  0.1088  0.8380  1.8768
13830TIP3    H262906   5.381   0.510  13.596  0.3569 -0.5155  0.0202
13831TIP3   OH262907   2.988   5.287  10.323  0.8395  0.2140 -0.1292
13831TIP3    H162908   3.037   5.366  10.299  1.5262 -0.3108 -0.4798
13831TIP3    H262909   3.052   5.216  10.317 -0.0986 -0.5776 -1.2110
13832TIP3   OH262910   1.022   1.189   0.058  0.3246 -0.6648  0.0537
13832TIP3    H162911   1.092   1.180  -0.006  1.1647 -2.7731  1.1615
13832TIP3    H262912   0.953   1.130   0.028 -0.4090  0.3318 -0.2775
13833TIP3   OH262913   2.940   2.482   3.144 -0.1820 -0.4212 -0.0671
13833TIP3    H162914   2.912   2.540   3.215  0.4958 -0.9391  0.6365
13833TIP3    H262915   2.969   2.542   3.075 -0.0237  0.0866  0.4267
13834TIP3   OH262916   2.998   3.750  15.160 -0.6600  0.0990  0.0000
13834TIP3    H162917   2.963   3.837  15.138 -0.8447  0.5394  1.9042
13834TIP3    H262918   2.922   3.703  15.194 -0.3887 -0.5644 -0.3095
13835TIP3   OH262919   4.928   1.838   5.063  0.6160  0.0643  0.1812
13835TIP3    H162920   4.981   1.764   5.093  2.5023  0.0983 -2.6414
13835TIP3    H262921   4.840   1.802   5.053  1.3911 -1.7598 -0.6803
13836TIP3   OH262922   1.494   2.102  10.320 -0.2826 -0.6205 -0.4813
13836TIP3    H162923   1.545   2.100  10.239 -0.6178 -0.6716 -0.6931
13836TIP3    H262924   1.461   2.012  10.329 -0.6546 -0.4913 -0.5519
13837TIP3   OH262925   1.710   5.608  12.243 -0.6354  0.2360  0.5221
13837TIP3    H162926   1.804   5.597  12.261 -0.4572 -1.2119 -0.9566
13837TIP3    H262927   1.667   5.542  12.298 -0.5077 -0.9326 -0.7199
13838TIP3   OH262928   0.408   1.214   3.094  0.5675 -0.0557 -0.4463
13838TIP3    H162929   0.459   1.147   3.050 -0.7543 -0.5343 -1.2871
13838TIP3    H262930   0.341   1.239   3.031  0.1768  1.0509  0.3758
13839TIP3   OH262931   3.131   0.355  15.371  0.0031  0.2161 -0.6370
13839TIP3    H162932   3.059   0.408  15.336  0.6874  1.5502 -0.0923
13839TIP3    H262933   3.204   0.372  15.312  0.4340  0.4789 -0.0455
13840TIP3   OH262934   5.478   4.705   1.658 -0.3078 -0.3728 -1.0661
13840TIP3    H162935   5.395   4.664   1.635  0.4859 -1.9995 -1.2012
13840TIP3    H262936   5.478   4.710   1.753 -0.9687  0.5729 -1.1050
13841TIP3   OH262937   0.951   2.262  10.712  0.3453 -0.2388 -0.2100
13841TIP3    H162938   1.013   2.324  10.750 -0.9351  0.7446  0.3310
13841TIP3    H262939   0.867   2.308  10.712 -0.5159 -1.7460 -0.3889
13842TIP3   OH262940   5.212   5.132  15.453  0.1894  0.2339  0.0759
13842TIP3    H162941   5.303   5.161  15.451  0.5208 -0.7112  0.8571
13842TIP3    H262942   5.184   5.146  15.543  0.0789 -0.9719  0.2428
13843TIP3   OH262943   5.999   5.360  16.229  0.0349  0.3496  0.2205
13843TIP3    H162944   6.053   5.293  16.188 -1.4593 -1.5218  1.1240
13843TIP3    H262945   6.051   5.392  16.302 -0.3233 -2.1437  1.7013
13844TIP3   OH262946   3.859   0.456   5.834  0.4078  0.1689 -0.1790
13844TIP3    H162947   3.816   0.493   5.911  1.1070 -0.3983  0.5102
13844TIP3    H262948   3.788   0.430   5.776 -0.1316  0.5049  0.3276
13845TIP3   OH262949   2.898   5.100  12.168 -0.0564  0.4595  0.3834
13845TIP3    H162950   2.958   5.156  12.119 -1.4759  4.7467  2.9226
13845TIP3    H262951   2.939   5.014  12.169  2.7383  1.5274 -3.2906
13846TIP3   OH262952   2.723   2.424  15.388  0.1286  0.0810 -0.1623
13846TIP3    H162953   2.692   2.354  15.329  0.4523  0.3993 -0.7198
13846TIP3    H262954   2.652   2.489  15.386  0.4953  0.4726 -0.8626
13847TIP3   OH262955   4.654   4.368  11.259  0.2805 -0.3489  0.2384
13847TIP3    H162956   4.593   4.295  11.273 -3.7662  2.3624 -1.6738
13847TIP3    H262957   4.705   4.342  11.183 -0.7582 -1.3758 -0.1358
13848TIP3   OH262958   2.134   3.420   3.820  0.1931 -0.1664  0.1752
13848TIP3    H162959   2.086   3.476   3.882  0.1543 -0.0756  0.0621
13848TIP3    H262960   2.225   3.424   3.851 -0.0386 -1.2360  1.0724
13849TIP3   OH262961   0.737   2.637  14.863  0.1114 -0.1780  0.2525
13849TIP3    H162962   0.739   2.592  14.779  0.3830 -0.0053  0.1648
13849TIP3    H262963   0.649   2.674  14.868  0.1840  0.0434 -0.0818
13850TIP3   OH262964   3.048   5.389  13.550  0.3715  0.3373 -0.4753
13850TIP3    H162965   3.100   5.421  13.477  0.6512 -0.3406 -0.5798
13850TIP3    H262966   3.092   5.309  13.578  0.1317  0.4619  0.2840
13851TIP3   OH262967   4.249   2.263   0.466 -0.2944  0.3969 -0.2861
13851TIP3    H162968   4.227   2.328   0.533 -0.5357 -0.4002  0.4358
13851TIP3    H262969   4.167   2.248   0.420 -0.8010 -0.9320  0.9478
13852TIP3   OH262970   0.848   0.373  11.318  0.5390  0.1541  0.4496
13852TIP3    H162971   0.845   0.371  11.414  0.5578 -1.4942  0.4442
13852TIP3    H262972   0.940   0.389  11.298  0.7992 -0.8800  0.7333
13853TIP3   OH262973   6.566   5.526   4.486 -0.2327 -0.3181  0.5280
13853TIP3    H162974   6.526   5.456   4.435 -1.2946 -0.6403  1.7554
13853TIP3    H262975   6.647   5.488   4.521 -1.4476 -1.4308  2.2823
13854TIP3   OH262976   1.181   1.997   1.319 -0.3046 -0.1804  0.9632
13854TIP3    H162977   1.138   2.077   1.350 -0.0644 -0.5094  2.1776
13854TIP3    H262978   1.134   1.926   1.362  1.0195 -0.5756  1.8170
13855TIP3   OH262979   0.443   0.256   6.627 -0.2037  0.7286  0.2927
13855TIP3    H162980   0.359   0.301   6.635 -0.2464  0.4890  1.4201
13855TIP3    H262981   0.429   0.171   6.668  0.3728  0.3694 -0.2254
13856TIP3   OH262982   1.995   4.387  14.494  0.3002  0.4988  0.1827
13856TIP3    H162983   1.967   4.334  14.419 -0.4215  2.1095 -0.7655
13856TIP3    H262984   2.083   4.415  14.472  0.2960  0.5188  0.1912
13857TIP3   OH262985   4.949   5.281  11.738 -0.5634  0.0863 -1.0277
13857TIP3    H162986   4.954   5.186  11.731 -0.2487  0.1019 -1.0325
13857TIP3    H262987   4.926   5.311  11.650 -0.2496  0.0410 -1.1271
13858TIP3   OH262988   6.170   2.199  15.847  0.1664 -0.4040 -0.2721
13858TIP3    H162989   6.254   2.168  15.881  0.4586  2.0733  1.5301
13858TIP3    H262990   6.117   2.120  15.837  0.9998 -1.6165  3.4613
13859TIP3   OH262991   2.496   6.042  16.305  0.0220  0.1546 -0.2554
13859TIP3    H162992   2.506   5.950  16.328  0.2963  0.3723  0.5174
13859TIP3    H262993   2.566   6.059  16.243  1.0712  0.2727  0.9279
13860TIP3   OH262994   0.448   1.359  17.104  0.1989  0.5712 -0.0599
13860TIP3    H162995   0.535   1.326  17.130 -0.0339 -0.7901 -0.8896
13860TIP3    H262996   0.438   1.330  17.013 -1.2865  0.3440  0.1476
13861TIP3   OH262997   5.846   2.270   1.126 -0.5044 -0.0710 -0.0071
13861TIP3    H162998   5.770   2.212   1.120 -0.5875  0.1451 -1.6602
13861TIP3    H262999   5.920   2.215   1.103 -0.2885 -0.0498  0.6344
13862TIP3   OH263000   3.952   3.264   0.105 -0.3131 -0.5072  0.6606
13862TIP3    H163001   4.031   3.318   0.098  0.3345 -1.4373  0.6622
13862TIP3    H263002   3.880   3.326   0.098  0.4158  0.2958  0.1464
13863TIP3   OH263003   5.144   4.177   5.943 -0.1779 -0.1237  0.3157
13863TIP3    H163004   5.138   4.220   6.027  0.8330  0.0003  0.3375
13863TIP3    H263005   5.056   4.183   5.906 -0.5755  0.0135  1.2550
13864TIP3   OH263006   1.449   1.831  12.818  0.3589  0.0471 -0.0156
13864TIP3    H163007   1.415   1.780  12.744  0.1928  0.0110  0.0870
13864TIP3    H263008   1.399   1.801  12.894  0.5934  0.0180  0.1292
13865TIP3   OH263009   6.475   0.761   1.262 -0.6380 -0.4734  0.2652
13865TIP3    H163010   6.569   0.762   1.279 -0.5147 -0.3218 -0.4130
13865TIP3    H263011   6.439   0.823   1.326 -0.4920 -1.7590  1.6539
13866TIP3   OH263012   0.559   0.385   2.306  0.1737 -0.3528  0.7006
13866TIP3    H163013   0.650   0.360   2.324  0.2197  0.8019  2.3036
13866TIP3    H263014   0.539   0.451   2.373 -2.4106 -1.8378  1.5087
13867TIP3   OH263015   1.421   4.867   1.816 -0.1527  0.3149 -0.2771
13867TIP3    H163016   1.346   4.877   1.874 -0.8004 -0.4110 -0.9750
13867TIP3    H263017   1.478   4.805   1.861 -0.1700  0.5277  0.0442
13868TIP3   OH263018   5.280   3.860  12.274  0.0053  0.0425 -0.0241
13868TIP3    H163019   5.312   3.911  12.348 -0.6826  1.0009 -0.3547
13868TIP3    H263020   5.323   3.899  12.198 -0.9097  0.4824 -0.3319
13869TIP3   OH263021   4.603   3.714   1.866 -0.1544 -0.4581  0.1492
13869TIP3    H163022   4.650   3.663   1.932 -2.2350 -2.1161  0.4542
13869TIP3    H263023   4.613   3.663   1.785 -1.6366 -1.0396  0.2966
13870TIP3   OH263024   1.043   2.263   1.107  0.2123 -0.5673 -0.2522
13870TIP3    H163025   1.001   2.178   1.110  0.7841 -0.8273  2.1247
13870TIP3    H263026   1.015   2.307   1.187 -0.5178  1.7452 -1.6695
13871TIP3   OH263027   3.307   0.959   1.712  0.9365  0.9997  0.0343
13871TIP3    H163028   3.250   0.882   1.713  0.2897  1.4529 -0.7970
13871TIP3    H263029   3.311   0.986   1.804  0.2860  0.6235  0.1828
13872TIP3   OH263030   5.917   3.382   3.363  0.3690 -0.1133  0.2591
13872TIP3    H163031   5.972   3.304   3.371  0.7259 -0.0186 -1.0686
13872TIP3    H263032   5.974   3.455   3.386  0.4151 -0.1298  0.1966
13873TIP3   OH263033   1.017   2.209  15.213 -0.5144 -0.3131 -0.3926
13873TIP3    H163034   1.092   2.154  15.233 -1.1389 -0.5427  1.4777
13873TIP3    H263035   1.053   2.296  15.200  0.3273 -0.8580 -2.0758
13874TIP3   OH263036   2.251   4.779   3.880  0.1379  0.8266  0.4945
13874TIP3    H163037   2.299   4.842   3.827 -1.5378  0.4148 -1.6642
13874TIP3    H263038   2.238   4.704   3.822 -2.1090  0.4859  1.3261
13875TIP3   OH263039   4.078   4.261  16.878  0.6102 -0.3650 -0.0259
13875TIP3    H163040   4.018   4.192  16.848  1.6314 -2.0284  1.5308
13875TIP3    H263041   4.163   4.233  16.844  0.5973  2.0707 -2.3860
13876TIP3   OH263042   3.762   4.463  17.068 -0.5273 -0.7520  0.5343
13876TIP3    H163043   3.842   4.515  17.060 -0.2796 -1.0222  1.2448
13876TIP3    H263044   3.773   4.392  17.005  0.1078 -1.1902  1.1245
13877TIP3   OH263045   1.999   6.026   0.058 -0.3132 -0.4197 -0.1619
13877TIP3    H163046   2.026   6.067   0.141 -0.5869  0.6047 -0.5579
13877TIP3    H263047   2.054   6.069  -0.008 -2.4683  1.3482 -0.9255
13878TIP3   OH263048   4.006   1.785  16.894  0.0283 -0.1131 -0.3213
13878TIP3    H163049   4.030   1.864  16.844  0.2986  0.2065  0.2982
13878TIP3    H263050   4.052   1.714  16.849  1.4596  0.3713  0.3222
13879TIP3   OH263051   2.817   0.233   3.334  0.0983 -0.0657 -0.1305
13879TIP3    H163052   2.908   0.264   3.343  0.0915  0.5034 -1.7004
13879TIP3    H263053   2.764   0.305   3.367  0.1976 -0.2716  0.4932
13880TIP3   OH263054   0.759   6.370   3.970 -0.2107  0.6371  0.5209
13880TIP3    H163055   0.683   6.407   4.014  0.3769  4.7069 -1.3709
13880TIP3    H263056   0.724   6.330   3.890 -0.5181  0.9047  0.5208
13881TIP3   OH263057   3.866   3.265   4.182  0.1448 -0.5704 -0.2735
13881TIP3    H163058   3.816   3.184   4.192  0.1738 -0.5217  0.2563
13881TIP3    H263059   3.807   3.324   4.136 -1.0209  0.1352  1.9919
13882TIP3   OH263060   3.385   4.596  13.318  0.1488  0.1977 -0.3750
13882TIP3    H163061   3.348   4.633  13.237  0.5994  0.2409 -0.5647
13882TIP3    H263062   3.336   4.638  13.388  2.3406  3.1729 -0.4531
13883TIP3   OH263063   4.866   4.960   4.404  0.0336  0.3327  0.7070
13883TIP3    H163064   4.864   4.871   4.368 -1.7840  0.8270 -0.5626
13883TIP3    H263065   4.846   4.949   4.497  0.3432 -0.6162  0.6719
13884TIP3   OH263066   0.655   0.270   2.912  0.3957  0.2463 -0.4911
13884TIP3    H163067   0.656   0.198   2.976  0.2135  0.6126 -0.0681
13884TIP3    H263068   0.711   0.239   2.841  0.1738 -0.3894 -0.4004
13885TIP3   OH263069   4.696   3.266  11.739  0.7800 -0.0924 -0.0722
13885TIP3    H163070   4.663   3.209  11.808  0.6311  0.9834  0.7708
13885TIP3    H263071   4.645   3.347  11.748 -2.0427 -1.1393 -3.8458
13886TIP3   OH263072   5.051   4.263   0.674 -1.2426  0.0894 -0.1149
13886TIP3    H163073   5.068   4.183   0.724 -1.3341  2.3241  3.9417
13886TIP3    H263074   5.022   4.326   0.740  0.0594  3.8792 -2.8371
13887TIP3   OH263075   2.557   4.600  11.284  0.1517  0.2581 -0.4685
13887TIP3    H163076   2.578   4.665  11.217  1.1298 -1.2433 -1.6884
13887TIP3    H263077   2.635   4.599  11.340  0.0545  0.2686 -0.3333
13888TIP3   OH263078   4.473   1.287   1.352 -0.0484  0.4740 -0.1595
13888TIP3    H163079   4.391   1.239   1.343 -0.1679  0.7270 -0.4229
13888TIP3    H263080   4.449   1.368   1.398 -0.3748  1.6497 -2.2873
13889TIP3   OH263081   2.660   0.233   4.226 -0.6807  0.0655 -0.4084
13889TIP3    H163082   2.622   0.292   4.161 -1.1107 -1.5731 -1.7103
13889TIP3    H263083   2.659   0.283   4.307 -1.3212  1.7172 -1.3872
13890TIP3   OH263084   6.307   0.043  15.211  0.3270 -0.5701 -0.6908
13890TIP3    H163085   6.386   0.068  15.258 -1.2117  0.0825  1.7563
13890TIP3    H263086   6.301   0.105  15.138  0.9449  0.8424  0.4080
13891TIP3   OH263087   6.709   4.439  13.991 -0.0624 -0.5601 -0.7067
13891TIP3    H163088   6.699   4.398  14.077 -1.1425 -0.8359 -0.9481
13891TIP3    H263089   6.701   4.367  13.928 -0.6998 -0.1793 -1.0815
13892TIP3   OH263090   2.876   6.442  14.021 -0.1878  0.5535 -0.0224
13892TIP3    H163091   2.966   6.470  14.004 -0.3821  0.8000 -0.7131
13892TIP3    H263092   2.871   6.429  14.115  0.7386 -0.0386 -0.0504
13893TIP3   OH263093   5.298   0.797  16.767 -0.4308 -0.5085 -0.0890
13893TIP3    H163094   5.347   0.838  16.696  0.1827 -0.2361  0.4826
13893TIP3    H263095   5.222   0.759  16.724 -1.1999  1.4784 -0.6146
13894TIP3   OH263096   1.628   0.287   6.116  0.1006  0.1118  0.6139
13894TIP3    H163097   1.596   0.197   6.119  0.3893  0.0150  0.9148
13894TIP3    H263098   1.674   0.294   6.033  0.2789 -0.0928  0.6937
13895TIP3   OH263099   0.238   5.717   5.093 -0.6586  0.2466 -0.1005
13895TIP3    H163100   0.289   5.768   5.156 -1.3539 -0.0439  0.7123
13895TIP3    H263101   0.283   5.731   5.009  1.4448 -0.9601  0.7702
13896TIP3   OH263102   5.771   4.375  12.234 -0.6268  0.4971 -0.5553
13896TIP3    H163103   5.803   4.291  12.269 -4.0728 -0.8743 -0.2861
13896TIP3    H263104   5.797   4.374  12.142  1.8336  0.5502  0.0611
13897TIP3   OH263105   3.184   4.669  14.347  0.2207 -0.6342  0.2878
13897TIP3    H163106   3.158   4.742  14.402 -1.4642 -1.2094  0.3262
13897TIP3    H263107   3.144   4.688  14.262 -0.1342 -1.4261  0.2641
13898TIP3   OH263108   4.893   1.757   3.467 -0.1195  0.0874  0.4638
13898TIP3    H163109   4.800   1.749   3.486 -0.5378  0.5873 -1.1949
13898TIP3    H263110   4.923   1.666   3.456 -0.8787 -0.0183 -0.9358
13899TIP3   OH263111   6.665   3.534  13.970  0.0818  0.1926  0.6923
13899TIP3    H163112   6.739   3.511  14.027 -0.1790  0.1914  1.0346
13899TIP3    H263113   6.652   3.457  13.915  0.5884  0.3421  0.3557
13900TIP3   OH263114   4.783   5.091  14.928 -0.4146  0.5018 -0.5425
13900TIP3    H163115   4.820   5.163  14.978  0.6299  1.1150 -2.1432
13900TIP3    H263116   4.701   5.125  14.892 -0.6869  0.3718 -0.0575
13901TIP3   OH263117   6.379   2.967   3.810  0.0798 -0.1707 -0.0138
13901TIP3    H163118   6.310   2.933   3.867 -1.2656 -0.3761 -1.6735
13901TIP3    H263119   6.337   3.037   3.760  0.3106 -1.8371 -2.7544
13902TIP3   OH263120   4.303   4.099   5.483 -1.0183 -0.1704 -0.6794
13902TIP3    H163121   4.268   4.014   5.457  0.3745 -0.4770 -1.6678
13902TIP3    H263122   4.335   4.138   5.402  0.3295  0.3392  0.0568
13903TIP3   OH263123   5.422   6.040   5.039 -0.0787  0.2898  0.4749
13903TIP3    H163124   5.512   6.074   5.038  0.4267 -0.7825  2.6974
13903TIP3    H263125   5.376   6.096   5.100  0.1216 -1.3541  2.2471
13904TIP3   OH263126   2.520   0.779  14.962  0.1693 -0.6431  0.5620
13904TIP3    H163127   2.489   0.755  14.874  0.1489  0.0853  0.3644
13904TIP3    H263128   2.526   0.874  14.960  0.3392 -0.6339  1.3009
13905TIP3   OH263129   0.502   0.860   2.448  0.2979 -0.4006 -0.2523
13905TIP3    H163130   0.560   0.929   2.415  0.2202 -0.0801  0.2751
13905TIP3    H263131   0.434   0.907   2.497  2.7753 -0.9668  4.2753
13906TIP3   OH263132   0.463   0.919   2.990  0.1550 -0.4205  0.0185
13906TIP3    H163133   0.436   0.895   3.079 -0.2418 -0.2791 -0.0611
13906TIP3    H263134   0.386   0.902   2.936  0.2794 -0.1722 -0.2414
13907TIP3   OH263135   3.311   4.277  16.443 -0.1654  0.3692  0.1733
13907TIP3    H163136   3.388   4.333  16.445  0.5208 -0.4059 -1.9012
13907TIP3    H263137   3.239   4.333  16.472  0.4549  2.4148 -1.9733
13908TIP3   OH263138   1.817   2.331   2.712 -0.9121  0.1320 -0.9166
13908TIP3    H163139   1.814   2.422   2.683  0.9394 -0.4246 -3.2426
13908TIP3    H263140   1.902   2.321   2.753 -1.8495 -0.1532  1.0594
13909TIP3   OH263141   6.741   1.620  13.643 -0.4997  0.4983  0.2340
13909TIP3    H163142   6.797   1.571  13.583 -0.8375  0.7903 -0.3369
13909TIP3    H263143   6.734   1.707  13.603 -1.9726  0.2524 -0.1315
13910TIP3   OH263144   5.068   6.141   3.444  0.1165 -0.6265 -0.5291
13910TIP3    H163145   5.039   6.233   3.449  0.7073 -0.4783  0.4319
13910TIP3    H263146   5.039   6.112   3.358 -1.1810  0.0909 -0.3739
13911TIP3   OH263147   2.960   1.840   3.355 -0.7333 -0.4133 -0.1004
13911TIP3    H163148   2.903   1.914   3.378  1.0586  0.6905  1.0757
13911TIP3    H263149   2.932   1.769   3.413 -2.3545 -0.6547 -1.1132
13912TIP3   OH263150   2.275   2.192  12.387 -0.3901 -0.2331  0.2711
13912TIP3    H163151   2.185   2.186  12.356 -1.0163 -0.9797  2.0712
13912TIP3    H263152   2.279   2.276  12.433  0.4535  0.7528 -1.5173
13913TIP3   OH263153   5.878   6.033  12.729 -0.1213  0.1511 -0.2814
13913TIP3    H163154   5.839   5.951  12.700  0.1196 -0.4226  0.9160
13913TIP3    H263155   5.860   6.095  12.659 -1.8857 -0.4555 -0.4198
13914TIP3   OH263156   5.904   5.064  12.194  0.4847 -0.5653  0.3277
13914TIP3    H163157   5.998   5.056  12.178  0.3742 -1.5084  0.0437
13914TIP3    H263158   5.897   5.084  12.287  0.9648 -0.9941  0.4608
13915TIP3   OH263159   2.534   4.804   0.085 -0.3622  0.0848 -0.4279
13915TIP3    H163160   2.545   4.731   0.024  0.7165 -0.9006  0.8902
13915TIP3    H263161   2.540   4.765   0.172  2.3979  1.9376  0.3746
13916TIP3   OH263162   5.569   0.744   3.124  0.2228  0.0391  0.4376
13916TIP3    H163163   5.649   0.728   3.174  0.1249 -0.7452  0.3619
13916TIP3    H263164   5.559   0.666   3.069 -0.8696 -0.1244  0.8330
13917TIP3   OH263165   2.492   0.032  16.335  0.4824 -0.7716  0.1604
13917TIP3    H163166   2.433   0.034  16.411 -0.1887  1.1766 -0.3526
13917TIP3    H263167   2.437   0.060  16.262  2.1712  1.9741 -0.1813
13918TIP3   OH263168   0.345   0.372  13.511 -0.2664 -0.2636  0.6037
13918TIP3    H163169   0.395   0.454  13.519  0.5737 -0.6772 -0.2056
13918TIP3    H263170   0.376   0.318  13.583  0.6585 -0.6056 -0.0299
13919TIP3   OH263171   2.015   3.020   6.018 -0.1272  0.4641 -0.3596
13919TIP3    H163172   2.029   2.942   5.964 -2.1322  0.0203 -0.2952
13919TIP3    H263173   2.103   3.058   6.026  0.8058 -1.3919 -0.9452
13920TIP3   OH263174   1.917   3.963   0.632 -0.1720  0.0111  0.0442
13920TIP3    H163175   1.863   3.932   0.559  0.8679  1.1029 -1.2317
13920TIP3    H263176   1.879   3.920   0.709 -0.5948 -2.0995 -1.2582
13921TIP3   OH263177   3.465   0.864   5.917  0.0689 -0.9213  0.3341
13921TIP3    H163178   3.518   0.807   5.973  1.5323 -0.5746 -0.6597
13921TIP3    H263179   3.500   0.951   5.931 -0.0830 -0.7127 -0.5108
13922TIP3   OH263180   2.583   2.011   4.539  0.1431 -0.4684 -0.0437
13922TIP3    H163181   2.604   2.047   4.626  1.0333  0.8905 -0.7855
13922TIP3    H263182   2.657   1.954   4.518 -0.6578 -1.7961  0.5784
13923TIP3   OH263183   1.260   2.585  16.963  0.3319  0.1189 -0.0070
13923TIP3    H163184   1.195   2.560  17.029 -0.6373 -0.7575 -1.2666
13923TIP3    H263185   1.341   2.542  16.993  0.4652  1.4436  1.7220
13924TIP3   OH263186   1.664   3.149  10.749 -0.0768  1.1256  0.2771
13924TIP3    H163187   1.666   3.233  10.704 -2.8085  1.5043  0.6501
13924TIP3    H263188   1.625   3.089  10.685 -2.1307  1.2089  1.3645
13925TIP3   OH263189   2.263   6.276   4.689 -0.3749 -0.2843  0.1444
13925TIP3    H163190   2.292   6.238   4.773 -1.5122 -2.0742 -0.2259
13925TIP3    H263191   2.328   6.245   4.626 -0.9523 -1.1320 -0.0501
13926TIP3   OH263192   4.526   5.714  15.709 -0.0378  0.0618 -0.0289
13926TIP3    H163193   4.432   5.725  15.699  0.2675  1.0704 -2.3139
13926TIP3    H263194   4.554   5.671  15.629  1.4834 -0.0266  0.5181
13927TIP3   OH263195   4.386   1.534   0.514  0.0981 -0.0473 -0.5344
13927TIP3    H163196   4.324   1.541   0.587  2.2595  0.4833  1.3366
13927TIP3    H263197   4.358   1.602   0.452  0.0498  1.6454  1.2697
13928TIP3   OH263198   5.362   1.440   4.750  0.3241 -0.3437 -0.1441
13928TIP3    H163199   5.324   1.365   4.703 -1.7800  0.3870  0.2585
13928TIP3    H263200   5.305   1.514   4.727  1.5090  0.8345  0.5719
13929TIP3   OH263201   3.552   3.780   6.403  0.3201 -1.0231  0.0048
13929TIP3    H163202   3.485   3.807   6.339  2.0321 -1.1482 -1.9700
13929TIP3    H263203   3.513   3.706   6.449 -1.2699 -0.4676 -0.3705
13930TIP3   OH263204   0.705   1.282  17.139  0.0097 -0.1655 -0.6099
13930TIP3    H163205   0.716   1.190  17.163 -0.1311 -0.0727 -0.1700
13930TIP3    H263206   0.774   1.299  17.075  1.7756  0.1057  1.2453
13931TIP3   OH263207   4.040   2.479   2.600 -0.2187 -0.1204 -0.6624
13931TIP3    H163208   3.989   2.408   2.639 -0.4794  1.0459  1.2767
13931TIP3    H263209   4.131   2.453   2.614 -0.3023 -0.5755 -0.9483
13932TIP3   OH263210   0.164   2.701   5.833 -0.6055 -0.6530 -0.1019
13932TIP3    H163211   0.137   2.609   5.823 -1.9950 -0.4928  1.5795
13932TIP3    H263212   0.242   2.697   5.889  0.2661 -0.8577 -1.2848
13933TIP3   OH263213   3.410   1.316  15.075  0.0807  0.4407 -0.3768
13933TIP3    H163214   3.425   1.295  14.982  0.2797 -3.0661  0.3146
13933TIP3    H263215   3.343   1.253  15.103 -1.3427  2.6002  1.5098
13934TIP3   OH263216   3.844   2.222  16.256 -0.0421  0.0581  0.4350
13934TIP3    H163217   3.882   2.159  16.318  1.5299 -0.6020 -1.1192
13934TIP3    H263218   3.902   2.298  16.260 -0.2792  0.2534  0.2174
13935TIP3   OH263219   4.295   6.530   3.060  0.3556 -0.1778 -0.4289
13935TIP3    H163220   4.302   6.514   3.155  1.2246 -0.2359 -0.4935
13935TIP3    H263221   4.385   6.551   3.033  0.2104 -0.6960 -1.3341
13936TIP3   OH263222   3.759   6.550   1.793 -0.4485 -0.5930  0.2620
13936TIP3    H163223   3.733   6.583   1.707  0.0914  1.0539  0.6852
13936TIP3    H263224   3.854   6.564   1.797 -0.3038 -1.6470  0.7221
13937TIP3   OH263225   6.340   4.408  12.656  0.4671 -0.4072 -0.3839
13937TIP3    H163226   6.400   4.400  12.731 -0.9674  0.7079  0.9448
13937TIP3    H263227   6.281   4.478  12.680 -1.0930 -1.1441 -1.8643
13938TIP3   OH263228   4.432   2.905   0.747 -0.2060 -0.1931 -0.6430
13938TIP3    H163229   4.432   2.902   0.651  1.3483  1.1603 -0.7211
13938TIP3    H263230   4.350   2.864   0.772 -1.3212  0.7228 -2.6027
13939TIP3   OH263231   3.203   0.212   4.681 -0.5708  0.1601  0.2247
13939TIP3    H163232   3.275   0.202   4.743  0.5655  2.8358 -0.5306
13939TIP3    H263233   3.230   0.162   4.605 -0.6843 -0.8544  0.8319
13940TIP3   OH263234   6.368   1.087   5.599 -0.3992  0.5042 -0.0308
13940TIP3    H163235   6.291   1.034   5.622  0.8331 -0.6039  1.7712
13940TIP3    H263236   6.358   1.166   5.652  1.1084 -0.9332  2.6783
13941TIP3   OH263237   4.242   6.268  14.424 -0.0724 -0.4167  0.2546
13941TIP3    H163238   4.327   6.257  14.381  0.1247  0.4071  0.4124
13941TIP3    H263239   4.263   6.280  14.516 -0.3417  0.0805  0.2529
13942TIP3   OH263240   6.154   3.824   2.540  0.8243  0.0666  0.0998
13942TIP3    H163241   6.144   3.762   2.613 -0.7110  0.6382  0.4130
13942TIP3    H263242   6.067   3.829   2.500  1.1923  1.1728 -0.6256
13943TIP3   OH263243   2.830   0.352  15.644 -0.5679  0.6973 -0.4881
13943TIP3    H163244   2.861   0.442  15.651  0.5778  0.3180 -0.5195
13943TIP3    H263245   2.736   0.360  15.627 -0.1058  1.9549 -2.8246
13944TIP3   OH263246   0.522   2.483   4.902  0.5028 -0.0606  0.3519
13944TIP3    H163247   0.510   2.463   4.809  2.0421  1.1694 -0.1573
13944TIP3    H263248   0.493   2.573   4.912  1.0693  0.0663  0.9055
13945TIP3   OH263249   4.845   0.804   4.612 -0.4429 -0.3670 -0.5615
13945TIP3    H163250   4.818   0.730   4.558 -0.1000  0.7474 -2.3416
13945TIP3    H263251   4.764   0.837   4.652 -0.7694 -0.9238 -0.7632
13946TIP3   OH263252   0.293   5.629   0.029 -0.9974 -0.1165  0.0887
13946TIP3    H163253   0.261   5.559   0.086 -3.5555 -1.4821 -2.7355
13946TIP3    H263254   0.214   5.668  -0.007  0.4670  2.1603 -0.8604
13947TIP3   OH263255   4.943   3.148  11.536  0.1741  0.0824 -0.1678
13947TIP3    H163256   4.851   3.139  11.509  0.1651  0.3815 -0.2367
13947TIP3    H263257   4.975   3.058  11.540  0.2884  0.0439 -1.5618
13948TIP3   OH263258   5.305   6.683  14.633  0.3020 -0.1846 -0.2192
13948TIP3    H163259   5.247   6.724  14.698 -1.2951 -1.6995 -0.6054
13948TIP3    H263260   5.279   6.721  14.550 -0.3580 -1.0641 -0.4275
13949TIP3   OH263261   3.174   4.997  12.760  0.2723  0.3875 -0.1826
13949TIP3    H163262   3.207   5.056  12.828  0.1822  0.5109 -0.2454
13949TIP3    H263263   3.082   5.023  12.749 -0.2238 -0.7674  0.8882
13950TIP3   OH263264   0.981   2.425   0.089  0.1429  0.0541  0.0707
13950TIP3    H163265   0.974   2.425  -0.006  2.1127 -0.2155 -0.1233
13950TIP3    H263266   0.970   2.516   0.115 -1.7284 -0.0536 -0.2671
13951TIP3   OH263267   3.070   5.374   5.111  0.2089 -0.3537  0.2795
13951TIP3    H163268   3.073   5.285   5.076 -2.0225 -0.4380  0.1688
13951TIP3    H263269   3.135   5.374   5.181  1.1988 -1.6532 -0.5776
13952TIP3   OH263270   6.320   5.137  17.112  0.2475  0.1513  0.1722
13952TIP3    H163271   6.320   5.212  17.172 -1.7027  0.7309 -0.4637
13952TIP3    H263272   6.397   5.149  17.057  0.4718  1.1715  0.6935
13953TIP3   OH263273   3.700   5.692  11.488  0.5302 -0.1312 -0.3797
13953TIP3    H163274   3.762   5.619  11.481  1.1376  0.0830  1.8790
13953TIP3    H263275   3.753   5.765  11.522  0.0473  1.5713 -3.0051
13954TIP3   OH263276   5.279   2.429  16.465  0.1464  0.0178  0.4714
13954TIP3    H163277   5.299   2.513  16.506 -1.0441 -0.4174  2.0595
13954TIP3    H263278   5.335   2.425  16.388  1.9175  1.2401  1.6355
13955TIP3   OH263279   5.495   2.346   1.236  0.1457  0.4590 -0.2938
13955TIP3    H163280   5.428   2.302   1.289 -2.0550  2.1928 -1.4771
13955TIP3    H263281   5.462   2.342   1.147  1.2861  1.9971 -0.8296
13956TIP3   OH263282   5.253   6.058   3.091 -0.0844  0.3095  0.7224
13956TIP3    H163283   5.178   6.009   3.126 -0.2332  0.1322  0.1628
13956TIP3    H263284   5.231   6.150   3.108  0.2873  0.1863  1.9537
13957TIP3   OH263285   4.659   4.915   4.202  0.1705  0.0531  0.3114
13957TIP3    H163286   4.668   5.010   4.197 -0.2444  0.1296  1.0127
13957TIP3    H263287   4.746   4.882   4.179  1.2872  0.6885  3.2133
13958TIP3   OH263288   6.298   0.649   0.370 -0.2185  0.4118  0.1900
13958TIP3    H163289   6.292   0.654   0.465  0.3236  0.6233  0.2207
13958TIP3    H263290   6.219   0.604   0.343 -0.7752  1.0632  0.6830
13959TIP3   OH263291   0.810   3.698  12.592  0.9753 -0.6644  0.3243
13959TIP3    H163292   0.790   3.760  12.522 -1.1887  0.2130  1.6035
13959TIP3    H263293   0.812   3.612  12.549 -1.8172 -0.3296 -0.6498
13960TIP3   OH263294   4.805   2.922  15.279 -0.1931 -0.3152  0.0151
13960TIP3    H163295   4.740   2.896  15.345  1.0361  0.9286  1.8276
13960TIP3    H263296   4.823   3.014  15.299  1.0877 -0.2477 -1.3473
13961TIP3   OH263297   0.869   4.835  15.934  0.3130 -0.1257  0.5616
13961TIP3    H163298   0.866   4.905  15.868 -1.3908  0.1997  0.9505
13961TIP3    H263299   0.921   4.766  15.893  1.9530  1.3011  0.1224
13962TIP3   OH263300   0.683   5.849  14.587  0.3824 -0.4252  0.0599
13962TIP3    H163301   0.758   5.833  14.529 -0.3575  0.7023 -1.2595
13962TIP3    H263302   0.703   5.933  14.629  0.3092 -0.6093  0.4683
13963TIP3   OH263303   0.562   3.375   5.273 -0.1817  0.2432  0.1769
13963TIP3    H163304   0.540   3.319   5.347  1.0899 -0.2389  0.1996
13963TIP3    H263305   0.652   3.402   5.288  0.2720 -0.2592 -1.4310
13964TIP3   OH263306   5.969   6.066  12.472 -0.0099 -0.2635  0.0555
13964TIP3    H163307   5.923   6.027  12.398  0.2178  1.4895 -1.0686
13964TIP3    H263308   6.026   5.997  12.505  0.2730 -0.9351 -1.7541
13965TIP3   OH263309   2.486   6.163   5.346 -0.4829  0.1724 -0.0853
13965TIP3    H163310   2.452   6.222   5.413 -0.7844 -0.1167  0.0229
13965TIP3    H263311   2.440   6.081   5.361 -2.7577  0.8907 -2.4894
13966TIP3   OH263312   3.074   6.416   0.172  0.5351  0.0088 -0.0673
13966TIP3    H163313   3.023   6.353   0.122  0.9665 -1.7182  1.5675
13966TIP3    H263314   3.145   6.442   0.113  0.5248 -1.2900 -0.6853
13967TIP3   OH263315   2.984   1.947   3.683  0.5428 -0.1074  0.5127
13967TIP3    H163316   2.899   1.910   3.659  0.0268  0.6126  1.1666
13967TIP3    H263317   2.964   2.009   3.754  1.5860  0.2149  0.5433
13968TIP3   OH263318   3.305   3.307  16.864  0.0942 -0.4517 -0.3765
13968TIP3    H163319   3.279   3.385  16.815 -0.3353 -0.7933 -0.7034
13968TIP3    H263320   3.227   3.250  16.862  0.2683 -0.7156  0.2034
13969TIP3   OH263321   4.214   4.682   5.742 -0.2694 -0.7074 -0.3468
13969TIP3    H163322   4.224   4.679   5.837 -0.1971 -1.5558 -0.3766
13969TIP3    H263323   4.176   4.769   5.725 -0.4034 -0.5987  0.4624
13970TIP3   OH263324   2.679   1.084   1.338 -0.8140 -0.2979 -0.3336
13970TIP3    H163325   2.725   1.145   1.396 -0.4811 -0.8020 -0.0523
13970TIP3    H263326   2.597   1.066   1.382 -1.2600  0.5489 -0.8007
13971TIP3   OH263327   4.078   5.387  10.501 -0.1371 -0.3753 -0.4130
13971TIP3    H163328   4.031   5.350  10.576  0.4838 -0.1246  0.1181
13971TIP3    H263329   4.078   5.482  10.518 -2.4048  0.0094 -2.1580
13972TIP3   OH263330   0.569   1.073  11.162  0.6806 -0.7187 -0.1919
13972TIP3    H163331   0.545   1.085  11.070 -0.4785 -0.0792  0.1738
13972TIP3    H263332   0.515   0.999  11.191  0.2061 -0.2124  0.2517
13973TIP3   OH263333   4.484   3.696   4.169 -0.6098 -0.0302  0.3686
13973TIP3    H163334   4.528   3.750   4.235 -0.1963  0.7847 -0.5485
13973TIP3    H263335   4.390   3.707   4.189 -0.5209  0.8182  0.3806
13974TIP3   OH263336   0.823   4.709  13.307  0.0369 -0.5748 -0.6835
13974TIP3    H163337   0.774   4.707  13.225  0.9491 -0.6385 -1.2487
13974TIP3    H263338   0.889   4.640  13.296  0.7486  0.0269 -0.2707
13975TIP3   OH263339   6.741   1.954  13.901  0.1962  0.5649 -0.1213
13975TIP3    H163340   6.737   1.932  13.808 -2.4123 -0.2524  0.1197
13975TIP3    H263341   6.802   1.889  13.938 -0.5035 -0.5706 -0.8969
13976TIP3   OH263342   1.445   5.897  11.507 -0.0896 -0.0350  0.5137
13976TIP3    H163343   1.503   5.897  11.431 -0.5132 -2.1101  0.1390
13976TIP3    H263344   1.400   5.981  11.502 -0.7085 -0.4286 -2.0115
13977TIP3   OH263345   4.626   0.024  11.285  0.2205 -0.3996  0.1119
13977TIP3    H163346   4.553   0.083  11.269 -1.0433 -2.1730 -1.0873
13977TIP3    H263347   4.662   0.005  11.198  2.1762  0.4395  0.6710
13978TIP3   OH263348   5.709   1.318   2.671 -0.1872  0.0033  0.2869
13978TIP3    H163349   5.625   1.274   2.682 -0.5668 -0.4249 -3.2946
13978TIP3    H263350   5.690   1.410   2.685 -1.4147 -0.0386 -0.9294
13979TIP3   OH263351   1.524   5.571  16.470  0.1487 -0.1526 -0.2516
13979TIP3    H163352   1.576   5.650  16.486 -1.6053  1.0197 -0.0925
13979TIP3    H263353   1.533   5.555  16.376 -0.1571  0.7705 -0.4567
13980TIP3   OH263354   1.032   6.233  14.337  0.4321  0.0985  0.0218
13980TIP3    H163355   1.051   6.200  14.425  2.3118 -2.9300 -1.3742
13980TIP3    H263356   0.954   6.185  14.310  0.4713  0.2560 -0.3701
13981TIP3   OH263357   5.064   4.005  13.048  0.1558  0.9512 -0.1480
13981TIP3    H163358   5.070   3.941  13.119  0.3977 -1.1459 -1.9343
13981TIP3    H263359   4.974   3.997  13.016  0.1484  1.6299 -0.3027
13982TIP3   OH263360   2.349   5.856   2.371  0.4823  0.1861 -0.6269
13982TIP3    H163361   2.413   5.916   2.334 -0.8616  1.2973 -1.2436
13982TIP3    H263362   2.399   5.801   2.431  1.5585  3.0501  1.3384
13983TIP3   OH263363   2.689   0.447   3.456 -0.1701 -0.7718  0.4183
13983TIP3    H163364   2.682   0.540   3.433 -0.0214 -0.7521  0.4568
13983TIP3    H263365   2.600   0.423   3.484 -0.3295 -0.7682 -0.0714
13984TIP3   OH263366   6.198   2.792  14.307  0.0989  0.2060 -0.3868
13984TIP3    H163367   6.159   2.811  14.392  1.1474 -0.2988  0.2382
13984TIP3    H263368   6.259   2.864  14.292  0.7769 -0.3005 -0.1392
13985TIP3   OH263369   2.272   1.326   5.644 -0.8022  0.1282  0.0921
13985TIP3    H163370   2.196   1.270   5.633 -0.4741 -0.2929 -0.0616
13985TIP3    H263371   2.243   1.412   5.614 -1.3234  0.0565  0.3818
13986TIP3   OH263372   4.958   2.440  11.609  0.0146 -0.1574 -0.4911
13986TIP3    H163373   4.939   2.463  11.518  0.9856  0.8454 -0.4552
13986TIP3    H263374   4.880   2.469  11.657  0.2860  1.1055 -0.7609
13987TIP3   OH263375   6.049   3.242  12.969  0.2019 -0.2895 -0.6238
13987TIP3    H163376   6.024   3.320  12.920  2.7103 -0.4229 -2.2769
13987TIP3    H263377   6.111   3.196  12.912  0.8919 -2.0781  1.4227
13988TIP3   OH263378   6.693   1.900  15.479 -0.0236  0.2737  0.0851
13988TIP3    H163379   6.768   1.851  15.515  1.2657  2.1622  0.1299
13988TIP3    H263380   6.701   1.890  15.384  0.4697  0.7052  0.0772
13989TIP3   OH263381   6.748   5.128   0.681  0.0133 -0.1629 -0.2235
13989TIP3    H163382   6.756   5.162   0.770 -1.3765 -0.6069  0.1109
13989TIP3    H263383   6.836   5.129   0.646  0.7427 -0.8061  1.4790
13990TIP3   OH263384   3.749   4.419  11.695 -0.0495  0.5750  0.3874
13990TIP3    H163385   3.844   4.408  11.695  0.1184  1.8887 -0.3210
13990TIP3    H263386   3.734   4.501  11.650 -1.6744 -0.8187 -1.8198
13991TIP3   OH263387   3.947   0.760   2.773  0.0344  0.2383  0.3061
13991TIP3    H163388   3.898   0.681   2.796 -0.1755  0.2756 -0.0014
13991TIP3    H263389   3.945   0.762   2.677  1.8097 -0.4974  0.2070
13992TIP3   OH263390   5.090   0.705   4.715  0.1260 -0.3453 -0.2229
13992TIP3    H163391   5.075   0.616   4.683  2.2691  0.0793 -2.7859
13992TIP3    H263392   5.005   0.748   4.707 -0.4312 -1.5602 -1.1942
13993TIP3   OH263393   3.587   4.740   1.462  0.6030  0.2353  0.1429
13993TIP3    H163394   3.526   4.812   1.444  0.3471 -0.0446 -0.1217
13993TIP3    H263395   3.541   4.662   1.432  1.1893  0.0457 -0.2744
13994TIP3   OH263396   2.402   0.690   2.579  0.5976 -0.1823 -0.2720
13994TIP3    H163397   2.307   0.694   2.566  0.7361  0.0226 -1.2586
13994TIP3    H263398   2.426   0.601   2.554  0.5253 -0.5990  1.0527
13995TIP3   OH263399   1.164   1.012  15.807  0.4000 -0.9682 -0.3371
13995TIP3    H163400   1.250   1.004  15.848  0.5940  0.1665 -0.4998
13995TIP3    H263401   1.108   0.951  15.857  1.2017 -1.4495 -0.0085
13996TIP3   OH263402   6.264   3.922   4.582  0.1863 -0.1984 -0.0332
13996TIP3    H163403   6.188   3.892   4.531  0.3458  1.0879 -1.0759
13996TIP3    H263404   6.339   3.909   4.523  0.4980  0.4868  0.2059
13997TIP3   OH263405   5.651   5.272  15.144  0.3394 -0.2299 -0.7290
13997TIP3    H163406   5.716   5.238  15.082  1.2102 -0.3180  0.2100
13997TIP3    H263407   5.582   5.308  15.089 -1.0732 -4.1494 -1.8741
13998TIP3   OH263408   6.035   1.059  15.566 -0.3078  0.8160  0.0758
13998TIP3    H163409   6.102   1.082  15.631  0.8712 -1.3396 -0.2692
13998TIP3    H263410   5.967   1.014  15.616  0.3792 -0.4293 -0.0732
13999TIP3   OH263411   5.849   0.957  15.813  0.0548 -0.1608 -0.6168
13999TIP3    H163412   5.910   0.990  15.879  0.0521 -0.8898 -0.2465
13999TIP3    H263413   5.809   1.036  15.776 -1.1095  0.2276  1.3456
14000TIP3   OH263414   3.217   4.784   0.942  0.8801 -0.2285 -0.2552
14000TIP3    H163415   3.124   4.768   0.957  0.6331  0.4926 -0.9495
14000TIP3    H263416   3.262   4.738   1.013  0.0063 -0.7570 -0.0424
14001TIP3   OH263417   3.488   4.921   2.803 -0.2192  0.2802 -0.6357
14001TIP3    H163418   3.491   5.012   2.772 -0.9329 -0.0551 -1.7357
14001TIP3    H263419   3.424   4.879   2.747 -1.4779 -0.4092  1.2443
14002TIP3   OH263420   3.772   3.220  14.220 -0.2988  0.3762 -0.0121
14002TIP3    H163421   3.847   3.189  14.271  0.0335  0.7207 -0.2819
14002TIP3    H263422   3.780   3.175  14.136 -0.6399  0.0849  0.1121
14003TIP3   OH263423   2.443   1.407   0.414 -0.5153 -0.2191  0.3604
14003TIP3    H163424   2.481   1.425   0.328  0.0301  2.4484  1.0568
14003TIP3    H263425   2.351   1.431   0.405 -0.0020  2.2423  1.0211
14004TIP3   OH263426   6.690   4.452  15.170 -0.1546  0.4128 -0.5575
14004TIP3    H163427   6.781   4.478  15.158 -0.4618  2.6204  1.1887
14004TIP3    H263428   6.640   4.533  15.159 -1.7166 -0.3793  0.3456
14005TIP3   OH263429   6.409   0.560  16.180  0.4620  0.2832  0.3524
14005TIP3    H163430   6.458   0.527  16.255  0.1433  0.3955  0.6131
14005TIP3    H263431   6.385   0.481  16.131  0.6700  0.2097  0.3661
14006TIP3   OH263432   3.140   0.486  16.583  0.2527 -0.1800  0.0395
14006TIP3    H163433   3.078   0.556  16.565  0.0335 -0.4688 -0.3443
14006TIP3    H263434   3.152   0.442  16.498  1.0337 -0.0839  0.0918
14007TIP3   OH263435   5.169   6.161   4.416  0.0633  0.2656  0.1057
14007TIP3    H163436   5.133   6.130   4.498 -1.8248 -2.7845 -1.6883
14007TIP3    H263437   5.249   6.111   4.404 -0.3363 -0.2677 -0.4411
14008TIP3   OH263438   0.458   1.030  12.030 -0.1411  0.2327 -0.1612
14008TIP3    H163439   0.425   0.944  12.004 -2.4899  1.3522 -1.1587
14008TIP3    H263440   0.463   1.025  12.126 -1.6975 -0.5722 -0.0819
14009TIP3   OH263441   5.826   4.424   5.052  0.7852  0.9657  0.2472
14009TIP3    H163442   5.779   4.377   5.120  0.1847 -0.3713 -1.0191
14009TIP3    H263443   5.796   4.514   5.060 -1.4871  0.3138 -0.0305
14010TIP3   OH263444   3.805   5.521  14.017 -0.2050  0.0320  0.0959
14010TIP3    H163445   3.882   5.572  14.043  0.2360 -0.3841 -0.3669
14010TIP3    H263446   3.787   5.550  13.927  0.2746 -0.8793 -0.3060
14011TIP3   OH263447   3.133   5.859   2.823 -0.6241 -0.3985 -0.3609
14011TIP3    H163448   3.053   5.903   2.793  0.0382  0.5423 -0.8086
14011TIP3    H263449   3.108   5.818   2.905 -1.4111  0.4205 -0.1725
14012TIP3   OH263450   6.007   0.035  13.627 -0.3870 -0.3897  0.5266
14012TIP3    H163451   6.050   0.005  13.708  1.6044  1.8210  0.3932
14012TIP3    H263452   6.025  -0.035  13.564  0.1135 -1.0619  1.3884
14013TIP3   OH263453   6.134   4.088   0.895 -0.0733 -0.5269  0.0438
14013TIP3    H163454   6.090   4.033   0.960  1.5717 -0.0643  1.6070
14013TIP3    H263455   6.181   4.154   0.946  0.5835  0.3831 -1.6589
14014TIP3   OH263456   1.791   1.644  14.240  0.0015 -0.1845  0.3208
14014TIP3    H163457   1.712   1.678  14.198  1.2613 -0.3833 -2.4543
14014TIP3    H263458   1.764   1.563  14.281 -2.0055  1.5890  2.8377
14015TIP3   OH263459   2.069   3.303   5.345  0.5598  0.8772 -0.0384
14015TIP3    H163460   2.133   3.293   5.416  0.4979 -0.6725 -0.1684
14015TIP3    H263461   1.992   3.340   5.388 -0.1981 -1.8884  1.1943
14016TIP3   OH263462   2.442   2.540   5.758 -0.6002  0.5041  0.7765
14016TIP3    H163463   2.477   2.537   5.848 -0.6545  1.0194  0.8151
14016TIP3    H263464   2.506   2.490   5.707  0.0909  1.2608  0.8864
14017TIP3   OH263465   5.054   4.294   2.363 -0.9938 -0.6008  0.2138
14017TIP3    H163466   5.101   4.378   2.361 -0.2068 -1.0296  0.3799
14017TIP3    H263467   5.011   4.293   2.449 -1.4444 -0.1350 -0.0031
14018TIP3   OH263468   6.361   4.108  13.448  0.8123 -0.2613 -0.3936
14018TIP3    H163469   6.295   4.163  13.406  0.7224  0.2846  0.4311
14018TIP3    H263470   6.311   4.058  13.513  0.6414 -2.3698 -2.0478
14019TIP3   OH263471   6.238   5.083  15.288  0.3117 -0.0469  0.6731
14019TIP3    H163472   6.314   5.082  15.230 -1.3963 -1.0624 -1.7134
14019TIP3    H263473   6.262   5.025  15.361  1.7163 -0.5179 -0.1280
14020TIP3   OH263474   2.031   1.931   4.531  0.4753  0.7529 -0.1858
14020TIP3    H163475   1.936   1.932   4.542  0.3991  1.3380 -0.8060
14020TIP3    H263476   2.060   2.016   4.564  0.8982  0.1969  0.8906
14021TIP3   OH263477   2.582   4.988   3.065 -0.5022  0.1176  0.2097
14021TIP3    H163478   2.581   4.896   3.088 -2.3457  0.1765  0.4539
14021TIP3    H263479   2.520   4.996   2.992 -2.2964  1.5284  1.8045
14022TIP3   OH263480   3.964   3.693   1.580 -0.3359 -0.3043  0.3596
14022TIP3    H163481   4.039   3.751   1.592 -1.0343  0.4585  1.1538
14022TIP3    H263482   3.902   3.718   1.648 -1.2802 -0.9875 -0.2109
14023TIP3   OH263483   4.050   6.142   4.549 -0.6712 -0.2917 -0.0606
14023TIP3    H163484   4.037   6.165   4.457 -0.9221  1.0300  0.2876
14023TIP3    H263485   4.026   6.049   4.554  0.0754 -0.5839 -1.4666
14024TIP3   OH263486   2.563   4.880  11.534  0.2825  0.0292 -0.4374
14024TIP3    H163487   2.487   4.840  11.493 -0.3526 -0.5343  1.2327
14024TIP3    H263488   2.573   4.964  11.489 -1.0597 -0.0735 -0.9669
14025TIP3   OH263489   6.169   3.791   0.017 -0.4222  0.1133 -0.2987
14025TIP3    H163490   6.180   3.765  -0.074 -0.0400  0.6922 -0.4221
14025TIP3    H263491   6.088   3.843   0.017 -0.3890  0.1647 -0.3167
14026TIP3   OH263492   3.962   4.975  16.249  0.2640  0.3501  0.1167
14026TIP3    H163493   4.002   4.903  16.298  0.9429  1.0388  0.6144
14026TIP3    H263494   3.868   4.955  16.249  0.5956 -1.5638 -1.5115
14027TIP3   OH263495   2.092   4.995  14.928  0.5938 -0.5607  0.0438
14027TIP3    H163496   2.059   4.956  14.846 -0.6397 -0.0710  0.2809
14027TIP3    H263497   2.038   4.956  14.996 -0.1237  0.9277  0.3687
14028TIP3   OH263498   6.257   3.008   2.084 -0.1383  0.0147 -0.2039
14028TIP3    H163499   6.344   2.968   2.074 -0.9223 -1.6862 -0.5369
14028TIP3    H263500   6.213   2.953   2.148 -1.6548 -0.3419 -1.4948
14029TIP3   OH263501   6.265   1.529  17.067 -0.0163  0.1059 -1.0359
14029TIP3    H163502   6.236   1.438  17.074  1.1885 -0.2576 -0.6501
14029TIP3    H263503   6.320   1.544  17.144  0.4178  0.9294 -1.4824
14030TIP3   OH263504   2.118   3.293  16.579  0.2908  0.2057 -0.2100
14030TIP3    H163505   2.132   3.375  16.627  0.0668 -1.1883  2.4480
14030TIP3    H263506   2.036   3.307  16.531 -0.1066  1.3234  0.7513
14031TIP3   OH263507   2.707   6.001   5.195 -0.5897 -0.1789  0.1769
14031TIP3    H163508   2.795   6.030   5.220 -0.9553  0.7568  0.4260
14031TIP3    H263509   2.650   6.074   5.220 -1.3100 -0.3297 -0.9351
14032TIP3   OH263510   5.037   6.255  13.507 -0.3191 -0.0736  0.0458
14032TIP3    H163511   4.964   6.259  13.446  0.1185 -0.1304 -0.4985
14032TIP3    H263512   5.031   6.335  13.558 -0.0778  0.5018 -0.8064
14033TIP3   OH263513   5.372   0.222   1.093  1.0983  0.6847 -0.2424
14033TIP3    H163514   5.302   0.184   1.039  0.5088  1.4529 -0.0286
14033TIP3    H263515   5.337   0.220   1.182  2.0596 -0.5592  0.1477
14034TIP3   OH263516   3.281   1.194   3.452 -0.6343  0.3118  0.2659
14034TIP3    H163517   3.294   1.100   3.442 -0.5079  0.2794  0.6931
14034TIP3    H263518   3.222   1.202   3.527 -0.5697  0.5776  0.2885
14035TIP3   OH263519   2.723   3.907   4.622  0.0580 -0.4193 -0.2055
14035TIP3    H163520   2.784   3.974   4.652  0.6685 -0.4164 -1.3719
14035TIP3    H263521   2.717   3.844   4.694  0.2165  0.3953  0.5232
14036TIP3   OH263522   1.198   4.401   4.458 -0.2843  0.0513 -0.2830
14036TIP3    H163523   1.140   4.394   4.383 -0.6367  0.3097 -0.0386
14036TIP3    H263524   1.203   4.495   4.476 -0.2743 -0.0157  0.0693
14037TIP3   OH263525   2.116   1.371   5.160 -0.3810  0.0287 -0.1893
14037TIP3    H163526   2.200   1.415   5.170 -0.3455  0.1693 -1.0905
14037TIP3    H263527   2.135   1.295   5.105 -1.3482  1.7008 -3.0250
14038TIP3   OH263528   5.063   5.733  10.868 -0.3986  0.1612 -0.2236
14038TIP3    H163529   5.111   5.667  10.817 -0.3843  0.5799 -0.7593
14038TIP3    H263530   5.132   5.784  10.911 -0.4122 -0.2347  0.2764
14039TIP3   OH263531   0.968   1.279   1.911 -0.2232  0.4505  0.2987
14039TIP3    H163532   0.897   1.276   1.975 -0.7529 -1.0819 -0.3122
14039TIP3    H263533   0.981   1.188   1.885  1.9557  0.6986  0.3458
14040TIP3   OH263534   5.378   0.112   3.368  0.8825  0.1073 -0.1815
14040TIP3    H163535   5.458   0.144   3.408  1.1553  0.9209 -1.3104
14040TIP3    H263536   5.371   0.161   3.286 -1.6496  1.3275  0.6512
14041TIP3   OH263537   1.425   3.633  12.679  0.0072  0.0824  0.5128
14041TIP3    H163538   1.442   3.558  12.621  0.9182 -0.0289  0.9022
14041TIP3    H263539   1.507   3.682  12.680  0.1647 -0.1544  2.0331
14042TIP3   OH263540   3.145   1.239   2.572  0.2590 -0.2294  0.5297
14042TIP3    H163541   3.097   1.159   2.592 -0.3249  0.0476  0.2519
14042TIP3    H263542   3.095   1.308   2.616 -0.4461  0.2557 -0.9889
14043TIP3   OH263543   5.742   1.330   2.175  0.1687 -0.0592 -0.2166
14043TIP3    H163544   5.736   1.355   2.082  0.8512  1.3234  0.0928
14043TIP3    H263545   5.836   1.329   2.193 -0.0071  1.2583  0.8595
14044TIP3   OH263546   5.009   1.078  13.818  0.3894 -0.2342 -0.4742
14044TIP3    H163547   5.059   1.133  13.757  0.0434  0.4142 -0.1858
14044TIP3    H263548   4.935   1.046  13.767 -0.5396  1.2500 -0.1020
14045TIP3   OH263549   5.839   0.344   2.235  0.3815 -0.3192  0.0708
14045TIP3    H163550   5.814   0.254   2.216  0.5457 -0.7844  1.8892
14045TIP3    H263551   5.866   0.343   2.326 -0.4894  1.7684  0.4211
14046TIP3   OH263552   3.688   2.943   2.858  0.6519  0.0707  0.0622
14046TIP3    H163553   3.652   2.976   2.776  1.4421 -0.1510 -0.3820
14046TIP3    H263554   3.637   2.865   2.877  0.6100 -0.0015 -0.3390
14047TIP3   OH263555   6.687   0.689   0.235  0.4532 -0.1869  0.1693
14047TIP3    H163556   6.640   0.725   0.310 -0.0204  0.6247 -0.5040
14047TIP3    H263557   6.737   0.763   0.200  2.2320 -1.0175  0.8465
14048TIP3   OH263558   2.075   6.618   5.354 -0.1402  0.4538  0.0765
14048TIP3    H163559   2.129   6.557   5.304 -0.8935  0.7488 -1.1321
14048TIP3    H263560   2.098   6.600   5.446  0.4607 -0.8672 -0.3022
14049TIP3   OH263561   5.917   5.003  16.240 -0.2448  0.3380 -0.4908
14049TIP3    H163562   5.935   5.021  16.148  0.6228  2.2374 -0.0054
14049TIP3    H263563   5.856   5.071  16.267 -0.7124 -0.3670  0.2827
14050TIP3   OH263564   6.495   1.586   5.273 -0.3560 -0.6902  0.0747
14050TIP3    H163565   6.440   1.581   5.194 -1.8155  0.8173  0.9515
14050TIP3    H263566   6.457   1.521   5.332  1.5670 -2.8144 -0.8573
14051TIP3   OH263567   4.370   1.816   1.939  0.2210 -0.2227  0.2554
14051TIP3    H163568   4.287   1.787   1.900 -0.4166 -0.7937  1.9355
14051TIP3    H263569   4.403   1.882   1.878 -1.9945  0.7859  0.0360
14052TIP3   OH263570   4.938   5.171   6.112 -0.3425  0.3063 -0.3104
14052TIP3    H163571   4.856   5.127   6.087 -1.1348 -1.4356  4.4023
14052TIP3    H263572   4.919   5.210   6.197  2.5329  3.9193 -1.0918
14053TIP3   OH263573   5.164   1.140  12.831  0.3432  0.0636  0.3274
14053TIP3    H163574   5.240   1.090  12.862  2.3137  1.3634 -2.0043
14053TIP3    H263575   5.100   1.073  12.806  1.2742 -1.1428  1.0313
14054TIP3   OH263576   3.121   3.224   0.103  0.4020 -0.5241 -0.1286
14054TIP3    H163577   3.102   3.141   0.060 -0.7528  0.7232 -2.1917
14054TIP3    H263578   3.035   3.258   0.128  0.7780  0.3925 -0.0406
14055TIP3   OH263579   3.748   1.243   0.323 -0.2257  0.4836 -0.3273
14055TIP3    H163580   3.724   1.151   0.325  0.4993  0.2769 -0.6215
14055TIP3    H263581   3.665   1.290   0.330 -0.5240 -0.1735  0.8841
14056TIP3   OH263582   1.518   0.426  12.809  0.3138 -0.2027 -0.1151
14056TIP3    H163583   1.539   0.514  12.776  0.1955  0.5882  1.7854
14056TIP3    H263584   1.422   0.424  12.810  0.3186 -0.2756  0.0610
14057TIP3   OH263585   3.338   0.613   2.981  0.9513 -0.1008 -0.1584
14057TIP3    H163586   3.336   0.707   2.967  1.6249 -0.0615 -0.0108
14057TIP3    H263587   3.407   0.599   3.045 -0.2562 -0.5404  1.1154
14058TIP3   OH263588   0.067   6.728   1.376 -0.8448  0.2196 -0.7904
14058TIP3    H163589   0.008   6.701   1.446 -1.4233  1.2053 -0.8729
14058TIP3    H263590   0.154   6.699   1.405 -1.1249  0.3130  0.1753
14059TIP3   OH263591   0.675   5.374  11.544  0.5597  0.2338  0.4135
14059TIP3    H163592   0.626   5.404  11.621 -0.5733  0.7463 -0.4738
14059TIP3    H263593   0.763   5.408  11.557  0.4366  0.1553  1.5709
14060TIP3   OH263594   1.245   1.992  10.589 -0.0132 -0.3647  0.3208
14060TIP3    H163595   1.296   1.911  10.583 -0.4196 -0.4882 -2.4311
14060TIP3    H263596   1.309   2.062  10.581 -0.0031 -0.4781 -0.6272
14061TIP3   OH263597   2.975   1.198   0.892  0.0702 -0.1697  0.2310
14061TIP3    H163598   2.949   1.160   0.808 -0.1603  1.0128 -0.2608
14061TIP3    H263599   2.902   1.179   0.951 -0.2191 -0.1298 -0.1127
14062TIP3   OH263600   3.172   4.101  14.645 -0.5257  0.1024 -0.2126
14062TIP3    H163601   3.192   4.188  14.679 -2.5841  1.0469 -1.2733
14062TIP3    H263602   3.254   4.073  14.603  0.7216  0.7005  1.6668
14063TIP3   OH263603   5.638   2.902  12.101 -0.3112  0.1710  0.0954
14063TIP3    H163604   5.556   2.935  12.065 -0.2618  3.1503  2.3133
14063TIP3    H263605   5.650   2.952  12.182  2.0001 -2.5926  1.6397
14064TIP3   OH263606   3.316   4.046   4.144 -0.2642  0.8171  0.6240
14064TIP3    H163607   3.278   4.032   4.231  0.3259  0.3411  0.8113
14064TIP3    H263608   3.402   4.004   4.148 -0.0799  1.1066 -0.0768
14065TIP3   OH263609   3.053   4.453   5.383 -0.3938 -0.3140  0.4213
14065TIP3    H163610   3.042   4.477   5.475 -0.2268 -1.8759  0.8927
14065TIP3    H263611   3.142   4.418   5.378 -1.0967 -2.1849  0.1761
14066TIP3   OH263612   0.295   3.191  14.205  0.0439  0.0227 -0.3184
14066TIP3    H163613   0.333   3.200  14.117  2.1076  0.2943  0.5544
14066TIP3    H263614   0.365   3.218  14.264 -1.6428  0.8496  1.3976
14067TIP3   OH263615   1.175   5.016  11.633  0.3284  0.1939  0.2883
14067TIP3    H163616   1.121   5.091  11.657  1.9209  1.7278 -0.6903
14067TIP3    H263617   1.262   5.036  11.668  1.3485 -0.0745 -1.8635
14068TIP3   OH263618   0.353   0.198   1.543 -0.2112 -0.1479 -0.4459
14068TIP3    H163619   0.383   0.171   1.630  4.7641  1.8920 -1.1910
14068TIP3    H263620   0.339   0.292   1.551 -0.5753 -0.0911 -1.6567
14069TIP3   OH263621   0.167   3.378  16.989 -0.0434  0.5798 -0.7438
14069TIP3    H163622   0.089   3.404  16.941  0.0232  0.2017 -1.0576
14069TIP3    H263623   0.211   3.315  16.932 -0.4626 -0.6257  0.1985
14070TIP3   OH263624   2.880   1.868   1.797  0.3993  0.0188 -0.0614
14070TIP3    H163625   2.858   1.789   1.748  1.8592 -0.6560  0.3305
14070TIP3    H263626   2.869   1.844   1.889  0.2138  0.4893  0.0461
14071TIP3   OH263627   2.301   2.825  15.586  0.0174 -0.3772  0.1845
14071TIP3    H163628   2.209   2.853  15.578 -0.0545 -0.4973  0.5996
14071TIP3    H263629   2.344   2.864  15.509  0.0653  1.4117  1.0639
14072TIP3   OH263630   3.134   0.320  10.605 -0.5539  0.0903  0.2087
14072TIP3    H163631   3.072   0.267  10.554 -2.0362  1.7324  0.2061
14072TIP3    H263632   3.080   0.361  10.673  0.5203  1.5956  0.2051
14073TIP3   OH263633   5.218   6.785  13.582 -0.6404  0.4521 -0.6807
14073TIP3    H163634   5.284   6.853  13.593 -0.6453  0.5034 -0.9450
14073TIP3    H263635   5.267   6.706  13.563 -0.6559  0.5012 -0.9285
14074TIP3   OH263636   3.318   3.937  12.056  0.1387  0.1546  0.0355
14074TIP3    H163637   3.363   4.014  12.092 -0.3099 -0.1376  1.2594
14074TIP3    H263638   3.225   3.953  12.073 -0.0233 -0.2819 -0.4351
14075TIP3   OH263639   6.198   2.476  15.188 -0.4630  0.5291 -0.9414
14075TIP3    H163640   6.167   2.558  15.148  0.2796  1.4178  0.2142
14075TIP3    H263641   6.171   2.483  15.279  2.6430  1.1989  0.0487
14076TIP3   OH263642   3.813   1.944  14.965  0.2159 -0.4883  0.5787
14076TIP3    H163643   3.907   1.932  14.951  0.2253 -0.7919  0.9078
14076TIP3    H263644   3.786   2.002  14.893  1.0331  1.2699  1.6282
14077TIP3   OH263645   0.951   2.683  11.741  0.3315  0.2539  0.2095
14077TIP3    H163646   0.945   2.713  11.650  1.6443 -0.9593 -0.3092
14077TIP3    H263647   1.029   2.726  11.776  0.8342 -0.6304  0.2057
14078TIP3   OH263648   2.952   1.147   6.526 -0.4601  0.0903  0.1738
14078TIP3    H163649   2.912   1.231   6.550 -1.3958 -0.2925 -0.0138
14078TIP3    H263650   2.879   1.086   6.521  0.2842 -0.8883  0.9050
14079TIP3   OH263651   2.490   2.833   2.648 -0.0092 -0.0062 -0.0740
14079TIP3    H163652   2.460   2.744   2.630  0.5657 -0.2249  0.0269
14079TIP3    H263653   2.517   2.867   2.562  1.7598 -0.6873  0.1551
14080TIP3   OH263654   2.274   3.345  15.092  0.1557  0.1806 -0.1892
14080TIP3    H163655   2.344   3.383  15.038  1.0045  0.7327  1.2406
14080TIP3    H263656   2.209   3.415  15.100 -1.0943 -0.6363 -2.3014
14081TIP3   OH263657   2.659   2.605   3.573 -0.2657  0.0791  0.8304
14081TIP3    H163658   2.607   2.608   3.492 -0.0107  0.1725  0.6681
14081TIP3    H263659   2.746   2.579   3.544  0.0932  1.1071  0.9291
14082TIP3   OH263660   3.036   1.016  10.726  0.0477 -0.1285  0.0740
14082TIP3    H163661   2.968   0.956  10.696 -0.0133  0.3156 -0.7076
14082TIP3    H263662   3.046   0.996  10.819 -0.9146 -0.4170  0.1266
14083TIP3   OH263663   1.563   2.917   4.334 -0.0584 -0.4300 -0.1099
14083TIP3    H163664   1.497   2.948   4.273 -2.1481 -0.3143  2.0586
14083TIP3    H263665   1.631   2.985   4.333 -1.0303  0.5636 -0.7905
14084TIP3   OH263666   0.550   1.326  11.243  0.0719  0.2115 -0.0412
14084TIP3    H163667   0.562   1.253  11.183  0.5921  0.0100  0.3064
14084TIP3    H263668   0.487   1.383  11.199 -0.9399 -0.8219  0.0317
14085TIP3   OH263669   5.835   5.727  11.372  0.3190 -0.4359 -0.8166
14085TIP3    H163670   5.883   5.767  11.445  1.4070 -0.7913 -1.3142
14085TIP3    H263671   5.827   5.635  11.396 -2.4140  0.0578  0.4480
14086TIP3   OH263672   0.038   1.937  16.940 -0.5507  0.4052  0.6299
14086TIP3    H163673   0.019   1.879  17.014 -0.1685  0.0493  0.4566
14086TIP3    H263674   0.024   1.882  16.863 -0.4949  0.6389  0.4514
14087TIP3   OH263675   0.967   2.906  14.241  0.0157  0.8555 -0.3375
14087TIP3    H163676   0.973   3.002  14.244 -1.1553  0.9977 -1.5128
14087TIP3    H263677   0.916   2.883  14.319  0.0058  1.2304 -0.2307
14088TIP3   OH263678   5.484   1.823   5.452 -0.0465 -0.4288  0.2577
14088TIP3    H163679   5.554   1.766   5.421 -1.6601 -1.5097 -1.6517
14088TIP3    H263680   5.482   1.895   5.389 -0.6601 -0.4219  0.2734
14089TIP3   OH263681   3.787   0.963   5.680 -0.1359 -0.1045  0.1257
14089TIP3    H163682   3.845   0.901   5.725 -0.1763 -0.5385 -0.4137
14089TIP3    H263683   3.789   1.041   5.735 -0.0264 -0.5555  0.7773
14090TIP3   OH263684   3.125   4.961   3.777  0.6443  0.0330 -0.2289
14090TIP3    H163685   3.169   4.913   3.847 -0.2958  2.0197  1.8590
14090TIP3    H263686   3.180   5.038   3.763 -0.8466  1.3264  0.7205
14091TIP3   OH263687   6.019   0.395  15.278 -0.6925  0.0411 -0.0156
14091TIP3    H163688   5.986   0.384  15.188 -0.9006 -2.5404  0.3237
14091TIP3    H263689   5.940   0.396  15.332 -0.5008  0.4871  0.2683
14092TIP3   OH263690   0.726   0.204  13.852 -0.2776 -0.1157  0.2159
14092TIP3    H163691   0.786   0.274  13.828 -0.2555  0.3834  1.6307
14092TIP3    H263692   0.712   0.155  13.770  0.6214  0.8265 -0.5298
14093TIP3   OH263693   0.464   4.511  12.594 -0.2844 -0.1079 -0.5056
14093TIP3    H163694   0.408   4.585  12.616 -0.7969 -0.3560 -0.9420
14093TIP3    H263695   0.514   4.494  12.673 -0.3804  0.5088 -0.3045
14094TIP3   OH263696   6.178   5.513   4.432 -0.0634  0.4059  0.2608
14094TIP3    H163697   6.252   5.565   4.401 -0.6868  1.2902  0.2038
14094TIP3    H263698   6.117   5.510   4.358 -0.9066  1.2831  0.8911
14095TIP3   OH263699   3.359   5.382  13.753 -0.5206  0.4075  0.4060
14095TIP3    H163700   3.312   5.371  13.671  0.8838  4.0037 -1.0637
14095TIP3    H263701   3.298   5.426  13.811 -0.3882  1.1333  0.0050
14096TIP3   OH263702   3.067   1.398  14.495  0.1646 -0.1709 -0.1874
14096TIP3    H163703   3.162   1.395  14.507 -0.0597 -1.6563  1.7269
14096TIP3    H263704   3.047   1.319  14.446 -0.0706  0.3016 -0.8633
14097TIP3   OH263705   1.251   0.890  14.729  0.2769 -0.0122  0.1980
14097TIP3    H163706   1.199   0.967  14.705  0.1202  0.0043  0.5822
14097TIP3    H263707   1.327   0.927  14.774 -0.1651 -0.1134  1.0504
14098TIP3   OH263708   4.033   0.772   4.211  0.8148 -0.7279 -0.3527
14098TIP3    H163709   3.985   0.809   4.285 -0.4867 -0.8475 -1.1231
14098TIP3    H263710   4.096   0.840   4.186 -0.9951  0.6950 -1.2491
14099TIP3   OH263711   6.781   2.018   1.360  0.2975  0.3857 -0.4056
14099TIP3    H163712   6.694   2.041   1.329  0.5256  0.3016 -1.1316
14099TIP3    H263713   6.833   2.098   1.346  0.4522  0.2809 -0.4290
14100TIP3   OH263714   0.515   1.215  12.564  0.1477 -0.4693  0.2381
14100TIP3    H163715   0.577   1.246  12.630  1.4337 -0.1120 -1.0781
14100TIP3    H263716   0.465   1.293  12.540  0.0759 -0.4734  0.3739
14101TIP3   OH263717   0.077   3.918  13.662  0.4357  0.0531  0.5862
14101TIP3    H163718   0.014   3.887  13.597  0.2541  0.4142  0.5886
14101TIP3    H263719   0.137   3.973  13.613  0.1965  0.4644  0.7568
14102TIP3   OH263720   2.079   4.557   4.419  0.0995  0.0759 -0.1672
14102TIP3    H163721   2.143   4.497   4.381 -0.4052 -0.9858  0.5959
14102TIP3    H263722   2.080   4.633   4.362  1.6650 -0.1338 -0.4643
14103TIP3   OH263723   1.382   2.209   3.307 -0.0180  0.1246  0.4226
14103TIP3    H163724   1.421   2.253   3.382  0.5955 -0.6968  0.6022
14103TIP3    H263725   1.395   2.116   3.324 -0.6427 -0.1055 -0.2909
14104TIP3   OH263726   5.397   4.981  14.059 -0.3203 -0.2550  0.2959
14104TIP3    H163727   5.349   4.925  14.119 -0.4575 -0.4591 -0.0044
14104TIP3    H263728   5.402   4.931  13.978 -0.1140  0.0085  0.1441
14105TIP3   OH263729   0.288   1.872  12.608 -0.6150  0.3028  0.8452
14105TIP3    H163730   0.266   1.781  12.588  1.1480 -0.1038  0.5289
14105TIP3    H263731   0.382   1.870  12.625 -0.1495  2.3491 -1.0004
14106TIP3   OH263732   4.448   2.115  15.016  0.0401 -0.0161  0.0021
14106TIP3    H163733   4.483   2.091  15.102  1.6378 -1.8519 -1.0836
14106TIP3    H263734   4.508   2.076  14.953 -2.2874 -0.6761 -1.9929
14107TIP3   OH263735   4.673   3.062  14.467  0.6298 -0.2725 -0.0261
14107TIP3    H163736   4.734   3.122  14.424  0.5506  0.1642  0.4542
14107TIP3    H263737   4.614   3.033  14.398  2.0800 -1.6169 -0.7651
14108TIP3   OH263738   6.223   2.404  15.674 -0.2575  0.3849 -0.2498
14108TIP3    H163739   6.250   2.469  15.739 -0.6312 -0.3879  0.6957
14108TIP3    H263740   6.192   2.330  15.725  0.1920 -0.5633 -1.3128
14109TIP3   OH263741   3.027   6.628   5.279 -0.6275  0.2671 -0.4003
14109TIP3    H163742   2.993   6.581   5.203  2.1030  0.4743 -1.8611
14109TIP3    H263743   3.057   6.560   5.338  2.6569 -0.0116 -2.1959
14110TIP3   OH263744   5.763   2.193  15.769 -0.3318 -0.1746 -0.1313
14110TIP3    H163745   5.792   2.197  15.678 -1.7225 -0.9820 -0.6386
14110TIP3    H263746   5.692   2.256  15.775 -0.9831 -0.9150  0.0977
14111TIP3   OH263747   1.868   1.400  12.224 -0.1059  0.1596 -0.2682
14111TIP3    H163748   1.840   1.489  12.247  0.1383  0.3643 -0.7554
14111TIP3    H263749   1.827   1.383  12.139 -0.1582 -0.1997 -0.1743
14112TIP3   OH263750   6.536   0.296  11.373  0.9616 -0.0575  0.0422
14112TIP3    H163751   6.456   0.321  11.326 -0.4452  0.1048  2.3796
14112TIP3    H263752   6.606   0.336  11.322 -0.3987 -0.2466 -2.1267
14113TIP3   OH263753   5.970   3.820  13.070 -0.4404  0.0767  0.2737
14113TIP3    H163754   6.026   3.872  13.128 -0.1949 -0.0473  0.1514
14113TIP3    H263755   5.902   3.881  13.041  0.5102  0.6748 -0.7960
14114TIP3   OH263756   3.996   3.807   2.185  0.1476  0.2021  0.2561
14114TIP3    H163757   3.990   3.734   2.123  1.8637 -0.1382  0.4305
14114TIP3    H263758   3.907   3.842   2.190 -0.6023 -1.5390 -0.2318
14115TIP3   OH263759   4.139   2.433  12.484  0.1995  0.0075  0.2318
14115TIP3    H163760   4.157   2.384  12.565  0.7849  0.8323  0.6129
14115TIP3    H263761   4.213   2.413  12.427 -0.5883 -1.1883 -0.4226
14116TIP3   OH263762   0.660   2.463   4.592 -0.1760  0.6015 -0.2211
14116TIP3    H163763   0.565   2.479   4.592 -0.5359 -1.2673 -0.5540
14116TIP3    H263764   0.670   2.384   4.539  1.3891 -0.3065  1.3562
14117TIP3   OH263765   4.864   2.425  14.386 -0.1019 -0.4389 -0.3164
14117TIP3    H163766   4.915   2.506  14.378 -0.8715 -0.0754 -1.9411
14117TIP3    H263767   4.929   2.357  14.405  0.4495  0.6643  2.2179
14118TIP3   OH263768   0.906   1.007   3.419  0.2859  0.2002 -0.1017
14118TIP3    H163769   0.837   1.007   3.353 -0.8993  1.1037  1.0671
14118TIP3    H263770   0.897   0.924   3.465 -0.9102  0.8436  0.8816
14119TIP3   OH263771   3.022   1.159  11.540 -0.0816 -0.7361 -0.3649
14119TIP3    H163772   2.952   1.165  11.475  0.1298 -0.2833 -0.5554
14119TIP3    H263773   2.991   1.212  11.614 -0.0683 -0.7790 -0.3285
14120TIP3   OH263774   6.454   3.759  14.447  0.1890  0.3565  0.3955
14120TIP3    H163775   6.538   3.720  14.422  0.3089  0.1760  1.0497
14120TIP3    H263776   6.477   3.833  14.503 -0.0757  0.5318  0.2740
14121TIP3   OH263777   4.956   4.201  17.172  0.4158 -0.2038 -0.1270
14121TIP3    H163778   4.933   4.120  17.217  0.3543 -0.0017  0.2077
14121TIP3    H263779   4.933   4.271  17.234  2.2122  0.0058  0.3689
14122TIP3   OH263780   2.080   0.798   2.603 -0.2637  0.1112  0.3886
14122TIP3    H163781   2.097   0.774   2.694  0.0181 -1.8867 -0.1298
14122TIP3    H263782   2.140   0.870   2.585  1.9870 -1.5362  0.9071
14123TIP3   OH263783   1.776   5.838   2.432  0.2710 -0.5705 -0.9443
14123TIP3    H163784   1.770   5.831   2.528  0.4952  2.6425 -0.5563
14123TIP3    H263785   1.869   5.855   2.415  0.1544 -0.6443 -1.6819
14124TIP3   OH263786   5.860   3.702   1.414  0.4626  0.0778  0.8122
14124TIP3    H163787   5.923   3.749   1.470  0.4760 -0.9180  1.6730
14124TIP3    H263788   5.785   3.686   1.472  0.3733 -0.7657  0.4665
14125TIP3   OH263789   4.266   5.559  12.662 -0.1657  0.4563 -0.0053
14125TIP3    H163790   4.326   5.534  12.591 -0.5038 -1.4853  0.3482
14125TIP3    H263791   4.186   5.586  12.617 -0.6480 -1.5039 -0.3817
14126TIP3   OH263792   3.465   2.881  16.744  0.2175 -0.3282 -0.1814
14126TIP3    H163793   3.466   2.977  16.746 -2.8403 -0.2030  1.2784
14126TIP3    H263794   3.419   2.860  16.663  0.8634 -0.6058 -0.4869
14127TIP3   OH263795   1.591   0.351  14.887 -0.1289  0.0643  0.2202
14127TIP3    H163796   1.548   0.266  14.873  0.1707 -0.3533  1.6476
14127TIP3    H263797   1.520   0.415  14.881 -0.6228 -0.4317  0.6162
14128TIP3   OH263798   1.523   1.456   4.244 -0.5299  0.3539 -0.7897
14128TIP3    H163799   1.474   1.503   4.176  0.9817  1.6114 -1.0641
14128TIP3    H263800   1.544   1.524   4.309  1.5470  0.0464 -1.0948
14129TIP3   OH263801   3.526   4.909  12.797  0.3498 -0.4795  0.6717
14129TIP3    H163802   3.502   4.816  12.797  0.9565 -0.6423  0.5813
14129TIP3    H263803   3.485   4.944  12.718 -0.3533 -0.5385  1.0013
14130TIP3   OH263804   0.913   0.942   1.537  0.1696  0.0355 -0.3404
14130TIP3    H163805   0.934   0.967   1.447  0.4985  2.2690  0.2877
14130TIP3    H263806   0.840   0.999   1.561  1.2770  0.8272  1.3716
14131TIP3   OH263807   3.317   1.776   1.137 -0.0269 -0.3410  0.9102
14131TIP3    H163808   3.308   1.705   1.074  1.5867 -0.2842  0.5697
14131TIP3    H263809   3.362   1.736   1.212  0.0107  0.0934  1.1257
14132TIP3   OH263810   3.624   0.041   4.013 -0.2844  0.4159  0.5882
14132TIP3    H163811   3.655   0.057   4.102  0.8686  0.1699  0.2404
14132TIP3    H263812   3.610  -0.053   4.009 -1.9644  0.6158  1.0057
14133TIP3   OH263813   5.953   4.160  15.057  0.4097 -0.0653 -0.1301
14133TIP3    H163814   5.898   4.238  15.055 -1.5135 -1.3445  0.0393
14133TIP3    H263815   5.969   4.139  14.965 -2.7461 -1.8370 -0.4135
14134TIP3   OH263816   4.125   3.708   5.128  0.1318  0.3170 -0.1501
14134TIP3    H163817   4.121   3.694   5.034 -2.2849 -0.7576  0.0381
14134TIP3    H263818   4.051   3.658   5.163  0.3131  1.5518  2.2107
14135TIP3   OH263819   4.570   4.891  10.852 -0.1350  0.2305  0.0094
14135TIP3    H163820   4.585   4.844  10.770  2.5495  2.1746 -0.7896
14135TIP3    H263821   4.486   4.936  10.840 -0.7416 -1.0853 -0.8370
14136TIP3   OH263822   1.169   6.392   2.401  0.2680  0.2624 -0.1487
14136TIP3    H163823   1.079   6.419   2.417 -0.5845 -1.7945 -1.0402
14136TIP3    H263824   1.206   6.462   2.347 -1.1049  0.6940 -0.5710
14137TIP3   OH263825   4.599   0.218   5.299 -0.5879 -0.0706  0.1735
14137TIP3    H163826   4.662   0.220   5.371 -1.6762  1.1281  1.1344
14137TIP3    H263827   4.614   0.299   5.251 -1.2925  0.1584  0.3285
14138TIP3   OH263828   1.655   2.045   2.297 -0.2137  0.2061 -0.9314
14138TIP3    H163829   1.613   1.969   2.259 -1.3871  0.5925 -0.4322
14138TIP3    H263830   1.605   2.065   2.376  1.4047  0.1788  0.1634
14139TIP3   OH263831   5.482   5.188   0.096 -0.0948  0.0370  0.4695
14139TIP3    H163832   5.561   5.239   0.077 -1.3026  1.9675  0.2321
14139TIP3    H263833   5.476   5.126   0.024  0.9668  0.1528  0.2610
14140TIP3   OH263834   2.614   3.380   4.164 -0.1712 -0.4069 -0.3854
14140TIP3    H163835   2.620   3.302   4.109  0.0463  1.6212 -3.5236
14140TIP3    H263836   2.704   3.399   4.189 -0.0675 -0.4928 -0.6832
14141TIP3   OH263837   3.028   0.941  12.705 -0.0065  0.2779 -0.4164
14141TIP3    H163838   3.095   0.888  12.747  0.7148 -1.5417 -3.5052
14141TIP3    H263839   2.965   0.961  12.774  1.4742 -1.7228  1.6392
14142TIP3   OH263840   4.589   2.414   6.539 -0.0916 -0.1316 -0.2865
14142TIP3    H163841   4.672   2.428   6.494  0.0272 -0.6552 -0.2405
14142TIP3    H263842   4.544   2.498   6.535  0.4651  0.1652 -0.2644
14143TIP3   OH263843   5.688   5.725  11.082 -0.1031  0.5793 -1.0389
14143TIP3    H163844   5.659   5.675  11.158  0.0339 -0.4650 -1.6621
14143TIP3    H263845   5.637   5.691  11.009  4.0657 -3.0583 -2.7126
14144TIP3   OH263846   4.919   6.655   4.469 -0.1300  0.2022 -0.0796
14144TIP3    H163847   4.844   6.661   4.528  0.5914 -0.0060  0.8913
14144TIP3    H263848   4.925   6.562   4.447 -0.1415  0.2173 -0.1480
14145TIP3   OH263849   3.840   5.210   5.042  0.3823  0.3436 -0.0665
14145TIP3    H163850   3.851   5.296   5.083  1.3880 -0.8500  2.3553
14145TIP3    H263851   3.767   5.170   5.089  0.8454 -0.6609 -0.1779
14146TIP3   OH263852   3.271   6.280  14.660  0.3253  0.2076 -0.1023
14146TIP3    H163853   3.318   6.317  14.585  0.0366  2.7671  0.9001
14146TIP3    H263854   3.195   6.238  14.621  0.1682  1.4990 -1.2782
14147TIP3   OH263855   1.187   3.243   2.019  0.0675 -0.6791 -0.0476
14147TIP3    H163856   1.134   3.289   2.085  0.5148 -0.2186 -0.0090
14147TIP3    H263857   1.252   3.195   2.070  0.9209  0.3108 -0.1785
14148TIP3   OH263858   1.682   1.244  11.479 -0.2735  0.5832  0.4028
14148TIP3    H163859   1.716   1.154  11.473 -0.4302  0.4989  0.7559
14148TIP3    H263860   1.754   1.294  11.518 -0.5561  0.3988  1.1762
14149TIP3   OH263861   0.831   5.005  13.354  0.1421 -0.5569  0.5747
14149TIP3    H163862   0.842   4.910  13.349  0.6714 -0.5100  0.7819
14149TIP3    H263863   0.834   5.034  13.263  2.6835 -0.4681  0.5965
14150TIP3   OH263864   1.941   6.594   2.555  0.4668 -0.2611  0.4072
14150TIP3    H163865   1.885   6.564   2.626  1.9968 -1.1083  1.3102
14150TIP3    H263866   1.908   6.548   2.477  0.9714 -2.1313  1.2452
14151TIP3   OH263867   5.942   2.485   3.879  0.5658  0.0385  0.0641
14151TIP3    H163868   5.854   2.479   3.842  0.8252 -0.3542 -0.5092
14151TIP3    H263869   5.939   2.562   3.937 -0.1061  0.1147 -0.0669
14152TIP3   OH263870   2.021   3.423  13.518 -0.4342  0.2916  0.0722
14152TIP3    H163871   2.033   3.495  13.580 -1.2988  1.0962 -0.6691
14152TIP3    H263872   2.073   3.352  13.554  1.2685  1.5881  0.2955
14153TIP3   OH263873   0.260   0.422   0.727 -0.3227  0.1776  0.1356
14153TIP3    H163874   0.192   0.414   0.794 -1.3755  0.2678 -0.8966
14153TIP3    H263875   0.273   0.517   0.718 -2.9475  0.4392 -2.4133
14154TIP3   OH263876   0.078   3.372   3.980 -0.1986  0.4571 -0.0448
14154TIP3    H163877   0.030   3.373   3.898  1.3118  0.6124 -0.9588
14154TIP3    H263878   0.161   3.415   3.960  0.4184  0.0121  1.4246
14155TIP3   OH263879   2.448   6.106  13.918 -0.1255  0.1500 -0.1726
14155TIP3    H163880   2.417   6.196  13.911  0.2369  0.2317 -0.7975
14155TIP3    H263881   2.370   6.055  13.940 -0.3876  0.5730 -0.1175
14156TIP3   OH263882   2.348   2.682   0.941 -0.3752  0.4146  0.1482
14156TIP3    H163883   2.314   2.676   0.851 -1.4713  1.2274  0.4947
14156TIP3    H263884   2.270   2.676   0.996  0.1222  1.5781  0.9953
14157TIP3   OH263885   1.992   2.339  14.627  0.1048 -0.3458  0.1699
14157TIP3    H163886   1.999   2.390  14.546 -0.9502  1.2168  1.0080
14157TIP3    H263887   2.079   2.300  14.638  1.0313  1.4240 -0.4525
14158TIP3   OH263888   6.174   5.017  12.239 -0.3531 -0.4396  0.0754
14158TIP3    H163889   6.263   5.050  12.255  1.3226 -4.1836 -0.3442
14158TIP3    H263890   6.136   5.007  12.326 -0.1175  0.5736  0.3014
14159TIP3   OH263891   2.092   6.165   3.044  0.1091  0.8190  0.0110
14159TIP3    H163892   2.153   6.091   3.041  0.2100  0.8977 -2.7459
14159TIP3    H263893   2.073   6.177   3.137 -1.6511 -4.0586  0.5421
14160TIP3   OH263894   2.096   0.081  11.123 -0.2150 -0.6099 -0.3741
14160TIP3    H163895   2.121   0.071  11.032  0.9214  1.0482 -0.2849
14160TIP3    H263896   2.035   0.155  11.123  0.7563  0.2259  0.3279
14161TIP3   OH263897   3.952   1.566  10.396  0.5658 -0.3578  0.0681
14161TIP3    H163898   3.970   1.649  10.441  0.7935 -0.4049  0.0633
14161TIP3    H263899   4.037   1.536  10.365  0.4820 -0.5885  0.0588
14162TIP3   OH263900   6.260   1.649   1.391 -0.0429  0.1774 -0.3707
14162TIP3    H163901   6.266   1.664   1.485 -0.2052  2.4012 -0.6618
14162TIP3    H263902   6.242   1.555   1.383 -0.9945  0.1007  1.8538
14163TIP3   OH263903   2.993   6.625  12.270  0.4752 -0.1827 -0.1320
14163TIP3    H163904   2.935   6.663  12.205  0.1399 -0.1503  0.1841
14163TIP3    H263905   3.021   6.541  12.232 -0.8324 -0.8258  0.2760
14164TIP3   OH263906   5.619   3.820  11.999 -0.0721 -0.2948  0.5597
14164TIP3    H163907   5.663   3.766  12.065  1.5938 -1.1684 -1.1889
14164TIP3    H263908   5.690   3.858  11.948 -1.3297 -0.4801 -1.4169
14165TIP3   OH263909   2.149   6.144  13.516  0.1428  0.2475  0.4421
14165TIP3    H163910   2.232   6.191  13.528 -0.3325  0.9378  1.1354
14165TIP3    H263911   2.097   6.203  13.461 -0.1671  0.1701  0.6509
14166TIP3   OH263912   3.325   2.744  12.725 -0.3704  0.2929 -0.4916
14166TIP3    H163913   3.309   2.824  12.775 -0.5427 -0.0921  0.0791
14166TIP3    H263914   3.340   2.677  12.791  3.1304  0.4756 -0.9235
14167TIP3   OH263915   2.427   5.177  16.800 -0.2621  0.0260  0.1607
14167TIP3    H163916   2.448   5.091  16.837  0.1129  0.1142  0.1529
14167TIP3    H263917   2.392   5.227  16.873  0.6019  0.2433  0.4286
14168TIP3   OH263918   0.789   6.280  11.771  0.1482  0.6349  0.3384
14168TIP3    H163919   0.802   6.348  11.706  0.3812 -1.2029 -1.6567
14168TIP3    H263920   0.873   6.236  11.778  0.4290  1.4169  2.7296
14169TIP3   OH263921   5.694   1.822  16.558  0.5889 -0.0799  0.2897
14169TIP3    H163922   5.655   1.783  16.636 -0.5488 -1.5345 -0.9476
14169TIP3    H263923   5.649   1.906  16.549  0.1931 -0.2313  0.7868
14170TIP3   OH263924   4.355   4.634   3.500  0.2393 -0.1845  0.4862
14170TIP3    H163925   4.430   4.685   3.469 -0.3041 -0.0424 -0.6239
14170TIP3    H263926   4.288   4.700   3.519 -0.0147 -0.3937  0.3160
14171TIP3   OH263927   5.820   1.126  10.570  0.3564 -0.4800  0.3441
14171TIP3    H163928   5.893   1.136  10.630  0.3205 -1.7396  0.6135
14171TIP3    H263929   5.833   1.195  10.504  1.1881 -0.0212  0.9759
14172TIP3   OH263930   1.102   3.069   5.752 -0.3186 -0.0162 -0.7429
14172TIP3    H163931   1.160   3.097   5.823 -0.7222  0.7026 -0.6928
14172TIP3    H263932   1.161   3.056   5.678  0.3669 -2.4024  0.1137
14173TIP3   OH263933   0.317   4.687   2.141 -0.2359  0.3557  0.4476
14173TIP3    H163934   0.389   4.678   2.203  1.7838  1.5745 -1.5505
14173TIP3    H263935   0.270   4.765   2.169 -0.3840 -0.0591  1.3778
14174TIP3   OH263936   4.131   5.082  16.897 -0.3839  0.0333 -0.5618
14174TIP3    H163937   4.183   5.054  16.822  1.3382 -0.6690  0.8106
14174TIP3    H263938   4.153   5.019  16.966 -0.9437  1.3690  0.8937
14175TIP3   OH263939   4.609   2.618  15.146  0.4503  0.4146 -0.4886
14175TIP3    H163940   4.692   2.587  15.111  0.6107 -0.3330  0.4969
14175TIP3    H263941   4.543   2.579  15.088  0.7493  0.1627 -0.6665
14176TIP3   OH263942   4.715   1.924   1.330 -0.4181 -0.0936  0.1285
14176TIP3    H163943   4.777   1.936   1.258 -0.9030 -0.0068 -0.2812
14176TIP3    H263944   4.770   1.919   1.408  0.0498  1.2216 -0.0830
14177TIP3   OH263945   1.897   3.525   1.710 -0.0958 -0.2697  0.4693
14177TIP3    H163946   1.891   3.590   1.780  0.5276  1.5940 -1.1109
14177TIP3    H263947   1.930   3.446   1.753  0.7010  0.9413  2.1853
14178TIP3   OH263948   6.257   0.219   4.372  0.2617  0.3868  0.3633
14178TIP3    H163949   6.316   0.199   4.298  0.1812  0.4485  0.2825
14178TIP3    H263950   6.314   0.216   4.449  1.3768  4.6549 -0.0367
14179TIP3   OH263951   6.619   6.576  14.574  0.4131  0.3839 -0.1619
14179TIP3    H163952   6.697   6.569  14.629 -0.5190  0.8613  1.3044
14179TIP3    H263953   6.574   6.492  14.584  0.3815  0.3669 -0.4323
14180TIP3   OH263954   0.740   4.695  13.042 -0.1219 -0.2579  0.4335
14180TIP3    H163955   0.695   4.689  12.958  0.2242 -0.3930  0.2550
14180TIP3    H263956   0.832   4.684  13.020  0.0281  0.3289  0.7572
14181TIP3   OH263957   1.947   1.479  15.153 -0.3969 -0.3736 -0.8676
14181TIP3    H163958   1.901   1.508  15.232  0.4228  1.4079 -0.9935
14181TIP3    H263959   1.985   1.395  15.177  1.0079  0.7549  1.1519
14182TIP3   OH263960   5.363   0.712  14.262 -0.2608  0.1986  0.2497
14182TIP3    H163961   5.362   0.618  14.242  1.1655  0.6401 -2.3560
14182TIP3    H263962   5.451   0.741  14.237 -0.7842  2.2968  0.6296
14183TIP3   OH263963   6.456   5.882  14.205  0.3821 -0.3421  0.0814
14183TIP3    H163964   6.404   5.867  14.284 -0.6537 -0.8729 -0.6905
14183TIP3    H263965   6.543   5.847  14.227  0.6627  1.1596  1.6079
14184TIP3   OH263966   2.217   6.539   2.502 -0.0518  0.3337 -0.6602
14184TIP3    H163967   2.250   6.491   2.577  0.6232  0.8577 -0.6135
14184TIP3    H263968   2.136   6.580   2.534 -0.7746 -0.9464 -0.7763
14185TIP3   OH263969   1.104   3.010   2.341  0.3583  0.2741  0.4738
14185TIP3    H163970   1.136   3.081   2.397  2.3078 -0.1108 -0.0801
14185TIP3    H263971   1.183   2.964   2.313 -0.6506 -0.4213 -1.4278
14186TIP3   OH263972   3.453   2.548  13.746 -0.5616  0.2435  0.0559
14186TIP3    H163973   3.468   2.522  13.837 -0.5710 -0.3852 -0.1172
14186TIP3    H263974   3.368   2.509  13.724  0.5740 -1.7250 -0.9959
14187TIP3   OH263975   3.130   2.413  16.256  0.2802 -0.3524 -0.8248
14187TIP3    H163976   3.135   2.443  16.165 -0.8195 -1.3703 -1.2363
14187TIP3    H263977   3.193   2.341  16.261 -0.8108 -1.3680 -1.2400
14188TIP3   OH263978   6.123   2.922  10.717 -0.4242  0.0885  0.1771
14188TIP3    H163979   6.160   2.834  10.717 -0.8504 -0.1316 -1.7546
14188TIP3    H263980   6.191   2.976  10.675 -1.6119 -0.0636 -2.1087
14189TIP3   OH263981   6.421   0.080  10.855 -0.0368 -0.1579 -0.0552
14189TIP3    H163982   6.498   0.112  10.901  0.8087 -1.0127 -0.8311
14189TIP3    H263983   6.440   0.097  10.763 -1.2995  0.6802 -0.1883
14190TIP3   OH263984   6.083   3.583  14.547 -0.1425  0.0600 -0.0333
14190TIP3    H163985   6.046   3.573  14.459  0.3868  0.4687 -0.3049
14190TIP3    H263986   6.007   3.585  14.605 -0.4740 -0.7731 -0.4204
14191TIP3   OH263987   3.973   5.485  14.636  0.0053 -0.2668  0.1394
14191TIP3    H163988   3.955   5.478  14.543 -1.9246  0.2885  0.4247
14191TIP3    H263989   4.061   5.521  14.641  0.1838 -0.4064 -1.4467
14192TIP3   OH263990   5.957   1.157   2.007 -0.3393  0.2869 -0.0021
14192TIP3    H163991   5.987   1.247   1.999  0.1768  0.1438  0.2721
14192TIP3    H263992   5.948   1.143   2.101 -0.4240  0.0537 -0.0436
14193TIP3   OH263993   0.537   0.735   6.437 -0.4584 -0.4961  0.4602
14193TIP3    H163994   0.484   0.656   6.444  0.5669 -1.6891 -2.8953
14193TIP3    H263995   0.475   0.804   6.418 -1.1207 -1.2723 -0.3023
14194TIP3   OH263996   4.942   3.584  15.256 -0.1012  0.3566  0.0610
14194TIP3    H163997   4.941   3.563  15.349 -2.2950  1.4248  0.3651
14194TIP3    H263998   5.011   3.650  15.247  0.0772  0.3059  0.9485
14195TIP3   OH263999   0.342   2.903   1.496  0.0239 -0.6772  0.5174
14195TIP3    H164000   0.309   2.859   1.575 -0.1471  0.9257  1.3798
14195TIP3    H264001   0.397   2.837   1.453 -0.3720 -1.7834  1.6360
14196TIP3   OH264002   3.520   4.585   5.512 -0.4592 -0.5447  0.5474
14196TIP3    H164003   3.572   4.644   5.568  1.9186 -0.6454 -1.3731
14196TIP3    H264004   3.473   4.643   5.453  2.4299 -0.3949 -1.8151
14197TIP3   OH264005   6.638   4.405   0.725  0.1780  0.4061  0.1110
14197TIP3    H164006   6.703   4.398   0.655  1.0258  3.3354  0.4765
14197TIP3    H264007   6.559   4.363   0.690  0.9798  0.6137 -2.0599
14198TIP3   OH264008   1.154   1.316  14.910  0.1499  0.1350  0.3409
14198TIP3    H164009   1.242   1.342  14.936  0.2319 -0.8921  1.1380
14198TIP3    H264010   1.119   1.393  14.865  1.1883  0.8069  0.6429
14199TIP3   OH264011   2.503   4.581   1.030 -0.6153 -0.3260 -0.0926
14199TIP3    H164012   2.416   4.574   0.993 -0.0930 -1.2641 -1.1841
14199TIP3    H264013   2.547   4.499   1.007  1.0518  0.7304 -0.9188
14200TIP3   OH264014   1.918   4.484  13.568 -0.3071 -0.3095  0.1735
14200TIP3    H164015   1.950   4.412  13.513 -2.3944 -0.2010 -1.3121
14200TIP3    H264016   1.997   4.523  13.605  1.0095 -2.0843 -0.6027
14201TIP3   OH264017   0.088   4.546  11.083 -0.0340  0.0008 -0.5165
14201TIP3    H164018   0.052   4.553  11.172 -0.0568  1.6255 -0.6233
14201TIP3    H264019   0.020   4.501  11.033  0.4790 -2.0827  0.5233
14202TIP3   OH264020   3.126   3.667  16.180  0.0479 -0.5289 -0.0269
14202TIP3    H164021   3.178   3.605  16.231 -0.2352 -0.1996  0.6857
14202TIP3    H264022   3.078   3.613  16.118  2.5419 -0.7173 -1.9567
14203TIP3   OH264023   0.342   2.273   2.966  0.4633  0.1332  0.0440
14203TIP3    H164024   0.285   2.225   3.026  1.0734 -0.0128  0.5193
14203TIP3    H264025   0.284   2.301   2.896  0.2565 -2.2486 -0.8505
14204TIP3   OH264026   1.991   3.722  13.383  0.2937  0.2855 -0.1817
14204TIP3    H164027   2.046   3.786  13.338 -0.7002  0.7496 -0.7619
14204TIP3    H264028   1.958   3.767  13.460  0.6573  0.0316  0.1253
14205TIP3   OH264029   4.763   1.233   1.328  0.8274  0.3988 -0.0040
14205TIP3    H164030   4.800   1.274   1.250  0.3759 -0.6191 -0.7704
14205TIP3    H264031   4.674   1.268   1.334  0.6444 -0.0006 -0.3214
14206TIP3   OH264032   3.325   4.479   5.847  0.1554 -0.0325 -0.6119
14206TIP3    H164033   3.389   4.534   5.891 -0.5262 -0.7772  1.4168
14206TIP3    H264034   3.307   4.408   5.909 -1.5063 -0.6734 -1.7457
14207TIP3   OH264035   1.045   0.340   2.783 -0.0107 -0.4866  0.2726
14207TIP3    H164036   0.952   0.331   2.762 -0.6298  1.6471  1.7517
14207TIP3    H264037   1.059   0.277   2.854 -0.0647 -1.4473 -0.5409
14208TIP3   OH264038   3.580   1.738   6.410 -0.4261 -0.3394  0.1308
14208TIP3    H164039   3.490   1.731   6.443 -0.5673 -2.0927 -0.5259
14208TIP3    H264040   3.635   1.730   6.487 -0.8120  0.7154  0.5369
14209TIP3   OH264041   3.120   5.059   0.723 -0.5787  0.4403  0.0877
14209TIP3    H164042   3.117   5.022   0.811 -1.0795 -0.6248 -0.3635
14209TIP3    H264043   3.203   5.028   0.687 -0.6875  0.3159 -0.0549
14210TIP3   OH264044   3.483   1.230  11.710 -0.2402 -0.0122  0.2824
14210TIP3    H164045   3.395   1.198  11.730  0.0906 -0.5019  1.0018
14210TIP3    H264046   3.484   1.320  11.743 -0.9526  0.5382 -1.1209
14211TIP3   OH264047   4.443   0.300   3.414 -0.2085  0.2356  0.3413
14211TIP3    H164048   4.511   0.298   3.481  2.9462  2.7057 -2.4263
14211TIP3    H264049   4.442   0.212   3.378  2.7245  0.4323 -0.4619
14212TIP3   OH264050   2.163   4.185   2.338  0.6379 -0.6846  0.4089
14212TIP3    H164051   2.179   4.174   2.244 -0.8709  0.0979  0.0221
14212TIP3    H264052   2.239   4.145   2.381  1.6943 -0.4144 -1.1510
14213TIP3   OH264053   6.131   0.998   1.360  0.0847  0.0576  0.3294
14213TIP3    H164054   6.061   0.933   1.354 -0.7801  1.0688 -0.9368
14213TIP3    H264055   6.093   1.071   1.408  0.2533  0.6230 -0.3763
14214TIP3   OH264056   4.769   4.639  11.335 -0.0390  0.2040 -0.0034
14214TIP3    H164057   4.736   4.553  11.307  0.5462 -0.4728  1.2797
14214TIP3    H264058   4.709   4.667  11.404  1.0559 -0.2842  1.2042
14215TIP3   OH264059   2.759   5.079  15.181  0.3117  0.4020 -0.2549
14215TIP3    H164060   2.829   5.019  15.207 -1.4816 -1.1068  1.3633
14215TIP3    H264061   2.797   5.130  15.109  2.0311 -2.4558 -1.5429
14216TIP3   OH264062   4.173   5.697  17.135  0.5872 -0.0748 -0.3076
14216TIP3    H164063   4.110   5.713  17.065  0.5945 -0.9952 -0.5263
14216TIP3    H264064   4.215   5.782  17.148 -0.6800  0.5546 -0.1634
14217TIP3   OH264065   5.348   3.262   4.805 -0.8560  0.0829 -0.2422
14217TIP3    H164066   5.432   3.264   4.759 -0.1649  0.9339  0.9921
14217TIP3    H264067   5.285   3.295   4.741 -0.3209 -0.9021 -1.3044
14218TIP3   OH264068   3.056   1.935   1.384  0.0325  0.3513  0.0511
14218TIP3    H164069   2.974   1.919   1.431 -0.1519  2.0091  0.3664
14218TIP3    H264070   3.041   1.898   1.297 -1.3926  1.3740 -0.1662
14219TIP3   OH264071   6.210   0.143  16.219  0.7195 -0.6561 -0.4130
14219TIP3    H164072   6.245   0.058  16.245  0.9957 -0.5940 -0.5854
14219TIP3    H264073   6.240   0.204  16.287  1.4153 -0.4996 -0.8604
14220TIP3   OH264074   4.310   4.953  10.792 -0.1458  0.0069  0.5693
14220TIP3    H164075   4.283   4.865  10.766  1.4193 -1.2105  2.7488
14220TIP3    H264076   4.296   5.006  10.714 -0.5944 -2.2796 -1.0089
14221TIP3   OH264077   5.757   0.337   5.090  0.0589 -0.2805 -0.2490
14221TIP3    H164078   5.745   0.422   5.132 -0.4156 -1.4719  2.2361
14221TIP3    H264079   5.679   0.325   5.036 -0.7998  0.0786  0.8845
14222TIP3   OH264080   2.863   3.646   4.027 -0.0112  0.1888 -0.0785
14222TIP3    H164081   2.927   3.623   3.959 -1.5772 -0.8514 -1.2609
14222TIP3    H264082   2.839   3.562   4.066 -1.6776  0.3803 -0.6294
14223TIP3   OH264083   0.135   3.708  13.803 -0.0862 -0.4569 -0.5205
14223TIP3    H164084   0.087   3.626  13.795  1.2989 -1.1998 -1.9442
14223TIP3    H264085   0.109   3.759  13.726 -1.2733  0.6658  0.5856
14224TIP3   OH264086   6.365   4.603   2.931 -0.2486  0.2804 -0.4291
14224TIP3    H164087   6.411   4.660   2.870  0.2654  1.3298  0.8829
14224TIP3    H264088   6.276   4.637   2.933 -0.4286 -0.1363 -1.0291
14225TIP3   OH264089   0.104   2.259  12.365  0.1285  0.0898  0.6042
14225TIP3    H164090   0.178   2.221  12.413  0.0384 -1.2544 -0.2921
14225TIP3    H264091   0.088   2.342  12.410  0.4579 -0.8117  2.4901
14226TIP3   OH264092   6.110   5.957  12.849  0.1500 -0.1490  0.1060
14226TIP3    H164093   6.025   5.993  12.824 -0.1131 -1.3114 -0.7767
14226TIP3    H264094   6.097   5.923  12.937  0.3198  1.5452  0.8375
14227TIP3   OH264095   5.841   1.868  14.232  0.0500  0.1313  0.6493
14227TIP3    H164096   5.769   1.822  14.276  0.0012  2.5464  3.3667
14227TIP3    H264097   5.799   1.944  14.191  0.6181 -0.2699 -0.7286
14228TIP3   OH264098   4.487   6.696   2.143 -0.1054 -0.1147 -0.6215
14228TIP3    H164099   4.446   6.628   2.195 -2.5974  0.1015 -2.1041
14228TIP3    H264100   4.502   6.768   2.205 -0.7370 -0.7306  0.2717
14229TIP3   OH264101   0.591   0.774   0.530  0.7788  0.0574 -0.3066
14229TIP3    H164102   0.667   0.830   0.549  0.8985 -0.3691  0.5413
14229TIP3    H264103   0.607   0.742   0.442  2.5130 -1.4325  0.4662
14230TIP3   OH264104   0.168   5.732  13.614 -0.1119 -0.0821 -0.0856
14230TIP3    H164105   0.253   5.689  13.602 -0.3070 -0.2352 -1.0593
14230TIP3    H264106   0.105   5.659  13.617 -0.1484 -0.0094  1.3683
14231TIP3   OH264107   0.011   1.220  13.881  0.3704 -0.2556 -0.5477
14231TIP3    H164108  -0.066   1.222  13.824 -0.2572  1.7483  0.2983
14231TIP3    H264109   0.064   1.294  13.853  1.7219 -1.2491 -0.6998
14232TIP3   OH264110   4.994   3.144   1.814 -0.1430 -0.7417  0.0385
14232TIP3    H164111   4.967   3.055   1.791 -1.8772 -0.2689  0.0589
14232TIP3    H264112   5.036   3.135   1.900 -0.3666 -1.5348  0.0752
14233TIP3   OH264113   1.209   3.820  16.472 -0.1721 -0.1483  0.1763
14233TIP3    H164114   1.293   3.789  16.506 -0.2390 -1.3995 -0.7021
14233TIP3    H264115   1.220   3.914  16.461  0.5332 -0.0281  1.6454
14234TIP3   OH264116   1.599   3.069  15.535  0.0008  0.4488 -0.1714
14234TIP3    H164117   1.528   3.005  15.546 -0.1216  0.6132 -0.0105
14234TIP3    H264118   1.617   3.069  15.441 -0.7441  0.9815 -0.3173
14235TIP3   OH264119   3.966   0.188   5.396 -0.0525  0.4127  0.9675
14235TIP3    H164120   3.951   0.188   5.301 -1.6775 -0.1209  1.1855
14235TIP3    H264121   4.014   0.107   5.413  0.9714  0.9187  0.5083
14236TIP3   OH264122   4.638   4.225  14.823 -0.1070 -0.0154 -0.0287
14236TIP3    H164123   4.675   4.151  14.774 -0.5759 -0.5536  0.4086
14236TIP3    H264124   4.544   4.207  14.825 -0.1069  0.0328  0.9881
14237TIP3   OH264125   0.272   3.590   4.282 -0.2118 -0.1148  0.3070
14237TIP3    H164126   0.364   3.609   4.301 -0.0991  0.5758 -0.8519
14237TIP3    H264127   0.253   3.639   4.202 -2.1437  1.4101  1.5827
14238TIP3   OH264128   3.665   6.327  16.567  0.2077 -0.1696  0.1584
14238TIP3    H164129   3.702   6.331  16.479 -0.2015 -0.4232 -0.0263
14238TIP3    H264130   3.731   6.369  16.623  1.4134 -1.8305  0.0473
14239TIP3   OH264131   2.068   5.268  13.216  0.2206 -0.1916 -0.5223
14239TIP3    H164132   2.096   5.353  13.182 -0.7623  0.9235  1.2489
14239TIP3    H264133   2.079   5.207  13.143  1.8898  1.2553 -1.5413
14240TIP3   OH264134   2.107   0.030   3.663  0.5046 -0.5251  0.2981
14240TIP3    H164135   2.037   0.080   3.620 -0.0573 -0.0568  1.7178
14240TIP3    H264136   2.179   0.031   3.599  0.1400  1.2048 -0.1414
14241TIP3   OH264137   6.000   4.331  13.642 -0.3521 -0.0454  0.2319
14241TIP3    H164138   5.944   4.254  13.639  1.0923 -1.1383  0.4494
14241TIP3    H264139   5.999   4.358  13.734  0.5398 -0.8818  0.4961
14242TIP3   OH264140   5.359   3.171   3.863  0.4465  0.3464  0.1180
14242TIP3    H164141   5.285   3.160   3.803  0.7767  0.1591 -0.2527
14242TIP3    H264142   5.322   3.149   3.949 -0.0749  0.8050  0.0203
14243TIP3   OH264143   5.200   3.193  15.053 -1.0438  0.0052 -0.1778
14243TIP3    H164144   5.227   3.186  15.144  0.2585 -0.0392 -0.5432
14243TIP3    H264145   5.281   3.215  15.006 -1.3836 -1.4402 -1.5098
14244TIP3   OH264146   2.298   1.639   3.747 -0.2350  0.4030 -0.1095
14244TIP3    H164147   2.286   1.626   3.841 -2.2165  0.0031 -0.3793
14244TIP3    H264148   2.215   1.613   3.708  0.1809  1.5767 -1.8987
14245TIP3   OH264149   6.206   6.270  12.555 -0.5691 -0.3639  0.2855
14245TIP3    H164150   6.182   6.184  12.521 -0.5085 -1.4237  2.7396
14245TIP3    H264151   6.130   6.299  12.604 -0.5649  1.0006 -0.4653
14246TIP3   OH264152   1.089   2.149  12.995  0.1020  0.1148  0.1313
14246TIP3    H164153   1.068   2.240  12.973  0.2836  0.3704  0.9996
14246TIP3    H264154   1.103   2.149  13.089 -0.7294 -0.9817  0.2791
14247TIP3   OH264155   5.687   3.635  10.360 -0.2846  0.1315 -0.3455
14247TIP3    H164156   5.671   3.729  10.367  0.7482  0.4806 -2.1737
14247TIP3    H264157   5.755   3.618  10.425 -1.5059  0.3141  1.0544
14248TIP3   OH264158   2.285   5.903  14.240 -0.0140 -0.4307  0.1622
14248TIP3    H164159   2.327   5.985  14.215 -2.0253  0.6928  0.2853
14248TIP3    H264160   2.302   5.895  14.334 -0.6391  0.3986  0.3633
14249TIP3   OH264161   3.289   6.009  15.957 -0.2708 -0.6196  0.6341
14249TIP3    H164162   3.320   6.070  16.024 -0.4732 -0.1728  0.3230
14249TIP3    H264163   3.212   5.968  15.997 -2.5303  2.1665 -0.5823
14250TIP3   OH264164   2.665   2.784   2.894 -0.1080  0.0955  0.4462
14250TIP3    H164165   2.685   2.690   2.894 -0.6121 -0.0169  0.9145
14250TIP3    H264166   2.603   2.796   2.822  2.7073  0.7143 -2.1096
14251TIP3   OH264167   2.793   6.296  16.092 -0.0515 -0.0952 -0.6727
14251TIP3    H164168   2.806   6.302  15.998 -2.1542  1.2159 -0.9531
14251TIP3    H264169   2.835   6.375  16.127  2.3723 -1.4802 -0.2066
14252TIP3   OH264170   3.506   5.812  13.222 -0.0378 -0.4746  0.8368
14252TIP3    H164171   3.559   5.807  13.143  1.0795 -1.9456  1.6258
14252TIP3    H264172   3.570   5.814  13.294 -0.8900  3.6514  1.7365
14253TIP3   OH264173   2.921   3.909   4.065  0.0019  0.1888 -0.1022
14253TIP3    H164174   2.947   3.934   4.154  0.7088  0.0360 -0.2627
14253TIP3    H264175   2.883   3.822   4.076  2.5988 -1.0678 -0.2918
14254TIP3   OH264176   0.605   3.583   4.904 -0.5192 -0.2985 -0.3458
14254TIP3    H164177   0.667   3.510   4.897 -0.9484 -0.5409 -2.0479
14254TIP3    H264178   0.644   3.640   4.970  0.9748 -0.9734 -0.5855
14255TIP3   OH264179   2.758   0.469  15.041 -0.0650  0.4196 -0.1486
14255TIP3    H164180   2.779   0.381  15.012 -0.1419 -0.2166  1.5881
14255TIP3    H264181   2.822   0.525  14.997  1.6095 -0.8037  0.6295
14256TIP3   OH264182   1.823   6.223   5.241  0.4181 -0.0547 -0.0970
14256TIP3    H164183   1.913   6.246   5.263  0.2620 -0.1147  0.6233
14256TIP3    H264184   1.831   6.145   5.186  0.8260  0.2078 -0.4142
14257TIP3   OH264185   0.494   0.012   5.476  0.5712  0.2181 -0.0858
14257TIP3    H164186   0.430   0.012   5.546 -2.0976 -0.0886 -2.3804
14257TIP3    H264187   0.529   0.102   5.477  0.7299  0.1804  1.6625
14258TIP3   OH264188   1.735   2.453   4.787 -0.1053  0.0024 -0.3115
14258TIP3    H164189   1.776   2.539   4.796 -0.9390  0.2531  2.0077
14258TIP3    H264190   1.798   2.392   4.825 -0.9528  0.1448  1.4774
14259TIP3   OH264191   1.474   1.769  15.176 -0.0873  0.5673  0.5366
14259TIP3    H164192   1.486   1.705  15.246 -0.3743 -1.3136 -1.0482
14259TIP3    H264193   1.550   1.758  15.120  0.1010  1.9918  0.4708
14260TIP3   OH264194   4.354   6.664   3.832  0.2839  0.3560 -0.1038
14260TIP3    H164195   4.418   6.660   3.903 -0.2186 -0.0371  0.3398
14260TIP3    H264196   4.402   6.699   3.757  0.7501  1.0264  0.5065
14261TIP3   OH264197   2.093   2.523  15.467 -0.2278  0.1990  0.7783
14261TIP3    H164198   2.118   2.431  15.462 -2.3656 -0.3942  0.0588
14261TIP3    H264199   2.114   2.549  15.557  0.8263 -0.8416  0.8487
14262TIP3   OH264200   4.539   5.739  13.292  0.7520  0.3542  0.2852
14262TIP3    H164201   4.455   5.693  13.297  1.5581 -1.2426 -0.2175
14262TIP3    H264202   4.520   5.818  13.242 -0.2312 -0.5798 -0.8773
14263TIP3   OH264203   2.350   1.318   4.628 -0.1596 -0.5932  0.2661
14263TIP3    H164204   2.346   1.232   4.671  1.5222 -0.7124  0.2587
14263TIP3    H264205   2.423   1.310   4.567 -1.2797  0.2029 -1.2436
14264TIP3   OH264206   0.731   1.720  13.330 -0.0166  0.1609 -0.7461
14264TIP3    H164207   0.795   1.711  13.259 -0.3901 -1.5435 -0.8926
14264TIP3    H264208   0.677   1.795  13.303  0.8725  0.5878 -1.4237
14265TIP3   OH264209   0.808   1.189   4.101 -0.1422  0.1697  0.1854
14265TIP3    H164210   0.750   1.160   4.172 -3.1791  4.9469  0.0685
14265TIP3    H264211   0.876   1.241   4.146  0.8224 -0.7752 -0.1362
14266TIP3   OH264212   3.423   4.116  11.637  0.2046 -0.2332  0.3834
14266TIP3    H164213   3.433   4.022  11.621  1.6728  0.0529 -0.6566
14266TIP3    H264214   3.497   4.138  11.694  0.3048  0.3978  0.0221
14267TIP3   OH264215   2.901   1.913  12.112  0.0427  0.1448  0.0555
14267TIP3    H164216   2.969   1.901  12.179  0.4636 -0.9560 -0.5498
14267TIP3    H264217   2.945   1.896  12.029 -0.5867  1.0569 -0.4880
14268TIP3   OH264218   3.143   3.638  12.190  0.0548  0.3654 -0.4042
14268TIP3    H164219   3.066   3.653  12.135  0.7245  1.8196 -0.9991
14268TIP3    H264220   3.111   3.584  12.262 -0.5502 -3.0895 -2.9613
14269TIP3   OH264221   2.372   4.834  13.281 -0.2337  0.1506 -0.3219
14269TIP3    H164222   2.466   4.847  13.289 -0.4543  1.8182  0.0163
14269TIP3    H264223   2.348   4.781  13.357  0.2886  0.5348  0.1151
14270TIP3   OH264224   2.515   3.744  15.869 -0.1458  0.5610  0.2890
14270TIP3    H164225   2.430   3.788  15.879 -0.4837  0.9514 -3.0312
14270TIP3    H264226   2.493   3.652  15.854  0.2605  0.1055  2.2451
14271TIP3   OH264227   1.023   0.366   1.048  0.5717  0.5765 -0.2472
14271TIP3    H164228   0.960   0.323   1.107  1.7657  1.0091  1.4057
14271TIP3    H264229   1.073   0.425   1.105  1.7868  1.0123 -1.7063
14272TIP3   OH264230   4.830   4.003   0.106  0.3021  0.4228  0.3923
14272TIP3    H164231   4.858   3.915   0.133  0.2967 -0.1769 -1.3895
14272TIP3    H264232   4.764   3.987   0.039  0.2391  1.7987  0.1046
14273TIP3   OH264233   6.287   6.095  14.169  0.3169 -0.3555  0.1204
14273TIP3    H164234   6.204   6.069  14.210  0.3766 -0.2761  0.2922
14273TIP3    H264235   6.348   6.024  14.190  0.6478  0.2005  1.1215
14274TIP3   OH264236   1.225   5.588   4.880  0.1636 -0.3813  0.0637
14274TIP3    H164237   1.215   5.537   4.800 -0.4732 -0.7300  0.3520
14274TIP3    H264238   1.209   5.525   4.951  1.4009 -0.2323  0.4890
14275TIP3   OH264239   5.505   1.647  12.541  0.0495  0.0185  0.3458
14275TIP3    H164240   5.417   1.612  12.525  0.2781 -0.6313  0.4865
14275TIP3    H264241   5.547   1.643  12.455  0.0597  0.0066  0.3510
14276TIP3   OH264242   3.068   5.885  12.218 -0.1779 -0.7432  0.0967
14276TIP3    H164243   3.019   5.947  12.272  0.3229 -0.5812  0.3640
14276TIP3    H264244   3.018   5.881  12.136 -0.1663  0.0874  0.0421
14277TIP3   OH264245   3.764   1.333   5.688  0.0324 -0.4048  0.0706
14277TIP3    H164246   3.684   1.385   5.692 -0.5175 -1.2755  0.8080
14277TIP3    H264247   3.784   1.314   5.780  0.8408 -0.5650 -0.1340
14278TIP3   OH264248   0.728   5.753  13.689  0.1142 -0.7370  0.0200
14278TIP3    H164249   0.655   5.809  13.663  0.1329 -0.5008  0.4583
14278TIP3    H264250   0.784   5.810  13.742  1.1287 -0.6426 -1.1233
14279TIP3   OH264251   4.578   6.041   4.080  0.1598  0.3460  0.0565
14279TIP3    H164252   4.600   6.101   4.151 -0.2278  0.0950  0.3925
14279TIP3    H264253   4.626   5.961   4.100  1.0740  0.6906 -0.6566
14280TIP3   OH264254   6.043   6.363   1.003 -0.4690  0.0617  0.5216
14280TIP3    H164255   5.987   6.376   1.079  2.4589 -0.4251  2.9615
14280TIP3    H264256   6.119   6.419   1.019  0.6292 -0.6654 -1.6646
14281TIP3   OH264257   5.315   5.362  13.144  0.3055 -0.1761 -0.3963
14281TIP3    H164258   5.269   5.291  13.100 -0.6832  1.2470 -1.7825
14281TIP3    H264259   5.408   5.347  13.124  0.5415 -2.8046  2.0228
14282TIP3   OH264260   2.056   0.386  16.583 -0.4058 -0.1429 -0.0667
14282TIP3    H164261   2.034   0.350  16.496  0.5704  1.0168 -0.8197
14282TIP3    H264262   2.029   0.317  16.644 -2.5245 -0.3711 -1.1606
14283TIP3   OH264263   1.566   5.142   4.573 -0.1210 -0.5386  1.2534
14283TIP3    H164264   1.529   5.177   4.654 -0.8221 -2.6659  1.9278
14283TIP3    H264265   1.519   5.060   4.559 -1.0242  0.3923 -2.0921
14284TIP3   OH264266   6.391   1.882  15.167 -0.4752 -0.5001 -0.1363
14284TIP3    H164267   6.383   1.974  15.190 -1.2088 -0.4255 -0.6410
14284TIP3    H264268   6.360   1.835  15.244  1.8756 -0.4035  0.9316
14285TIP3   OH264269   1.404   6.402  15.318 -1.0147  0.2921 -0.1610
14285TIP3    H164270   1.404   6.360  15.231 -0.9281 -0.3712  0.1513
14285TIP3    H264271   1.374   6.491  15.301 -0.7049  0.2642 -0.9188
14286TIP3   OH264272   3.569   5.572  14.436 -0.0953  0.1185  0.6774
14286TIP3    H164273   3.569   5.534  14.348 -4.2058 -1.3580  1.0877
14286TIP3    H264274   3.545   5.664  14.422  0.6334  0.2442  0.1994
14287TIP3   OH264275   3.434   1.501   2.800  1.3176 -0.1172  0.2400
14287TIP3    H164276   3.410   1.460   2.883  0.9802 -0.9249 -0.2542
14287TIP3    H264277   3.467   1.587   2.826  0.2201  0.0624  1.1332
14288TIP3   OH264278   2.595   5.845  11.400  0.5951 -0.2803  0.5916
14288TIP3    H164279   2.618   5.753  11.415 -1.7372 -0.7258  1.9658
14288TIP3    H264280   2.636   5.892  11.473  0.9621 -0.3792  0.4495
14289TIP3   OH264281   1.723   3.183  14.213  0.0231  0.1582 -0.2035
14289TIP3    H164282   1.639   3.229  14.210  0.2761  0.6068 -0.3723
14289TIP3    H264283   1.786   3.248  14.244  0.5825  0.2467 -1.4510
14290TIP3   OH264284   2.965   1.145   4.569  0.3326  0.2350 -0.2507
14290TIP3    H164285   2.933   1.090   4.641 -1.2177  1.5853  0.1279
14290TIP3    H264286   2.895   1.143   4.504  1.0249  0.3579 -1.0175
14291TIP3   OH264287   2.313   4.042   4.462  0.2192  0.3764  0.5309
14291TIP3    H164288   2.394   4.082   4.430  1.1275 -1.1317  0.8061
14291TIP3    H264289   2.245   4.072   4.401  1.4753 -0.5407 -1.4422
14292TIP3   OH264290   2.010   2.931  14.902  0.0349  0.1423 -0.1876
14292TIP3    H164291   1.995   2.870  14.830 -0.4269 -0.2367  0.2292
14292TIP3    H264292   2.095   2.905  14.938  0.0384  0.0227 -0.2806
14293TIP3   OH264293   0.548   2.242   5.913  0.4935  0.1241 -0.5243
14293TIP3    H164294   0.614   2.307   5.889  1.3848 -0.3847  0.4287
14293TIP3    H264295   0.505   2.219   5.831  0.2481  1.8107 -0.8875
14294TIP3   OH264296   2.348   3.379  13.477  0.2312 -0.0190  0.0862
14294TIP3    H164297   2.310   3.340  13.556 -0.0981  2.1458  1.0654
14294TIP3    H264298   2.434   3.409  13.505  0.1014  0.7874 -0.3513
14295TIP3   OH264299   5.168   0.904  15.984 -0.8526 -0.1201  0.1732
14295TIP3    H164300   5.076   0.907  16.010 -0.9444 -1.5316  0.1006
14295TIP3    H264301   5.187   0.811  15.975  0.5744  0.1549  0.1263
14296TIP3   OH264302   2.708   4.850  13.865  0.0445 -0.0265 -0.7541
14296TIP3    H164303   2.699   4.774  13.806  0.4614  0.7031 -1.7922
14296TIP3    H264304   2.798   4.880  13.852 -0.9446  2.4962 -2.7629
14297TIP3   OH264305   3.871   4.710  16.837  0.5365 -0.1355 -0.2032
14297TIP3    H164306   3.806   4.715  16.907  0.0241 -1.8659 -0.4963
14297TIP3    H264307   3.856   4.788  16.785 -0.7700 -0.0766  0.2168
14298TIP3   OH264308   2.490   1.614  14.585  0.4082 -0.1260  0.1691
14298TIP3    H164309   2.554   1.683  14.566  1.3310 -0.7804  0.7756
14298TIP3    H264310   2.422   1.624  14.518  1.2505  0.4614 -0.6193
14299TIP3   OH264311   3.181   2.674   1.939  0.6724 -0.6045 -0.1381
14299TIP3    H164312   3.187   2.714   2.026  0.4115  0.1784 -0.4674
14299TIP3    H264313   3.097   2.627   1.940 -0.2664  0.9842 -0.5824
14300TIP3   OH264314   5.635   5.388   3.701 -0.1726  0.4475 -0.3579
14300TIP3    H164315   5.718   5.392   3.655  0.6432  1.0229  1.1105
14300TIP3    H264316   5.615   5.479   3.724 -0.7820  0.2217  0.0419
14301TIP3   OH264317   6.020   2.585  12.996  0.2599  0.0905  0.1303
14301TIP3    H164318   5.961   2.543  13.058  0.3115  0.7146  0.6168
14301TIP3    H264319   6.012   2.534  12.916  0.6544 -1.1112  0.8361
14302TIP3   OH264320   2.621   3.363  11.963 -0.2737 -0.2382 -0.1561
14302TIP3    H164321   2.578   3.423  11.902 -1.2703 -0.2115  0.5522
14302TIP3    H264322   2.622   3.279  11.917 -0.5594 -0.1031 -0.4125
14303TIP3   OH264323   3.308   5.906  12.980 -0.2987 -0.0370 -0.2141
14303TIP3    H164324   3.285   5.814  12.993 -1.1213  0.0277 -1.1148
14303TIP3    H264325   3.289   5.948  13.064  0.0730 -0.6751  0.2001
14304TIP3   OH264326   1.142   4.610   1.893  0.2206 -0.0552  0.0376
14304TIP3    H164327   1.114   4.566   1.973 -2.4437  0.7917 -0.3303
14304TIP3    H264328   1.162   4.699   1.921 -1.7102  0.5431 -0.2924
14305TIP3   OH264329   3.859   1.686  17.083  0.3534  0.4487 -0.2635
14305TIP3    H164330   3.905   1.734  17.016  0.9817  1.9317  1.1639
14305TIP3    H264331   3.816   1.614  17.037  2.8477 -0.1314 -1.8563
14306TIP3   OH264332   4.743   2.560   3.778  0.0212 -0.6801  0.8412
14306TIP3    H164333   4.734   2.468   3.804  0.0134 -1.1572 -0.7054
14306TIP3    H264334   4.834   2.581   3.795  0.0650 -1.0313  1.0556
14307TIP3   OH264335   6.506   3.704   2.550 -0.1491 -0.2223  0.2497
14307TIP3    H164336   6.460   3.777   2.592 -0.7187 -0.8153  0.6849
14307TIP3    H264337   6.480   3.708   2.459 -3.4420 -2.2331  0.9564
14308TIP3   OH264338   1.526   6.204  15.971  0.3324 -0.1291  0.3255
14308TIP3    H164339   1.539   6.170  15.882 -1.1093 -0.1355  0.0800
14308TIP3    H264340   1.566   6.140  16.028  0.7459 -0.4393 -0.3024
14309TIP3   OH264341   6.576   2.252   3.252  0.0942  0.0242 -0.3609
14309TIP3    H164342   6.636   2.266   3.326  0.2114 -0.0533 -0.4416
14309TIP3    H264343   6.633   2.241   3.176 -0.0262  2.6518 -0.9518
14310TIP3   OH264344   6.030   5.719  11.853  0.1905 -0.5022  0.5925
14310TIP3    H164345   6.001   5.727  11.762  2.0062 -0.1752  0.0044
14310TIP3    H264346   6.002   5.632  11.880 -1.6851 -0.0529  0.2427
14311TIP3   OH264347   0.303   1.943  14.396 -0.0867  0.7237 -0.1559
14311TIP3    H164348   0.383   1.909  14.436  0.1090  2.1758  0.7911
14311TIP3    H264349   0.240   1.949  14.469  0.1859  3.1504 -0.0469
14312TIP3   OH264350   6.276   2.888   0.758  0.0793  0.6821 -0.4048
14312TIP3    H164351   6.319   2.956   0.706 -0.9930  1.2415 -0.5985
14312TIP3    H264352   6.319   2.891   0.843 -0.0806  1.7589 -0.3432
14313TIP3   OH264353   6.473   2.819   3.573  0.0470 -0.0100  0.2327
14313TIP3    H164354   6.432   2.871   3.642 -1.5076  2.2351 -2.1634
14313TIP3    H264355   6.410   2.749   3.555  0.1657 -0.2269  0.6557
14314TIP3   OH264356   3.366   0.789  11.661 -0.8546 -0.1463 -0.5108
14314TIP3    H164357   3.432   0.721  11.651  1.8901  2.3206 -0.6406
14314TIP3    H264358   3.357   0.800  11.756 -0.6127 -0.1112 -0.4910
14315TIP3   OH264359   5.299   4.197  14.164 -0.7766  0.3940 -0.0401
14315TIP3    H164360   5.383   4.167  14.200  0.9602  0.2380 -3.7667
14315TIP3    H264361   5.234   4.139  14.203  1.3898 -2.3318 -0.1551
14316TIP3   OH264362   2.604   4.834   5.478  0.0384  0.3135  0.2325
14316TIP3    H164363   2.582   4.918   5.517 -0.8150 -0.6027  1.8069
14316TIP3    H264364   2.520   4.795   5.455  0.3502 -0.5675  0.5399
14317TIP3   OH264365   5.771   2.442   0.152  0.5402  0.2901  0.4066
14317TIP3    H164366   5.712   2.385   0.203  1.9736  0.1361  1.9850
14317TIP3    H264367   5.754   2.530   0.186  0.7995  0.3201  0.4599
14318TIP3   OH264368   0.994   0.647   1.961 -0.0093  0.0021  0.3187
14318TIP3    H164369   0.946   0.636   2.042  2.1530 -1.9594  1.4612
14318TIP3    H264370   0.999   0.558   1.924  3.7848 -0.2726  1.0495
14319TIP3   OH264371   4.477   2.018   0.416  0.0095  0.1284  0.3438
14319TIP3    H164372   4.530   2.034   0.338  2.2516  0.7976  1.9088
14319TIP3    H264373   4.411   2.087   0.415  1.9323  2.0813  0.5823
14320TIP3   OH264374   3.876   0.188  14.607  0.2099  0.1052 -0.1833
14320TIP3    H164375   3.826   0.140  14.541  1.5926 -1.4351 -0.1645
14320TIP3    H264376   3.850   0.148  14.690 -0.9116  1.4912  0.1842
14321TIP3   OH264377   3.837   4.123  17.107  0.1612  0.4775  0.2757
14321TIP3    H164378   3.930   4.111  17.086 -0.0664 -1.8570  0.3067
14321TIP3    H264379   3.792   4.059  17.052 -1.3743  1.0947  0.7730
14322TIP3   OH264380   5.940   4.755   4.119 -0.0789  0.0721 -0.4136
14322TIP3    H164381   5.934   4.849   4.138 -0.3756  0.2499 -1.3324
14322TIP3    H264382   5.852   4.732   4.088  0.2853 -0.2669 -1.2241
14323TIP3   OH264383   4.699   0.772  14.374 -0.4435 -0.2511  0.3341
14323TIP3    H164384   4.731   0.736  14.291 -1.3085  1.4248 -0.7910
14323TIP3    H264385   4.747   0.855  14.384 -2.1697  0.8122  0.1537
14324TIP3   OH264386   0.429   3.281  16.733 -0.0782  0.6909 -0.6085
14324TIP3    H164387   0.422   3.376  16.745 -0.9673  0.4708  0.8993
14324TIP3    H264388   0.379   3.263  16.654  0.7216  1.5519 -1.3300
14325TIP3   OH264389   4.707   0.947  13.314  0.7438  0.2111 -0.1730
14325TIP3    H164390   4.800   0.967  13.322  0.7893  0.8413 -1.8465
14325TIP3    H264391   4.705   0.868  13.259  0.2684  1.0455 -1.3881
14326TIP3   OH264392   4.323   1.324  12.438 -0.6504  1.2836  0.8630
14326TIP3    H164393   4.305   1.302  12.529  2.8740 -0.2414  1.3285
14326TIP3    H264394   4.380   1.401  12.443  0.7404  0.3467  0.0953
14327TIP3   OH264395   6.342   4.612  15.317  1.0133 -0.1887 -0.0025
14327TIP3    H164396   6.328   4.690  15.263  0.7510  0.4116  0.9050
14327TIP3    H264397   6.398   4.642  15.388  1.4881 -1.0091 -0.0228
14328TIP3   OH264398   4.611   5.624  16.554 -0.1700 -0.3452 -0.3611
14328TIP3    H164399   4.595   5.691  16.620 -1.6941 -0.6359 -0.3941
14328TIP3    H264400   4.694   5.585  16.579  0.3591  1.0266  0.1092
14329TIP3   OH264401   2.460   3.337   1.310  0.2923  0.0358 -0.0903
14329TIP3    H164402   2.490   3.310   1.397 -3.0488  0.0117  1.2148
14329TIP3    H264403   2.446   3.431   1.319 -1.4005 -0.1912 -0.1007
14330TIP3   OH264404   2.490   1.859  15.805 -0.5287  0.0556  0.3807
14330TIP3    H164405   2.499   1.807  15.726  0.5435 -2.6724  2.1678
14330TIP3    H264406   2.396   1.870  15.816 -0.7344 -0.6481 -0.5710
14331TIP3   OH264407   5.540   0.039   4.265 -0.2275  0.1679  0.1844
14331TIP3    H164408   5.453   0.009   4.293 -0.1953  0.1202  0.2342
14331TIP3    H264409   5.522   0.103   4.195 -0.2419 -1.3001 -1.2017
14332TIP3   OH264410   3.309   0.984   1.967 -0.0721 -0.2299 -0.5043
14332TIP3    H164411   3.383   0.974   2.027 -0.0721  3.0553  0.2532
14332TIP3    H264412   3.233   0.996   2.023 -0.3355  1.2948 -1.1358
14333TIP3   OH264413   6.565   0.451  16.394 -0.0516  0.4871  0.3187
14333TIP3    H164414   6.566   0.504  16.474  0.5543 -1.1548  1.4611
14333TIP3    H264415   6.657   0.448  16.367  0.3730 -2.0682  1.7821
14334TIP3   OH264416   4.922   5.012  16.075 -0.1795  0.1761  0.0297
14334TIP3    H164417   4.861   5.086  16.076  1.2857  1.4052  0.6481
14334TIP3    H264418   5.002   5.045  16.116  0.9023 -1.4241 -0.6869
14335TIP3   OH264419   6.041   2.031   1.801 -0.1052  0.4237 -0.3304
14335TIP3    H164420   6.107   2.091   1.766  0.8797 -0.6204 -0.3504
14335TIP3    H264421   5.981   2.015   1.728 -1.6972  3.0595  0.2890
14336TIP3   OH264422   2.578   5.862   1.310 -0.0486  0.0066  0.7311
14336TIP3    H164423   2.635   5.893   1.239 -0.5352  0.4917  0.5452
14336TIP3    H264424   2.493   5.851   1.268 -1.0117  2.7689  1.7637
14337TIP3   OH264425   1.468   6.540  12.745  0.0923 -0.1581 -0.4407
14337TIP3    H164426   1.389   6.580  12.710 -0.0648  0.0467  0.1423
14337TIP3    H264427   1.438   6.463  12.793  0.2445 -0.0780 -0.2152
14338TIP3   OH264428   5.349   5.775   3.336  0.6370 -0.4676 -0.1108
14338TIP3    H164429   5.336   5.728   3.253  0.2384 -1.2969  0.4119
14338TIP3    H264430   5.433   5.742   3.369  0.0912 -1.2488  0.5285
14339TIP3   OH264431   3.696   1.819   3.051  0.1062  1.1466  0.1732
14339TIP3    H164432   3.729   1.740   3.093 -0.1918  0.9224 -0.0181
14339TIP3    H264433   3.734   1.891   3.102  1.4190  0.9040 -0.4390
14340TIP3   OH264434   5.034   3.597  13.817 -0.2550 -0.0342 -0.5239
14340TIP3    H164435   5.124   3.626  13.831 -0.7931  0.9443  1.2560
14340TIP3    H264436   5.004   3.570  13.903 -2.0026  0.6911 -0.8546
14341TIP3   OH264437   0.346   2.373   6.076 -0.8212 -0.3908 -0.3628
14341TIP3    H164438   0.279   2.395   6.011 -0.1014 -1.0894 -1.3697
14341TIP3    H264439   0.415   2.330   6.025 -0.5109 -1.5128  0.9668
14342TIP3   OH264440   0.407   2.117   5.660 -0.2715  0.2793  0.0475
14342TIP3    H164441   0.428   2.026   5.639  0.1739  0.7119 -1.5228
14342TIP3    H264442   0.379   2.155   5.577 -2.2649  1.1256  1.0321
14343TIP3   OH264443   3.113   1.354  13.774 -0.1235  0.1712 -0.4409
14343TIP3    H164444   3.131   1.398  13.691  0.0723  0.1444 -0.4123
14343TIP3    H264445   3.107   1.424  13.838 -0.5786  0.2164 -0.5301
14344TIP3   OH264446   2.102   6.493  11.839 -0.5153  0.3892 -0.6441
14344TIP3    H164447   2.051   6.531  11.910 -1.7616 -1.6017 -0.4145
14344TIP3    H264448   2.037   6.461  11.777  0.4460 -1.2590 -0.8664
14345TIP3   OH264449   1.808   6.563  16.341 -0.0081 -0.0710 -0.1674
14345TIP3    H164450   1.727   6.537  16.386 -0.6907  2.1978  0.0436
14345TIP3    H264451   1.866   6.593  16.411  0.5857 -0.5490 -0.4412
14346TIP3   OH264452   1.949   1.043  13.102  0.4630 -0.1696 -0.1335
14346TIP3    H164453   2.033   1.035  13.148 -1.0795 -1.6452  2.6706
14346TIP3    H264454   1.898   1.105  13.153 -0.5841 -0.1429 -1.1491
14347TIP3   OH264455   1.325   1.811   1.056 -0.5455  0.3885  0.2140
14347TIP3    H164456   1.247   1.795   1.109 -1.6122 -1.0792 -1.7076
14347TIP3    H264457   1.333   1.735   0.999 -0.6635  2.6777 -3.1890
14348TIP3   OH264458   6.210   2.796   0.270 -0.0906 -0.0082 -0.3499
14348TIP3    H164459   6.200   2.888   0.244  0.7032 -0.0607 -0.8831
14348TIP3    H264460   6.135   2.752   0.231 -1.7856  0.7703  1.8513
14349TIP3   OH264461   1.783   6.080  10.837 -0.0441 -0.6370 -0.2341
14349TIP3    H164462   1.744   6.127  10.763 -0.0650  0.8145  0.6460
14349TIP3    H264463   1.844   6.018  10.797  0.1822  0.3400 -1.4696
14350TIP3   OH264464   0.466   3.454   2.725 -0.0201  0.4094  0.4789
14350TIP3    H164465   0.384   3.489   2.760  0.2650  1.0603  0.5007
14350TIP3    H264466   0.504   3.526   2.675  0.3294 -0.0293  0.1059
14351TIP3   OH264467   1.689   5.590   2.298  0.2968  0.2835  0.6769
14351TIP3    H164468   1.724   5.677   2.320  0.8928 -0.0785  1.1985
14351TIP3    H264469   1.636   5.566   2.374 -3.0537  1.7823 -1.0007
14352TIP3   OH264470   4.449   4.634  12.579 -0.4806 -1.1440 -0.2794
14352TIP3    H164471   4.433   4.572  12.508 -1.3503 -1.0856 -0.1485
14352TIP3    H264472   4.456   4.719  12.536 -1.4080 -1.0537 -0.2713
14353TIP3   OH264473   5.126   4.285   6.180  0.2008  0.6362  0.1722
14353TIP3    H164474   5.076   4.290   6.261 -1.6259 -0.2393 -0.8256
14353TIP3    H264475   5.215   4.308   6.205 -0.4912  1.2938  2.2311
14354TIP3   OH264476   1.047   3.521  13.279  0.3078  0.5532 -0.1807
14354TIP3    H164477   1.062   3.610  13.312 -1.9362  0.2373  1.9357
14354TIP3    H264478   0.970   3.529  13.222  1.5327  0.3051 -1.9685
14355TIP3   OH264479   2.935   3.673  11.468 -0.5122  0.0971  0.3872
14355TIP3    H164480   2.875   3.748  11.475 -1.5822 -0.5046 -1.5695
14355TIP3    H264481   2.967   3.660  11.558 -0.3473  2.8105  0.8095
14356TIP3   OH264482   0.421   6.059   5.250 -0.0890  0.0680  0.0517
14356TIP3    H164483   0.460   6.146   5.260  0.9304 -0.2357 -1.0751
14356TIP3    H264484   0.382   6.041   5.336  0.0064  1.4647  0.4262
14357TIP3   OH264485   3.623   2.500   5.229 -0.0575 -0.2433 -0.1017
14357TIP3    H164486   3.542   2.486   5.179 -0.4392 -1.0090  0.7109
14357TIP3    H264487   3.677   2.424   5.208  0.9207  0.7634 -1.4657
14358TIP3   OH264488   1.670   4.746  12.977  0.0866  1.0170  0.3428
14358TIP3    H164489   1.634   4.822  12.932  1.4590  1.1531 -0.5451
14358TIP3    H264490   1.762   4.744  12.953  0.0602 -1.0206  0.2104
14359TIP3   OH264491   3.666   6.719  11.397  0.1498 -0.1870  0.2579
14359TIP3    H164492   3.738   6.752  11.343  0.0731  0.3297  0.4671
14359TIP3    H264493   3.587   6.746  11.350  0.0195  2.3101  1.7585
14360TIP3   OH264494   5.939   6.390   1.563  0.0829 -0.2040 -0.0365
14360TIP3    H164495   5.917   6.482   1.577  1.1424  0.4319 -2.0271
14360TIP3    H264496   6.025   6.379   1.605 -0.4264 -0.5354  0.9376
14361TIP3   OH264497   3.219   0.964   2.380  0.1655  0.6796 -0.0079
14361TIP3    H164498   3.220   0.873   2.409  0.4520  1.1652  1.6097
14361TIP3    H264499   3.268   0.963   2.297 -0.5094 -0.7376 -0.4266
14362TIP3   OH264500   5.323   2.475  16.194 -0.7698  0.0944 -0.5114
14362TIP3    H164501   5.242   2.525  16.183  0.0560  1.1123 -2.4751
14362TIP3    H264502   5.324   2.414  16.121  0.0697 -0.1372 -0.3229
14363TIP3   OH264503   3.997   5.758   4.107  0.2864  0.1425 -0.0382
14363TIP3    H164504   3.915   5.798   4.079 -0.3644 -0.5463  0.8239
14363TIP3    H264505   3.990   5.667   4.077  0.8968  0.1644 -0.2684
14364TIP3   OH264506   5.193   2.392  16.767 -0.0832  0.4413  0.3629
14364TIP3    H164507   5.113   2.341  16.763  0.9471 -1.2869  0.8244
14364TIP3    H264508   5.256   2.342  16.715  0.6104  1.9758 -0.3504
14365TIP3   OH264509   1.694   4.928  14.986  0.5260  0.5696  0.1962
14365TIP3    H164510   1.686   4.864  14.915 -0.3303 -0.1289  0.8897
14365TIP3    H264511   1.604   4.945  15.014  0.8679  0.2474  1.6050
14366TIP3   OH264512   6.333   3.733   1.656 -0.1066  0.5274  0.4744
14366TIP3    H164513   6.406   3.776   1.611 -0.6404 -0.2337 -1.1930
14366TIP3    H264514   6.285   3.805   1.697  0.6340  1.2015  0.1906
14367TIP3   OH264515   2.914   4.901   2.756  0.0159 -0.2137  0.3661
14367TIP3    H164516   2.871   4.980   2.789 -0.5849 -0.7450  0.8722
14367TIP3    H264517   2.865   4.879   2.677  0.7834  0.4498 -0.3134
14368TIP3   OH264518   4.417   6.155  15.145  0.1174  0.0363  0.3589
14368TIP3    H164519   4.328   6.190  15.147  0.0107 -0.0315 -1.4395
14368TIP3    H264520   4.473   6.227  15.175 -0.3596  0.8411 -0.6249
14369TIP3   OH264521   5.566   4.164  12.758  0.0932 -0.7202  0.3933
14369TIP3    H164522   5.643   4.109  12.777  0.4688 -0.7901 -1.2283
14369TIP3    H264523   5.563   4.226  12.831  0.2826 -2.2071  1.7254
14370TIP3   OH264524   4.843   5.337  16.151 -0.3436 -0.6205 -0.5726
14370TIP3    H164525   4.772   5.399  16.139 -0.5705 -0.9028 -0.6843
14370TIP3    H264526   4.897   5.376  16.221  0.0947  0.2209 -1.3597
14371TIP3   OH264527   1.822   0.491  15.684 -0.4273 -0.1565  0.2506
14371TIP3    H164528   1.754   0.437  15.726  0.6074 -0.9914  0.9168
14371TIP3    H264529   1.810   0.578  15.722 -0.6201 -0.4898  0.9838
14372TIP3   OH264530   4.209   2.848  15.603 -0.5957 -0.2398  0.1084
14372TIP3    H164531   4.251   2.929  15.632  2.1642 -2.1538  1.8564
14372TIP3    H264532   4.148   2.826  15.673  0.1990 -0.7409  0.6481
14373TIP3   OH264533   6.487   1.893   2.329  0.3330  0.6701  0.4821
14373TIP3    H164534   6.399   1.920   2.302  0.1377 -0.1818  0.2135
14373TIP3    H264535   6.508   1.950   2.403 -0.8918  0.1871  1.2428
14374TIP3   OH264536   0.413   0.681  15.217  0.3857 -0.0200 -0.1099
14374TIP3    H164537   0.482   0.746  15.233 -0.4933  1.0003 -0.3684
14374TIP3    H264538   0.359   0.684  15.295  0.6830 -0.9181  0.1489
14375TIP3   OH264539   4.599   5.668  12.854  0.1870  0.4007 -0.0789
14375TIP3    H164540   4.601   5.647  12.761  0.5380 -0.1549  0.0467
14375TIP3    H264541   4.612   5.583  12.898 -0.2306  0.6199  0.4767
14376TIP3   OH264542   0.418   3.891  17.091  0.2950 -0.0078  0.7887
14376TIP3    H164543   0.425   3.796  17.093 -1.6242 -0.2169  0.0721
14376TIP3    H264544   0.392   3.911  17.001 -0.6976  1.0537  1.2819
14377TIP3   OH264545   0.795   1.295  15.473 -0.1966  0.5953  0.1686
14377TIP3    H164546   0.846   1.308  15.393  0.0498  1.6395  0.4788
14377TIP3    H264547   0.854   1.321  15.543 -0.9882  1.3820  0.5665
14378TIP3   OH264548   3.415   2.408  12.418 -0.3437 -0.0208 -0.1961
14378TIP3    H164549   3.420   2.409  12.323  1.1479  0.2021 -0.1485
14378TIP3    H264550   3.424   2.500  12.443  3.3001 -0.3142  0.2166
14379TIP3   OH264551   2.777   6.741   1.947  0.2472 -0.1556 -0.4431
14379TIP3    H164552   2.748   6.699   2.029  1.1888 -0.9704 -0.5032
14379TIP3    H264553   2.870   6.721   1.943  0.3324  0.4254 -1.4073
14380TIP3   OH264554   4.437   6.741  12.089 -0.3099  0.7688 -0.2228
14380TIP3    H164555   4.431   6.668  12.149 -0.1468  1.6695  0.9175
14380TIP3    H264556   4.509   6.794  12.122  0.4409  0.7880 -1.7860
14381TIP3   OH264557   5.478   5.005   4.574  0.4324 -0.2000  0.3247
14381TIP3    H164558   5.570   5.027   4.559  0.5000  0.6310  1.7826
14381TIP3    H264559   5.438   5.086   4.606 -0.6354 -0.7485  0.4345
14382TIP3   OH264560   1.020   2.363   4.830 -0.1826  0.6778  0.2509
14382TIP3    H164561   1.034   2.401   4.743  1.6794  0.1456  0.2839
14382TIP3    H264562   1.036   2.436   4.891 -2.5911  1.3511  0.1734
14383TIP3   OH264563   1.359   6.648   1.255 -0.2898 -0.4074 -0.1547
14383TIP3    H164564   1.281   6.608   1.218 -0.9863 -0.1424  0.9669
14383TIP3    H264565   1.419   6.575   1.270 -0.4345 -0.6526 -0.7472
14384TIP3   OH264566   0.743   3.228   3.479 -0.0145 -0.3501  0.9322
14384TIP3    H164567   0.670   3.262   3.427  1.2156  1.3674  0.2084
14384TIP3    H264568   0.804   3.302   3.485  1.9719 -1.9063  0.9361
14385TIP3   OH264569   0.576   4.207   0.764 -0.5654 -0.0838  0.3840
14385TIP3    H164570   0.572   4.233   0.856 -1.1498 -0.5802  0.5013
14385TIP3    H264571   0.531   4.278   0.718 -1.1441 -0.3098  0.5872
14386TIP3   OH264572   5.716   5.824  16.227 -0.5075  0.0599  0.5663
14386TIP3    H164573   5.780   5.753  16.232 -1.1247 -0.5099  0.6475
14386TIP3    H264574   5.725   5.870  16.310 -0.4746 -0.2681  0.7483
14387TIP3   OH264575   2.737   3.279   0.452 -0.2838  0.2635  0.1840
14387TIP3    H164576   2.731   3.206   0.390 -0.0179 -0.4031  0.9309
14387TIP3    H264577   2.648   3.290   0.485 -0.1965 -0.1797  0.5780
14388TIP3   OH264578   2.709   1.841  16.019  0.7315 -0.2711  0.1794
14388TIP3    H164579   2.633   1.817  16.072 -0.0510 -1.0463 -1.2154
14388TIP3    H264580   2.671   1.891  15.946  1.9529  2.3009  1.1735
14389TIP3   OH264581   5.225   2.860   4.227  0.2140 -0.0860 -0.0785
14389TIP3    H164582   5.191   2.942   4.192  0.2533 -0.0595 -0.0546
14389TIP3    H264583   5.232   2.802   4.151 -0.8323 -0.4262  0.0659
14390TIP3   OH264584   3.788   0.003  12.404 -0.3419  0.4950  0.3215
14390TIP3    H164585   3.732   0.071  12.367  1.2960  1.8049  0.1358
14390TIP3    H264586   3.766   0.003  12.497 -0.0911  1.5860  0.3964
14391TIP3   OH264587   0.194   5.469   1.526 -0.1380 -0.0940  0.3721
14391TIP3    H164588   0.207   5.479   1.620  0.9811 -1.4414  0.3904
14391TIP3    H264589   0.250   5.536   1.486 -0.0518 -0.0003  0.6514
14392TIP3   OH264590   5.537   2.682   0.392 -0.2965  0.5477 -0.1019
14392TIP3    H164591   5.609   2.725   0.439 -0.7418  0.7346  0.4109
14392TIP3    H264592   5.553   2.589   0.405 -1.3119  0.5947  1.8326
14393TIP3   OH264593   1.007   4.451  13.643 -0.1706  0.2994  0.3537
14393TIP3    H164594   0.930   4.500  13.671 -0.8017 -0.5444  0.1383
14393TIP3    H264595   1.005   4.456  13.547  0.6740  1.2119  0.3694
14394TIP3   OH264596   4.344   1.941  15.817  0.1836 -0.1262 -0.2444
14394TIP3    H164597   4.356   2.033  15.839  1.6864 -0.5180  0.6811
14394TIP3    H264598   4.277   1.910  15.878  0.0381  0.2229 -0.2231
14395TIP3   OH264599   2.190   3.482   3.002  0.5948 -0.4723 -0.1323
14395TIP3    H164600   2.263   3.450   3.056 -0.6253 -1.4754  0.9879
14395TIP3    H264601   2.210   3.450   2.914  1.4535 -0.8067  0.1730
14396TIP3   OH264602   2.489   3.333   0.632 -0.9733 -0.0685  0.3930
14396TIP3    H164603   2.436   3.312   0.709 -4.5189  0.2343 -1.7072
14396TIP3    H264604   2.492   3.429   0.630 -0.5640 -0.0822  0.3699
14397TIP3   OH264605   2.751   0.315  11.115  0.0972 -0.0547 -0.7223
14397TIP3    H164606   2.686   0.329  11.046 -0.0057  0.8405 -0.4513
14397TIP3    H264607   2.788   0.229  11.095  2.1484  1.3371 -3.5930
14398TIP3   OH264608   3.596   3.112   5.786  0.4623  0.6395 -0.6348
14398TIP3    H164609   3.651   3.175   5.740  0.1742  1.5983  0.2858
14398TIP3    H264610   3.507   3.135   5.761  0.3813  0.2922 -0.6684
14399TIP3   OH264611   0.035   4.774  13.581  0.0335 -0.3153  0.2577
14399TIP3    H164612   0.089   4.853  13.581 -1.2353  0.5978  0.5548
14399TIP3    H264613  -0.055   4.807  13.570 -0.4076 -1.8250 -1.1330
14400TIP3   OH264614   4.795   0.909   3.768  0.5026  0.1320 -0.2145
14400TIP3    H164615   4.868   0.856   3.736  1.0456 -1.8052  3.5904
14400TIP3    H264616   4.734   0.846   3.806  0.1304  2.0426  2.6731
14401TIP3   OH264617   1.633   5.850  15.372  0.4631 -0.9798  0.3096
14401TIP3    H164618   1.626   5.775  15.314  0.3854  1.0560 -2.5405
14401TIP3    H264619   1.720   5.841  15.413  0.5421 -2.4675 -0.1259
14402TIP3   OH264620   2.952   3.370   1.778 -0.1705  0.8970 -0.2467
14402TIP3    H164621   2.960   3.276   1.763 -0.9672  1.1124 -2.2242
14402TIP3    H264622   3.042   3.399   1.793  0.0239 -0.2390  1.0904
14403TIP3   OH264623   5.496   0.931   0.036  0.7329  0.5483  0.1406
14403TIP3    H164624   5.437   0.995   0.075  1.3314  0.7505  0.7435
14403TIP3    H264625   5.455   0.908  -0.048 -0.5660  0.1046  0.8813
14404TIP3   OH264626   3.256   1.709   3.423  0.1823 -0.4764 -0.4365
14404TIP3    H164627   3.222   1.755   3.346 -1.8201  1.9523  1.7399
14404TIP3    H264628   3.207   1.627   3.425 -0.8600  0.1141 -0.9245
14405TIP3   OH264629   5.715   1.935  14.541  0.3281 -0.5769 -0.3047
14405TIP3    H164630   5.781   1.874  14.573  0.1728 -0.4901  0.1885
14405TIP3    H264631   5.631   1.897  14.568  0.2282 -0.1722 -0.0228
14406TIP3   OH264632   6.411   6.352  14.100  0.2464  0.1540  0.3288
14406TIP3    H164633   6.502   6.347  14.072  0.4031  1.6892  0.4665
14406TIP3    H264634   6.393   6.266  14.140  1.1704 -0.6741 -0.9807
14407TIP3   OH264635   3.028   1.329  16.058 -0.2989  0.3342 -0.1720
14407TIP3    H164636   3.002   1.409  16.102 -0.5091 -0.1372  0.5852
14407TIP3    H264637   3.059   1.357  15.972  1.5372  1.4565  0.7878
14408TIP3   OH264638   4.287   3.108  15.674 -0.4525  0.5866 -0.3630
14408TIP3    H164639   4.306   3.143  15.762 -0.6092 -1.3785  0.5030
14408TIP3    H264640   4.207   3.153  15.647 -0.6784  0.8679  0.7280
14409TIP3   OH264641   0.150   6.469   5.698 -0.1682  0.0633  0.0338
14409TIP3    H164642   0.237   6.506   5.711 -0.2907  0.3152  0.1514
14409TIP3    H264643   0.138   6.408   5.770 -0.5600  0.9175  0.7186
14410TIP3   OH264644   2.164   5.307   4.821 -0.4978  0.0144 -0.5817
14410TIP3    H164645   2.153   5.280   4.729  0.7211  0.8690 -1.0013
14410TIP3    H264646   2.079   5.345   4.845 -0.7786 -0.0736 -1.3953
14411TIP3   OH264647   4.310   6.206  12.259  0.1424  0.8474  0.2047
14411TIP3    H164648   4.369   6.207  12.183 -0.6783 -1.3345 -0.5179
14411TIP3    H264649   4.231   6.162  12.229 -0.6581  0.9231  2.0350
14412TIP3   OH264650   4.250   0.596   1.305  0.0545  0.1633 -0.3582
14412TIP3    H164651   4.292   0.519   1.269 -0.1867  0.2081 -0.7402
14412TIP3    H264652   4.272   0.666   1.244 -0.2967  0.2559 -0.3780
14413TIP3   OH264653   1.927   1.919   6.601 -0.2234 -0.0394 -0.0055
14413TIP3    H164654   1.995   1.852   6.607 -0.8875 -0.7115  0.1340
14413TIP3    H264655   1.932   1.967   6.683  0.6478  0.4691 -0.3485
14414TIP3   OH264656   3.206   0.727  15.749  0.3757 -0.3173 -0.1209
14414TIP3    H164657   3.174   0.778  15.824  2.5779 -3.7602  3.5962
14414TIP3    H264658   3.180   0.637  15.768  4.2408 -1.9262 -1.4226
14415TIP3   OH264659   0.968   5.580  11.681 -0.2298 -0.0388 -0.1509
14415TIP3    H164660   1.050   5.629  11.669 -0.7692  0.9036 -0.0214
14415TIP3    H264661   0.908   5.618  11.617 -0.6864 -0.4735  0.0186
14416TIP3   OH264662   5.334   4.940   4.124 -0.3141  0.2440 -0.1276
14416TIP3    H164663   5.267   4.955   4.058 -0.6408 -0.0671  0.1272
14416TIP3    H264664   5.369   4.853   4.104 -0.2711  0.2358 -0.0213
14417TIP3   OH264665   6.339   0.924  15.611  0.2526 -0.0212 -0.3374
14417TIP3    H164666   6.263   0.941  15.667  1.9676 -0.6718  2.4182
14417TIP3    H264667   6.403   0.992  15.636  1.0777 -0.3012 -1.5810
14418TIP3   OH264668   5.860   2.877   2.231  0.4017 -0.3990  0.2198
14418TIP3    H164669   5.768   2.894   2.251 -0.1228 -1.4339 -1.1434
14418TIP3    H264670   5.861   2.856   2.137  2.5138  3.0848 -0.7606
14419TIP3   OH264671   0.657   0.924   5.149 -0.5127  1.1213  0.1825
14419TIP3    H164672   0.591   0.973   5.198  1.4134  3.1723  0.9351
14419TIP3    H264673   0.660   0.968   5.063 -1.6826 -0.4507 -0.7052
14420TIP3   OH264674   4.856   6.225  14.045 -0.5434 -0.2590 -0.3419
14420TIP3    H164675   4.872   6.134  14.021  0.5166  0.0600 -0.9296
14420TIP3    H264676   4.929   6.248  14.103 -0.0672  0.5794 -1.2400
14421TIP3   OH264677   1.694   1.000   2.718 -0.2543 -1.0551 -0.1180
14421TIP3    H164678   1.761   0.934   2.737  0.2930 -0.3199  0.5887
14421TIP3    H264679   1.733   1.082   2.748 -1.2906 -0.5446 -0.1411
14422TIP3   OH264680   3.943   4.755  14.898  0.3463  0.6249  0.0096
14422TIP3    H164681   3.983   4.685  14.846 -0.3853 -1.3771  1.9475
14422TIP3    H264682   4.013   4.783  14.957 -0.5722 -2.1678  2.7013
14423TIP3   OH264683   6.434   0.788   1.810  0.0356 -0.7552 -0.1627
14423TIP3    H164684   6.435   0.847   1.885 -0.2380 -1.2284  0.2234
14423TIP3    H264685   6.362   0.820   1.755  0.9359  0.2621 -0.7884
14424TIP3   OH264686   2.972   3.409  11.636  0.1371 -0.3013 -0.1190
14424TIP3    H164687   2.997   3.501  11.631  0.4391 -0.2794  1.2369
14424TIP3    H264688   2.880   3.410  11.664  0.2689 -0.3976  0.3333
14425TIP3   OH264689   4.961   1.328   0.040  0.0351  0.0439  0.1496
14425TIP3    H164690   4.961   1.412  -0.007 -0.5031 -0.6318 -1.0997
14425TIP3    H264691   4.874   1.291   0.025  0.7294 -1.3926 -0.5498
14426TIP3   OH264692   5.344   2.157   1.390  0.7774 -0.5885 -0.5089
14426TIP3    H164693   5.302   2.094   1.331 -0.8203  1.4496 -1.6523
14426TIP3    H264694   5.334   2.118   1.477  0.6016 -2.2864 -1.2461
14427TIP3   OH264695   4.546   4.646   2.048  0.3885 -0.6184  0.4723
14427TIP3    H164696   4.482   4.647   2.118  0.1070  0.0925  0.2104
14427TIP3    H264697   4.530   4.564   2.001 -1.0616  0.0579 -0.2569
14428TIP3   OH264698   0.983   2.440   2.455 -0.3059  0.2116 -0.3547
14428TIP3    H164699   1.068   2.480   2.474  0.5755  0.5296 -4.2142
14428TIP3    H264700   0.995   2.347   2.476  0.5167  0.4638  0.3851
14429TIP3   OH264701   4.270   3.309  15.236  0.2389 -0.5270 -0.3110
14429TIP3    H164702   4.305   3.238  15.181 -2.1127 -2.3620  0.3931
14429TIP3    H264703   4.192   3.271  15.277 -1.2119  2.5278  0.0248
14430TIP3   OH264704   3.018   5.659  12.342 -0.2975 -0.0808  0.1679
14430TIP3    H164705   3.081   5.595  12.309 -2.4684 -2.1432 -0.2535
14430TIP3    H264706   3.039   5.740  12.296  0.8042 -1.2178 -1.4420
14431TIP3   OH264707   2.664   5.091   4.928  0.3053  0.2289 -0.1341
14431TIP3    H164708   2.681   5.183   4.950 -1.0506  0.1866  1.2621
14431TIP3    H264709   2.671   5.044   5.011 -0.9110 -0.6248 -0.4907
14432TIP3   OH264710   6.735   1.990  12.811  0.5718  0.3918  0.3270
14432TIP3    H164711   6.719   1.910  12.762 -0.6668  0.7389  0.1241
14432TIP3    H264712   6.804   1.967  12.873  0.1194 -0.8781  0.3838
14433TIP3   OH264713   5.908   0.016   1.363 -0.2478 -0.2597  0.0823
14433TIP3    H164714   5.902   0.054   1.275  1.9808 -0.7157 -0.3528
14433TIP3    H264715   5.940   0.087   1.418 -0.2337 -0.3471  0.1877
14434TIP3   OH264716   2.517   5.125   2.479 -0.0766  0.2485  0.0740
14434TIP3    H164717   2.468   5.186   2.423  0.3214  1.2518  0.8047
14434TIP3    H264718   2.450   5.066   2.514 -0.5908  0.8255  0.0761
14435TIP3   OH264719   2.698   0.745  14.684  0.0766  0.5079 -0.3231
14435TIP3    H164720   2.694   0.776  14.775  1.6188 -0.6987  0.1918
14435TIP3    H264721   2.719   0.652  14.691  3.4498  0.9929 -1.9131
14436TIP3   OH264722   2.046   1.539  14.551  0.3510 -0.1416 -0.2289
14436TIP3    H164723   1.968   1.485  14.569 -0.1076  0.5928  0.0556
14436TIP3    H264724   2.108   1.479  14.511 -0.2470 -0.8218 -0.1629
14437TIP3   OH264725   0.817   0.090  12.637 -0.3927  0.1886 -0.5439
14437TIP3    H164726   0.906   0.107  12.609 -0.5449 -1.1041 -1.9193
14437TIP3    H264727   0.826   0.044  12.721  0.4195 -2.4184 -1.9325
14438TIP3   OH264728   2.380   5.346   5.761  1.0925  0.0796 -0.3823
14438TIP3    H164729   2.303   5.290   5.754  1.1901 -0.2081  0.6479
14438TIP3    H264730   2.420   5.320   5.844  1.6989  0.9781 -0.3875
14439TIP3   OH264731   6.693   4.752   0.076  0.2958 -0.0935 -0.3131
14439TIP3    H164732   6.693   4.838   0.035 -0.5637  0.4993  0.8631
14439TIP3    H264733   6.725   4.767   0.165  1.3535 -1.2054 -0.4807
14440TIP3   OH264734   1.990   3.046  13.752 -0.3644 -0.4318 -0.4506
14440TIP3    H164735   1.943   3.008  13.677 -1.4524  1.2357 -0.6513
14440TIP3    H264736   1.923   3.056  13.819 -0.4359  2.2215 -0.8236
14441TIP3   OH264737   3.279   2.805  10.342 -0.3079  0.6292 -0.3547
14441TIP3    H164738   3.256   2.897  10.330 -1.6496  0.3614 -0.0450
14441TIP3    H264739   3.373   2.801  10.327 -0.4021  1.8613 -1.4591
14442TIP3   OH264740   2.742   3.568  15.691  0.0933  0.4568 -0.2116
14442TIP3    H164741   2.710   3.530  15.609  0.0159  2.4398 -1.1699
14442TIP3    H264742   2.665   3.572  15.748  0.0469 -0.4976 -0.1941
14443TIP3   OH264743   5.538   6.338  12.708 -0.0500  0.1309 -0.0845
14443TIP3    H164744   5.456   6.290  12.714 -1.0213  1.7696  0.2006
14443TIP3    H264745   5.565   6.328  12.616  0.0426 -1.3457  0.0843
14444TIP3   OH264746   2.604   2.510  14.147  0.1788  1.0797  0.5673
14444TIP3    H164747   2.643   2.596  14.157 -0.9317  1.5493  0.9206
14444TIP3    H264748   2.517   2.526  14.110  0.3536  0.0408 -0.3768
14445TIP3   OH264749   6.598   4.781  12.252 -0.2030  0.1850  0.4267
14445TIP3    H164750   6.662   4.796  12.182  1.1078 -0.6006  1.4070
14445TIP3    H264751   6.513   4.792  12.209  0.5475 -0.3384 -1.2950
14446TIP3   OH264752   0.001   3.145   5.305 -0.2120  0.3489 -0.0214
14446TIP3    H164753  -0.055   3.164   5.230 -1.7880 -1.4376  0.6213
14446TIP3    H264754  -0.004   3.224   5.359 -0.0789  1.1622 -1.1646
14447TIP3   OH264755   0.014   0.353  15.842  0.4309 -0.0844 -0.4046
14447TIP3    H164756  -0.002   0.444  15.865  0.7986  0.1505 -1.0481
14447TIP3    H264757   0.108   0.342  15.855  0.2184 -0.6889  0.7364
14448TIP3   OH264758   2.775   4.265  15.493  0.5316  0.3911 -0.2358
14448TIP3    H164759   2.737   4.331  15.435  1.1089  0.9616  0.0180
14448TIP3    H264760   2.732   4.280  15.577 -1.1758 -1.1986 -0.7520
14449TIP3   OH264761   3.517   3.086  13.205  0.4835  0.0549  0.3100
14449TIP3    H164762   3.467   3.005  13.218  1.1799 -0.3128  0.8172
14449TIP3    H264763   3.528   3.121  13.293 -0.8724  1.3840 -0.0157
14450TIP3   OH264764   2.797   0.810   5.085  0.3870  0.0774 -0.3068
14450TIP3    H164765   2.785   0.853   5.169 -2.8283  0.9525 -1.0860
14450TIP3    H264766   2.853   0.869   5.035 -0.5600  1.3328  0.0713
14451TIP3   OH264767   5.732   2.674  13.691 -0.1899 -0.0844  0.1393
14451TIP3    H164768   5.711   2.723  13.771 -0.1972 -0.7795  0.5752
14451TIP3    H264769   5.714   2.735  13.620 -0.4770  0.4453  0.6557
14452TIP3   OH264770   0.297   4.335   4.315  0.7049 -0.7135  0.4355
14452TIP3    H164771   0.268   4.249   4.284 -0.0360 -0.2707 -0.1331
14452TIP3    H264772   0.311   4.385   4.235 -1.7028  0.6116  0.7588
14453TIP3   OH264773   3.825   3.826   2.447  0.2487  0.2175 -0.4613
14453TIP3    H164774   3.876   3.784   2.516 -0.2884 -0.8465 -0.6895
14453TIP3    H264775   3.883   3.893   2.411  0.6255  0.6270  0.8520
14454TIP3   OH264776   0.195   6.535  11.192 -0.0195  0.0753 -0.0424
14454TIP3    H164777   0.148   6.541  11.109  0.1292  1.5317 -0.0522
14454TIP3    H264778   0.288   6.536  11.168  0.0822 -2.4994 -0.0057
14455TIP3   OH264779   2.659   5.497  12.239  0.1299 -0.3661 -0.4871
14455TIP3    H164780   2.730   5.532  12.185 -0.0047 -0.4641 -0.7249
14455TIP3    H264781   2.588   5.478  12.178 -0.7001  1.2128 -0.0746
14456TIP3   OH264782   5.530   1.011  13.626  0.4874  0.4239  0.2951
14456TIP3    H164783   5.471   1.077  13.590  0.3823  0.2789  0.1981
14456TIP3    H264784   5.560   1.047  13.709  0.5144  0.6393  0.1917
14457TIP3   OH264785   3.395   4.987   3.552 -0.9026  0.2316 -0.1246
14457TIP3    H164786   3.429   5.072   3.582 -0.8318  0.6650 -1.3656
14457TIP3    H264787   3.432   4.924   3.613  1.3367  0.8015 -0.7559
14458TIP3   OH264788   6.272   3.508  15.008 -0.0795  0.1021  0.4627
14458TIP3    H164789   6.324   3.437  14.972 -1.1660  0.6351 -2.3872
14458TIP3    H264790   6.181   3.484  14.988 -0.6167  1.3571  1.2391
14459TIP3   OH264791   0.247   0.365   5.335  0.0670  0.7424 -0.5124
14459TIP3    H164792   0.249   0.286   5.281 -1.6076  0.8750 -0.8320
14459TIP3    H264793   0.218   0.334   5.421 -0.4993  0.9815 -0.6123
14460TIP3   OH264794   6.195   0.538  14.993  0.0609 -0.0375 -0.0132
14460TIP3    H164795   6.168   0.577  15.077  0.3983  1.6727 -0.6573
14460TIP3    H264796   6.249   0.605  14.952 -0.3054 -0.7411 -1.7254
14461TIP3   OH264797   3.158   0.695   2.439  0.9805  0.0398 -0.4725
14461TIP3    H164798   3.101   0.619   2.426  1.6923 -0.6569  0.3749
14461TIP3    H264799   3.243   0.657   2.463  2.2518  0.9779 -3.0316
14462TIP3   OH264800   5.285   2.385   5.778  0.1664 -0.7417  0.1765
14462TIP3    H164801   5.299   2.453   5.712  1.0248 -0.8231  0.2678
14462TIP3    H264802   5.300   2.429   5.862 -2.3089 -0.2609  0.4611
14463TIP3   OH264803   1.912   4.377  16.957  0.0853  0.4929 -0.0598
14463TIP3    H164804   1.839   4.438  16.944 -0.8069 -0.2855  1.1075
14463TIP3    H264805   1.919   4.331  16.873  0.4057  1.7848 -0.7671
14464TIP3   OH264806   3.165   4.631  13.497 -0.2559 -0.2539 -0.0878
14464TIP3    H164807   3.133   4.568  13.432  1.5681 -1.9455  0.5423
14464TIP3    H264808   3.131   4.598  13.581  1.4817 -1.0035  0.3577
14465TIP3   OH264809   0.414   3.992   1.095  0.0613  0.2672 -0.4795
14465TIP3    H164810   0.454   4.014   1.179  0.4841 -0.4927 -0.4835
14465TIP3    H264811   0.482   3.946   1.046 -0.5080 -0.2063 -0.8446
14466TIP3   OH264812   0.289   4.641  16.621  0.3247 -0.8020  0.0668
14466TIP3    H164813   0.241   4.653  16.539  0.0211 -2.5386 -0.0386
14466TIP3    H264814   0.221   4.629  16.687  0.5101  1.9276  0.8973
14467TIP3   OH264815   1.774   2.165  12.803 -0.8716  0.4325  0.1185
14467TIP3    H164816   1.840   2.216  12.849 -0.4264 -1.4131  1.6287
14467TIP3    H264817   1.692   2.188  12.845 -0.5494 -0.7405  1.4634
14468TIP3   OH264818   3.220   3.880  14.482 -0.3912  0.5724  0.1126
14468TIP3    H164819   3.256   3.920  14.403 -0.1718  1.0796  0.4702
14468TIP3    H264820   3.136   3.844  14.454 -0.4823  1.0707 -0.2684
14469TIP3   OH264821   2.555   6.216  11.551  0.2317  0.4523  0.0566
14469TIP3    H164822   2.589   6.138  11.507  1.7072  2.1710 -2.0905
14469TIP3    H264823   2.488   6.249  11.491 -0.9961  0.4236  1.3573
14470TIP3   OH264824   2.491   0.102   0.623 -0.4305 -0.1771  0.0943
14470TIP3    H164825   2.395   0.098   0.622 -0.5074  0.1011  1.8265
14470TIP3    H264826   2.519   0.019   0.584 -1.4201 -1.0046  1.0407
14471TIP3   OH264827   3.192   5.210   0.142  0.1825  0.6299 -0.1198
14471TIP3    H164828   3.210   5.272   0.212  1.2882 -0.1651  0.3312
14471TIP3    H264829   3.150   5.136   0.185  1.7476 -0.2859 -0.0893
14472TIP3   OH264830   1.985   4.572  11.259 -0.2297  0.5426 -0.0861
14472TIP3    H164831   2.068   4.569  11.307 -0.4184 -1.4940  0.2361
14472TIP3    H264832   1.927   4.625  11.314  0.3388  0.4665  0.6094
14473TIP3   OH264833   6.509   3.474  14.323  0.3573  0.0051  0.2439
14473TIP3    H164834   6.466   3.509  14.401 -1.1692  0.8127 -0.9077
14473TIP3    H264835   6.474   3.525  14.251  1.8159 -0.6431 -0.9879
14474TIP3   OH264836   1.365   4.289  12.700 -0.4287  0.3108 -0.4342
14474TIP3    H164837   1.301   4.360  12.700 -1.1251 -0.3034 -0.3112
14474TIP3    H264838   1.324   4.220  12.751  0.0022 -0.3829 -1.0088
14475TIP3   OH264839   6.220   0.323   4.845  0.0969 -0.3225  0.1474
14475TIP3    H164840   6.152   0.254   4.846 -0.0270 -0.2217 -0.8251
14475TIP3    H264841   6.171   0.405   4.842  0.2601 -0.2295  0.0151
14476TIP3   OH264842   1.919   3.309  11.350 -0.3234  0.1748 -0.6245
14476TIP3    H164843   1.939   3.270  11.436 -1.1708  0.2090 -0.4017
14476TIP3    H264844   1.950   3.245  11.287  1.3128  0.6316 -0.3253
14477TIP3   OH264845   1.213   6.374  12.547  0.3398 -0.0359 -0.3438
14477TIP3    H164846   1.186   6.466  12.541  0.2007 -0.1254 -1.2322
14477TIP3    H264847   1.307   6.376  12.528  1.0289  0.2488  2.5281
14478TIP3   OH264848   0.544   2.097  15.608  0.6448 -0.2024  0.0538
14478TIP3    H164849   0.483   2.143  15.665  0.5675  0.3964 -0.4998
14478TIP3    H264850   0.587   2.033  15.665 -1.6181 -1.7714  0.1549
14479TIP3   OH264851   4.838   5.742  15.680 -0.8235  0.2534 -0.0770
14479TIP3    H164852   4.923   5.711  15.648 -1.2103 -0.3982 -0.4779
14479TIP3    H264853   4.818   5.685  15.754 -1.2424 -0.0403 -0.4197
14480TIP3   OH264854   2.608   1.725  10.544 -0.6347  0.3395 -0.1005
14480TIP3    H164855   2.628   1.814  10.513  0.0790 -0.0075 -0.6724
14480TIP3    H264856   2.559   1.686  10.472 -1.5816  0.4998  0.4498
14481TIP3   OH264857   1.612   6.573  14.346 -0.1883 -0.4726 -0.4874
14481TIP3    H164858   1.535   6.616  14.310  0.4260  1.6561  0.5488
14481TIP3    H264859   1.682   6.638  14.335  0.9651 -1.5123  0.4911
14482TIP3   OH264860   0.619   3.583   3.185 -0.0913  0.4666 -0.5884
14482TIP3    H164861   0.627   3.637   3.106  3.8370 -1.3051 -1.6939
14482TIP3    H264862   0.634   3.643   3.257  0.2448  1.5279 -1.5126
14483TIP3   OH264863   1.584   1.113  13.968 -0.1545 -0.5604 -0.4530
14483TIP3    H164864   1.650   1.181  13.979 -1.2428  0.3756  0.5030
14483TIP3    H264865   1.555   1.093  14.057 -1.4802 -0.6086 -0.8694
14484TIP3   OH264866   4.227   1.754   5.871 -0.2938 -0.3636  0.3651
14484TIP3    H164867   4.135   1.742   5.893 -0.3290  0.0549  0.4570
14484TIP3    H264868   4.267   1.668   5.885 -0.8675 -0.8215 -0.6937
14485TIP3   OH264869   6.425   6.610   4.430 -0.1949  0.0323  0.4046
14485TIP3    H164870   6.444   6.657   4.349 -0.9802 -1.7360 -0.8807
14485TIP3    H264871   6.330   6.595   4.428 -0.2689  0.1456  1.7703
14486TIP3   OH264872   0.121   6.410   0.439 -0.3947 -0.6653 -0.0841
14486TIP3    H164873   0.060   6.338   0.422 -0.0162 -1.1194  0.4279
14486TIP3    H264874   0.069   6.475   0.486 -0.3826 -1.2686  0.8089
14487TIP3   OH264875   6.074   4.408  12.537  0.7887  0.2395 -0.2445
14487TIP3    H164876   6.084   4.335  12.598 -0.8195 -1.0623 -1.4403
14487TIP3    H264877   5.983   4.438  12.549  1.3612  1.9729  0.1024
14488TIP3   OH264878   2.237   4.207  14.553 -0.1146 -0.0862 -0.2096
14488TIP3    H164879   2.164   4.198  14.615 -1.1750 -0.1712 -1.4316
14488TIP3    H264880   2.307   4.249  14.604 -1.0470  0.0890  0.9677
14489TIP3   OH264881   2.101   4.897  10.499  0.2530  1.0340  0.4091
14489TIP3    H164882   2.051   4.920  10.421  0.1745 -0.0224  0.1331
14489TIP3    H264883   2.187   4.872  10.466  0.3775  1.0589  0.7116
14490TIP3   OH264884   3.865   0.121   3.207 -0.5698  0.2439 -0.3857
14490TIP3    H164885   3.813   0.078   3.274  1.4907 -1.7618  0.0383
14490TIP3    H264886   3.834   0.082   3.125 -1.8812  1.4154 -0.4773
14491TIP3   OH264887   6.730   4.328   3.245 -0.0425 -0.2516  0.2150
14491TIP3    H164888   6.696   4.296   3.328 -0.3979 -0.9745 -0.1942
14491TIP3    H264889   6.819   4.356   3.265  0.3178 -1.5937  0.5898
14492TIP3   OH264890   2.311   0.409  15.787  0.2552 -0.8201 -0.0440
14492TIP3    H164891   2.253   0.347  15.832  0.5468 -0.2895  1.0913
14492TIP3    H264892   2.253   0.464  15.735 -0.5009  0.7865  2.3523
14493TIP3   OH264893   4.407   2.386   2.826  0.1532 -0.0347  0.1551
14493TIP3    H164894   4.375   2.341   2.904 -1.5989  1.9506  0.6997
14493TIP3    H264895   4.334   2.381   2.765  0.0188  1.7161  0.1269
14494TIP3   OH264896   3.692   4.998  16.160  0.1843  0.7577  0.5766
14494TIP3    H164897   3.740   5.056  16.101  2.7338 -1.2491  0.4857
14494TIP3    H264898   3.635   4.947  16.102  1.0261  0.3526  0.0720
14495TIP3   OH264899   5.858   5.507  15.496  0.4316  0.0945  0.3289
14495TIP3    H164900   5.888   5.594  15.469  0.0670  0.2154  0.2991
14495TIP3    H264901   5.771   5.499  15.456  0.4127 -0.2339  0.4356
14496TIP3   OH264902   2.314   1.862   0.839 -0.0846  0.5562  0.0433
14496TIP3    H164903   2.231   1.859   0.887  0.7372  0.0353  1.4857
14496TIP3    H264904   2.290   1.843   0.748 -1.4679 -0.2438  0.5458
14497TIP3   OH264905   2.139   6.226   5.278  0.1582 -0.1906 -0.5831
14497TIP3    H164906   2.167   6.160   5.215 -0.2220  1.5071 -2.6542
14497TIP3    H264907   2.192   6.303   5.257 -1.2472  0.9713 -0.0358
14498TIP3   OH264908   2.284   3.829   0.076  0.5095 -0.5364  0.0363
14498TIP3    H164909   2.308   3.881  -0.001  1.4781  1.3825  1.5382
14498TIP3    H264910   2.189   3.823   0.073  0.5764 -1.1871 -1.7024
14499TIP3   OH264911   3.907   3.216   1.712  0.0788 -0.3975 -0.2566
14499TIP3    H164912   3.955   3.244   1.634  0.0341  1.8311  0.4413
14499TIP3    H264913   3.937   3.276   1.781 -2.3794 -0.0918  0.6247
14500TIP3   OH264914   4.649   0.568   2.363  0.0101  0.1157 -0.5753
14500TIP3    H164915   4.682   0.534   2.280 -1.1887 -0.7816 -0.7173
14500TIP3    H264916   4.690   0.512   2.430 -0.8095 -0.6733 -0.7194
14501TIP3   OH264917   6.180   2.329   2.692 -0.0419  0.0887  0.0791
14501TIP3    H164918   6.159   2.417   2.662 -1.9015 -0.6421 -0.9261
14501TIP3    H264919   6.251   2.341   2.756 -0.5229  2.3208  0.2586
14502TIP3   OH264920   6.182   5.206   4.041  0.1193 -0.9831 -0.0340
14502TIP3    H164921   6.173   5.263   3.965  0.0937  0.3911  0.9726
14502TIP3    H264922   6.110   5.230   4.099  0.3117 -1.8011  0.5705
14503TIP3   OH264923   0.580   4.172  11.644 -0.0683  0.4379 -0.1623
14503TIP3    H164924   0.488   4.144  11.642 -0.1715  0.7750 -0.2193
14503TIP3    H264925   0.579   4.253  11.694  0.0510  0.9676 -1.0042
14504TIP3   OH264926   4.129   6.024   2.411 -0.2905 -0.1558 -0.5354
14504TIP3    H164927   4.204   5.968   2.391  0.7335  0.2488  1.8346
14504TIP3    H264928   4.153   6.110   2.377  0.4266  0.0203  0.3989
14505TIP3   OH264929   6.356   2.278   3.973  0.4823 -0.7572  0.1353
14505TIP3    H164930   6.278   2.285   4.027 -0.4991  0.9231 -1.4053
14505TIP3    H264931   6.324   2.279   3.883  2.2124 -0.9728 -0.5289
14506TIP3   OH264932   3.713   4.107  11.078 -0.1629  0.5876 -0.0158
14506TIP3    H164933   3.730   4.195  11.113 -0.7788  0.6772  0.0630
14506TIP3    H264934   3.761   4.048  11.136  0.9583  0.9319 -0.5714
14507TIP3   OH264935   5.118   2.205   0.809 -0.9418 -0.1648  0.6102
14507TIP3    H164936   5.206   2.223   0.778 -1.9676  1.2971 -1.7802
14507TIP3    H264937   5.109   2.258   0.888 -0.4274  1.7514 -0.5214
14508TIP3   OH264938   0.563   2.246   3.217  0.0832 -0.3452 -0.5768
14508TIP3    H164939   0.619   2.298   3.159 -0.5901  1.5487  0.3700
14508TIP3    H264940   0.475   2.258   3.181 -0.1267 -0.5317 -0.1254
14509TIP3   OH264941   4.005   6.573   3.625 -0.0256 -0.1011 -0.0817
14509TIP3    H164942   4.077   6.625   3.590  1.9638 -2.8874 -0.4737
14509TIP3    H264943   3.988   6.611   3.711  2.0521  0.5360  0.1038
14510TIP3   OH264944   5.479   4.505  12.556 -0.0596 -0.1045  0.1126
14510TIP3    H164945   5.533   4.573  12.516 -0.8477  0.7147  0.4274
14510TIP3    H264946   5.472   4.530  12.648 -0.4386 -0.5596  0.2099
14511TIP3   OH264947   4.968   3.845   2.694  0.0885 -0.0304  0.2516
14511TIP3    H164948   5.002   3.814   2.610  1.1029  1.3903  0.1035
14511TIP3    H264949   4.992   3.776   2.756  0.8047 -0.3261 -0.3432
14512TIP3   OH264950   5.818   2.135  15.413  0.5590 -0.0955  0.1785
14512TIP3    H164951   5.857   2.218  15.439 -0.1878  0.4037 -0.2498
14512TIP3    H264952   5.756   2.158  15.343 -1.8121 -0.5949  1.9766
14513TIP3   OH264953   5.656   4.676  12.053 -0.5972 -0.0018  0.6454
14513TIP3    H164954   5.696   4.597  12.016 -1.6119 -0.4368  0.4462
14513TIP3    H264955   5.603   4.712  11.982 -2.7651 -0.9700  1.6613
14514TIP3   OH264956   0.741   4.768   2.132  0.5042  0.4420  0.1929
14514TIP3    H164957   0.711   4.704   2.066 -0.0332  1.2484 -0.3610
14514TIP3    H264958   0.684   4.753   2.207  0.6034  0.0464  0.1950
14515TIP3   OH264959   1.727   3.349   0.747 -0.1850 -0.0990 -0.2544
14515TIP3    H164960   1.703   3.442   0.754  1.8251  0.5307 -1.1336
14515TIP3    H264961   1.787   3.334   0.821 -1.7495 -1.1783  0.8653
14516TIP3   OH264962   0.497   0.937  14.016  0.4404  0.1195 -0.3472
14516TIP3    H164963   0.403   0.951  14.005  0.5869  0.9266 -0.6597
14516TIP3    H264964   0.509   0.932  14.111 -0.1420 -1.7596 -0.3432
14517TIP3   OH264965   6.685   1.038  12.907 -0.0379 -0.2520  0.3919
14517TIP3    H164966   6.673   0.966  12.969  0.3772 -1.0877 -0.4838
14517TIP3    H264967   6.599   1.079  12.902 -0.5889 -1.4016  0.0393
14518TIP3   OH264968   1.744   1.438  15.621 -0.4351 -0.5481 -0.0118
14518TIP3    H164969   1.825   1.426  15.672 -0.1947 -1.1207 -0.5242
14518TIP3    H264970   1.689   1.364  15.646 -1.9058  1.1957  2.3458
14519TIP3   OH264971   1.306   5.425   1.516 -0.1991 -0.5183  0.1223
14519TIP3    H164972   1.307   5.373   1.436  4.0695 -0.8464  0.2063
14519TIP3    H264973   1.310   5.516   1.487  2.0639 -0.6586 -0.1290
14520TIP3   OH264974   3.548   3.515  15.997  0.0198  0.0519  0.0721
14520TIP3    H164975   3.635   3.510  16.036  0.6613 -0.4030 -1.3342
14520TIP3    H264976   3.523   3.424  15.983 -0.9459  0.1646  0.9930
14521TIP3   OH264977   3.625   5.393  10.635 -0.5632  0.4235  0.0182
14521TIP3    H164978   3.665   5.310  10.659  0.0976  0.8308  0.3490
14521TIP3    H264979   3.534   5.385  10.664  0.0623  0.6919  2.2221
14522TIP3   OH264980   2.648   0.733  11.392 -0.0377  0.9309 -0.1301
14522TIP3    H164981   2.646   0.676  11.316  0.9911  0.1558  0.4078
14522TIP3    H264982   2.741   0.749  11.408 -0.2665  1.6207  0.5681
14523TIP3   OH264983   3.928   4.624   2.057 -0.0371 -0.1782 -0.1305
14523TIP3    H164984   3.967   4.550   2.104  0.3355  0.1131  0.0179
14523TIP3    H264985   3.968   4.621   1.970  0.3377  0.1443  0.0346
14524TIP3   OH264986   6.367   6.186  17.191 -0.2687  0.3277 -0.1536
14524TIP3    H164987   6.294   6.234  17.231 -0.5284 -0.1158 -0.0837
14524TIP3    H264988   6.430   6.176  17.262 -1.3694 -1.7740  0.6238
14525TIP3   OH264989   0.584   2.149  12.596 -0.2835 -0.5215  0.5158
14525TIP3    H164990   0.503   2.149  12.646 -1.0570 -2.0402 -0.6643
14525TIP3    H264991   0.623   2.063  12.613 -0.8421 -1.3060 -1.8365
14526TIP3   OH264992   1.034   5.007   5.579 -0.1438  0.4752 -0.2882
14526TIP3    H164993   1.103   5.071   5.597  0.7247 -0.2963 -0.7686
14526TIP3    H264994   1.076   4.922   5.591 -0.9263 -0.0165 -0.9029
14527TIP3   OH264995   1.486   1.078   4.468 -0.0602  0.4371 -0.2107
14527TIP3    H164996   1.552   1.075   4.398 -0.2442 -0.8942 -0.3600
14527TIP3    H264997   1.403   1.067   4.423 -0.3318  1.2826  0.0650
14528TIP3   OH264998   3.291   4.865  13.403  0.4974 -0.0533  0.1012
14528TIP3    H164999   3.208   4.830  13.370 -1.9600  1.3670  4.1006
14528TIP3    H265000   3.304   4.820  13.487  3.5378  0.2273 -0.1006
14529TIP3   OH265001   1.926   1.080  14.235 -0.0950 -0.3762  0.1144
14529TIP3    H165002   1.831   1.070  14.245 -0.0704 -0.0114  0.7857
14529TIP3    H265003   1.938   1.173  14.216 -0.0328 -0.8068 -2.3134
14530TIP3   OH265004   1.432   1.319  11.467 -0.1392  0.6026  0.3171
14530TIP3    H165005   1.427   1.393  11.527 -0.3205 -0.7644  2.0742
14530TIP3    H265006   1.519   1.282  11.482 -1.1789 -1.4306  1.9215
14531TIP3   OH265007   3.453   6.068   0.718 -0.1916  0.1163 -0.2330
14531TIP3    H165008   3.527   6.064   0.658  0.6022  0.6809  0.6816
14531TIP3    H265009   3.382   6.025   0.671  0.6287 -0.1745 -1.2473
14532TIP3   OH265010   2.391   1.433  16.038  0.3775  0.5822  0.7454
14532TIP3    H165011   2.301   1.432  16.072 -0.3736 -0.1976 -1.1293
14532TIP3    H265012   2.416   1.525  16.040 -0.6499  0.8737  0.8532
14533TIP3   OH265013   5.990   3.365   1.979  0.2257  0.8487 -0.6128
14533TIP3    H165014   6.023   3.293   1.925  0.8400  0.5248  0.1670
14533TIP3    H265015   6.068   3.416   2.002 -0.3145  2.3685 -1.9688
14534TIP3   OH265016   1.393   1.139   0.908  0.4476  0.0490  0.1025
14534TIP3    H165017   1.461   1.175   0.851 -0.3739 -0.8782 -1.5199
14534TIP3    H265018   1.312   1.147   0.858 -0.8703  1.8989  2.3132
14535TIP3   OH265019   3.848   3.211  14.613  0.3878 -0.3505  0.2759
14535TIP3    H165020   3.824   3.136  14.668  0.9436 -1.5284 -1.0391
14535TIP3    H265021   3.838   3.287  14.671  1.0123 -1.5422  2.0236
14536TIP3   OH265022   5.798   5.758  12.767  0.1327 -0.1565 -0.0133
14536TIP3    H165023   5.818   5.753  12.860 -0.3578 -0.9756  0.0668
14536TIP3    H265024   5.857   5.694  12.726  2.3782  2.1661 -0.6797
14537TIP3   OH265025   5.757   5.388   2.582 -0.2800 -0.9439 -0.0106
14537TIP3    H165026   5.685   5.441   2.549 -0.2569 -0.2624  1.0013
14537TIP3    H265027   5.751   5.306   2.532 -1.0132 -0.4408 -0.7808
14538TIP3   OH265028   4.314   1.911  16.977  0.6330  0.8877 -0.2357
14538TIP3    H165029   4.252   1.983  16.971 -0.3328  0.0426 -0.6908
14538TIP3    H265030   4.288   1.850  16.909 -1.1250 -1.7772  2.5468
14539TIP3   OH265031   3.306   2.796   0.901  0.4771 -0.4954 -0.0915
14539TIP3    H165032   3.261   2.863   0.953  1.4188 -0.6860  1.0113
14539TIP3    H265033   3.324   2.839   0.817  1.2230  0.7024  0.6618
14540TIP3   OH265034   3.410   0.974  13.517 -0.6516 -0.1058 -0.2005
14540TIP3    H165035   3.330   0.955  13.468  0.1541 -0.8374 -1.2810
14540TIP3    H265036   3.412   1.070  13.524 -0.6906  0.0355 -1.8022
14541TIP3   OH265037   5.868   1.509  12.443  0.2829 -0.6494  0.1459
14541TIP3    H165038   5.914   1.494  12.361 -0.2946 -0.7360 -0.1665
14541TIP3    H265039   5.862   1.604  12.450  2.4613 -0.5184  1.3019
14542TIP3   OH265040   3.406   6.208  16.101  0.1234 -0.1583  0.6534
14542TIP3    H165041   3.332   6.260  16.130 -0.8059 -1.2422  0.3023
14542TIP3    H265042   3.478   6.270  16.094 -0.5147  0.7533  1.8695
14543TIP3   OH265043   2.934   0.652  15.488 -0.3725 -0.1112 -0.2455
14543TIP3    H165044   2.927   0.640  15.582  0.1355  0.5140 -0.1193
14543TIP3    H265045   3.012   0.707  15.476  0.4848 -1.4633 -1.1277
14544TIP3   OH265046   4.942   0.778  14.215  0.4806 -0.1728  0.1660
14544TIP3    H165047   5.031   0.797  14.185 -0.1512  0.9146 -1.1110
14544TIP3    H265048   4.902   0.730  14.143  0.6722 -2.7429  1.6333
14545TIP3   OH265049   6.781   3.298   0.336  0.6194 -0.5082  0.2249
14545TIP3    H165050   6.816   3.345   0.412 -0.0556  0.0093  0.2300
14545TIP3    H265051   6.712   3.356   0.302  1.9818  0.0444 -1.7756
14546TIP3   OH265052   1.209   2.796   0.164  0.1067 -0.5051  0.8621
14546TIP3    H165053   1.246   2.744   0.235 -0.2462  1.9425  2.9730
14546TIP3    H265054   1.267   2.872   0.156 -1.2384  0.5132  0.2659
14547TIP3   OH265055   1.884   5.401  16.076 -0.8369 -0.1111 -0.8839
14547TIP3    H165056   1.869   5.491  16.047 -0.7063  1.1485  2.5198
14547TIP3    H265057   1.976   5.384  16.055 -0.7645  0.6780 -1.2415
14548TIP3   OH265058   3.582   3.941  16.605 -0.0534 -0.4731  0.0534
14548TIP3    H165059   3.493   3.946  16.571 -0.5027  0.1126  1.2558
14548TIP3    H265060   3.627   4.018  16.570 -0.6674  0.4210  1.1581
14549TIP3   OH265061   0.831   4.091  15.595  0.1103  0.3135 -0.1955
14549TIP3    H165062   0.738   4.105  15.577  0.0750  1.3565  0.6949
14549TIP3    H265063   0.834   4.064  15.686  0.7967  2.2088  0.3886
14550TIP3   OH265064   4.154   0.412  11.499 -0.2691  0.2709 -0.6544
14550TIP3    H165065   4.123   0.368  11.420  0.5983 -0.2259 -0.7322
14550TIP3    H265066   4.105   0.494  11.502 -0.4039  0.2353 -1.6347
14551TIP3   OH265067   5.861   3.780   1.157 -0.1914  0.2374 -1.2456
14551TIP3    H165068   5.878   3.739   1.242 -0.9434  0.8233 -0.7981
14551TIP3    H265069   5.931   3.748   1.100 -0.3997 -1.1724 -0.7482
14552TIP3   OH265070   5.284   4.238   2.090 -0.2331 -0.4274 -0.1326
14552TIP3    H165071   5.365   4.290   2.085  1.1546 -2.2581  1.7980
14552TIP3    H265072   5.309   4.158   2.136 -2.8367 -1.7609 -0.8299
14553TIP3   OH265073   6.482   3.159  14.588  0.3414 -0.3963 -0.2914
14553TIP3    H165074   6.416   3.215  14.548  0.1987 -1.9343 -2.4128
14553TIP3    H265075   6.465   3.164  14.682 -2.2120 -0.0239 -0.7022
14554TIP3   OH265076   5.044   3.072  15.902 -0.2104 -0.6523 -0.4676
14554TIP3    H165077   4.954   3.103  15.912  0.6942  1.7287  1.2787
14554TIP3    H265078   5.037   2.977  15.902 -2.6894 -0.5351  0.2038
14555TIP3   OH265079   1.535   1.181   4.209  0.2818 -0.0343  0.0507
14555TIP3    H165080   1.444   1.183   4.181  0.6216 -0.7010 -1.1967
14555TIP3    H265081   1.554   1.272   4.234 -0.0782  0.6521 -1.9471
14556TIP3   OH265082   0.534   6.077   6.720 -0.0540  0.0224  0.0225
14556TIP3    H165083   0.570   6.153   6.674 -0.5009 -0.6354 -1.4892
14556TIP3    H265084   0.466   6.044   6.662 -0.8090 -0.7401  1.2883
14557TIP3   OH265085   4.693   4.475   5.719 -0.1502  0.7805 -0.4307
14557TIP3    H165086   4.610   4.440   5.752  0.8698  0.9283  2.6287
14557TIP3    H265087   4.716   4.545   5.781  2.2780  0.6690 -1.0921
14558TIP3   OH265088   3.295   5.188   3.794 -0.5650 -0.0841 -0.2123
14558TIP3    H165089   3.249   5.261   3.836  0.1514  1.4958 -1.9926
14558TIP3    H265090   3.365   5.165   3.855 -0.1607  1.4661 -0.0364
14559TIP3   OH265091   6.701   3.644  11.997 -0.0485 -0.4090 -0.6115
14559TIP3    H165092   6.691   3.565  12.050  0.8632  0.6207  1.2177
14559TIP3    H265093   6.734   3.710  12.058  1.3645  0.7969 -2.5557
14560TIP3   OH265094   4.418   0.023   3.367  0.0486  0.3663  1.2982
14560TIP3    H165095   4.442  -0.018   3.284 -0.6681  1.9979  0.2268
14560TIP3    H265096   4.326  -0.001   3.379  0.0518  0.4207  1.4233
14561TIP3   OH265097   1.265   1.967  14.314 -0.0265 -0.2070  0.1942
14561TIP3    H165098   1.321   1.999  14.243 -1.6224  2.3225 -0.0385
14561TIP3    H265099   1.316   1.898  14.356  2.2253  0.3410 -1.4856
14562TIP3   OH265100   0.049   2.616   0.371 -0.1544 -0.1921 -0.3046
14562TIP3    H165101  -0.034   2.646   0.335 -0.1283 -0.4037 -0.5458
14562TIP3    H265102   0.054   2.523   0.345  0.4569 -0.0158 -0.8495
14563TIP3   OH265103   4.578   5.903   3.624  0.6202  0.3500  0.2345
14563TIP3    H165104   4.644   5.923   3.557 -1.7315  3.0068 -1.5510
14563TIP3    H265105   4.549   5.814   3.603  0.3913  0.8877 -2.0092
14564TIP3   OH265106   3.272   0.091   4.459 -0.1184 -0.1577  0.3208
14564TIP3    H165107   3.225   0.008   4.453  0.9607 -0.7181 -1.2588
14564TIP3    H265108   3.278   0.122   4.369 -0.6801  1.7700  0.9053
14565TIP3   OH265109   2.635   5.172  11.026 -0.0601  0.4752  0.1168
14565TIP3    H165110   2.559   5.208  11.072  0.8224  0.0216  2.0775
14565TIP3    H265111   2.599   5.112  10.961 -1.3839  0.1200  1.1386
14566TIP3   OH265112   0.494   5.944  12.295  0.0368 -0.8662  0.3710
14566TIP3    H165113   0.431   5.895  12.242 -0.0733  0.4705 -0.7950
14566TIP3    H265114   0.580   5.915  12.266 -0.0309 -0.5048 -0.2106
14567TIP3   OH265115   4.012   3.193   4.643  0.0636  0.0307  0.2677
14567TIP3    H165116   3.938   3.200   4.703  0.4630 -2.0609  1.0770
14567TIP3    H265117   3.997   3.111   4.596  0.9700  0.4748 -0.8326
14568TIP3   OH265118   3.139   3.710   4.162  0.2439 -0.5172 -0.4080
14568TIP3    H165119   3.104   3.636   4.112 -1.1870 -0.1478 -0.0188
14568TIP3    H265120   3.234   3.697   4.161  0.0788 -1.9286 -0.9935
14569TIP3   OH265121   6.091   2.024  16.927 -0.5269  0.1406 -0.1155
14569TIP3    H165122   6.179   1.995  16.902 -0.2921 -1.0096  1.8604
14569TIP3    H265123   6.092   2.119  16.911  1.1388  0.1859  0.0551
14570TIP3   OH265124   5.002   0.070  16.490 -0.3717 -0.2119 -0.1912
14570TIP3    H165125   5.083   0.116  16.510  0.4061 -1.7535  0.4133
14570TIP3    H265126   4.956   0.128  16.430  1.4587  0.4532 -1.0485
14571TIP3   OH265127   6.199   2.121  11.979  0.6343  0.3405 -0.0054
14571TIP3    H165128   6.207   2.128  12.074  0.0378  0.5533  0.0313
14571TIP3    H265129   6.289   2.108  11.949  0.8085  0.0890  0.5984
14572TIP3   OH265130   0.196   1.314  10.982  0.8557 -0.8478  0.2855
14572TIP3    H165131   0.122   1.288  10.927 -0.5765  2.8321  0.1918
14572TIP3    H265132   0.228   1.232  11.020 -0.2368 -3.1560 -3.3022
14573TIP3   OH265133   5.162   6.731   2.258  0.8393 -0.3328 -0.0389
14573TIP3    H165134   5.199   6.720   2.171 -0.6583 -0.4597 -0.6856
14573TIP3    H265135   5.068   6.725   2.245  0.5853 -0.2897  1.5864
14574TIP3   OH265136   4.441   5.945   5.488  0.3679  0.6546  0.1353
14574TIP3    H165137   4.535   5.929   5.488  0.2890  0.0819  1.3819
14574TIP3    H265138   4.415   5.937   5.579 -0.6862  2.1167  0.0005
14575TIP3   OH265139   4.331   6.182   5.638 -0.0543  0.4672  0.0693
14575TIP3    H165140   4.250   6.137   5.614  0.3733 -0.2443 -0.0706
14575TIP3    H265141   4.310   6.228   5.719 -0.3171 -0.5482  0.5951
14576TIP3   OH265142   2.503   5.658   0.464  0.6588 -0.1183  0.1570
14576TIP3    H165143   2.495   5.751   0.487 -0.2715  0.0812 -0.8770
14576TIP3    H265144   2.545   5.659   0.377 -0.3135 -0.6014 -0.3272
14577TIP3   OH265145   2.369   6.049   1.458 -0.0957 -0.2146  0.0757
14577TIP3    H165146   2.442   5.997   1.424  0.1082 -1.3096  2.0375
14577TIP3    H265147   2.301   5.984   1.477  0.1237  0.1698  2.4802
14578TIP3   OH265148   4.948   3.645  14.808 -0.5085  0.6882  0.3323
14578TIP3    H165149   4.870   3.598  14.779 -0.9971  0.0013  2.5498
14578TIP3    H265150   5.010   3.577  14.833 -0.0181  1.2378  0.6438
14579TIP3   OH265151   4.492   3.866   2.088 -0.2168 -0.8224 -0.2078
14579TIP3    H165152   4.436   3.930   2.044  2.0608  0.7344 -0.9868
14579TIP3    H265153   4.538   3.821   2.018  1.1630 -0.4808  0.4365
14580TIP3   OH265154   3.039   4.725  14.131 -0.0020 -0.3389 -0.0698
14580TIP3    H165155   3.062   4.649  14.077  0.4861  0.8175 -1.5780
14580TIP3    H265156   2.955   4.703  14.170 -0.8144 -0.8968 -2.0270
14581TIP3   OH265157   1.766   1.562   5.448  0.0132  0.3180  0.1036
14581TIP3    H165158   1.720   1.646   5.437 -0.0155  0.1671 -1.0620
14581TIP3    H265159   1.712   1.499   5.400  0.2227 -0.3057  0.6751
14582TIP3   OH265160   3.097   3.765   2.531  0.1795  0.1442 -0.3777
14582TIP3    H165161   3.170   3.799   2.582  0.4125  1.6196 -1.6246
14582TIP3    H265162   3.094   3.820   2.453 -2.1766  0.0564 -0.4398
14583TIP3   OH265163   4.411   2.745  16.288  0.4570 -0.7957 -0.0846
14583TIP3    H165164   4.335   2.742  16.346  0.7815  0.3713  0.4259
14583TIP3    H265165   4.483   2.775  16.343  0.7322  0.4986 -1.0951
14584TIP3   OH265166   0.070   6.117   5.525  0.4405 -0.2115  0.2249
14584TIP3    H165167   0.006   6.094   5.593  1.3517  1.5773  1.7585
14584TIP3    H265168   0.016   6.145   5.451 -0.5791 -2.5160  0.0073
14585TIP3   OH265169   2.248   5.321  11.940  0.0304  0.7988 -0.0489
14585TIP3    H165170   2.295   5.242  11.914  0.5929  1.4651 -1.1387
14585TIP3    H265171   2.156   5.295  11.942  0.2082  0.1263 -0.4218
14586TIP3   OH265172   5.684   6.519  15.534  0.0408 -0.7791 -0.2804
14586TIP3    H165173   5.631   6.443  15.559  1.5300 -1.6971  0.1949
14586TIP3    H265174   5.705   6.504  15.442 -0.1560 -0.6384 -0.3489
14587TIP3   OH265175   4.963   2.983  12.687 -0.8786  0.0166  0.1593
14587TIP3    H165176   4.896   2.917  12.667  0.0253 -1.3200  1.3199
14587TIP3    H265177   4.962   3.042  12.612 -1.3511 -1.6337 -1.2091
14588TIP3   OH265178   5.110   3.006   1.546 -0.2331  0.4623  0.1771
14588TIP3    H165179   5.187   3.051   1.581  0.4059 -0.6534  0.2286
14588TIP3    H265180   5.134   2.914   1.544 -2.0952 -0.1335  1.6103
14589TIP3   OH265181   0.464   4.963   5.989  0.1404 -0.0435 -0.2816
14589TIP3    H165182   0.497   4.927   6.072 -2.3813  0.3001  0.9743
14589TIP3    H265183   0.460   5.058   6.004 -1.2200 -0.0545 -0.3900
14590TIP3   OH265184   6.189   1.826   0.380 -0.3407  0.3130 -0.2014
14590TIP3    H165185   6.155   1.853   0.465  0.8540 -0.8324  0.6806
14590TIP3    H265186   6.261   1.886   0.363 -1.7504  1.7774 -1.3659
14591TIP3   OH265187   5.358   3.332  13.902 -0.2058 -0.1610  0.4289
14591TIP3    H165188   5.433   3.387  13.878  0.5404 -0.8310  1.1340
14591TIP3    H265189   5.296   3.343  13.831  0.6002  0.3573 -0.2176
14592TIP3   OH265190   0.050   6.209  10.960 -0.2776  0.4002 -0.1722
14592TIP3    H165191  -0.003   6.289  10.953 -1.1742 -0.0672  0.9301
14592TIP3    H265192  -0.007   6.147  11.004  0.4390 -0.8384 -0.9507
14593TIP3   OH265193   3.021   0.339  15.047 -0.4753 -0.2796 -0.3518
14593TIP3    H165194   2.963   0.359  14.974 -1.0648 -0.2102  0.1220
14593TIP3    H265195   3.101   0.306  15.007 -0.5682  0.3230 -1.0446
14594TIP3   OH265196   2.301   1.294   3.440 -0.0576  0.3131 -0.3544
14594TIP3    H165197   2.298   1.274   3.347 -1.0754  1.3661 -0.5753
14594TIP3    H265198   2.271   1.385   3.446  0.3141  0.3717  0.9708
14595TIP3   OH265199   0.207   3.638  10.699 -0.2792 -0.3914  0.0593
14595TIP3    H165200   0.180   3.708  10.759 -0.3530 -0.2339 -0.1562
14595TIP3    H265201   0.236   3.684  10.621 -1.9294 -0.6460 -0.7522
14596TIP3   OH265202   3.080   0.538  11.877  0.1548 -0.2971 -0.0341
14596TIP3    H165203   3.102   0.574  11.791 -1.7795  1.1524  0.0115
14596TIP3    H265204   3.016   0.469  11.858 -0.1307 -0.1075  0.2429
14597TIP3   OH265205   1.851   2.476  13.144 -0.1069  0.1329 -0.4420
14597TIP3    H165206   1.894   2.485  13.229 -3.3385 -1.0064  1.4941
14597TIP3    H265207   1.812   2.562  13.127 -1.1857 -0.1826  0.3224
14598TIP3   OH265208   1.538   0.428  14.167  0.4381  0.4074  0.1781
14598TIP3    H165209   1.465   0.401  14.111  0.0924  1.4947  0.0890
14598TIP3    H265210   1.614   0.382  14.130  0.1765  0.9180 -1.0679
14599TIP3   OH265211   1.993   0.434   4.021  0.3906 -0.6632  0.3979
14599TIP3    H165212   1.949   0.483   3.952 -0.8663  0.0294  1.6615
14599TIP3    H265213   2.000   0.345   3.985 -0.9801 -0.5153 -0.3202
14600TIP3   OH265214   1.499   0.888  11.742  0.4282 -0.3579 -0.1154
14600TIP3    H165215   1.560   0.828  11.785  1.0829 -0.8536 -1.6450
14600TIP3    H265216   1.455   0.934  11.814  1.5957 -0.9929  1.0518
14601TIP3   OH265217   2.983   0.060  14.770 -0.2601  0.2163 -0.4879
14601TIP3    H165218   3.056   0.054  14.832 -1.5889  1.2249  1.3033
14601TIP3    H265219   2.915   0.003  14.807 -1.4307  1.5648 -0.4434
14602TIP3   OH265220   4.064   5.264  13.400  0.8014 -0.2304  0.4685
14602TIP3    H165221   3.970   5.248  13.386  0.1946  2.1342  1.3877
14602TIP3    H265222   4.107   5.186  13.365 -1.3148 -0.2144 -2.5749
14603TIP3   OH265223   4.490   3.423   3.429 -0.1275 -0.0511 -0.1308
14603TIP3    H165224   4.453   3.428   3.341  0.8028 -0.8131 -0.5878
14603TIP3    H265225   4.485   3.330   3.452  1.0543 -0.1143 -0.0301
14604TIP3   OH265226   0.313   4.847   4.012  0.0900  0.0788 -0.3826
14604TIP3    H165227   0.253   4.844   3.937 -1.1574 -1.3638  0.6158
14604TIP3    H265228   0.390   4.893   3.979 -0.0374 -1.2766 -2.8119
14605TIP3   OH265229   1.675   5.055  11.871  0.2036  0.3309  0.8601
14605TIP3    H165230   1.745   5.117  11.850 -0.2102 -0.2672 -2.9467
14605TIP3    H265231   1.705   5.012  11.951  1.8662  3.3154  2.0172
14606TIP3   OH265232   5.356   3.979   1.419 -0.3015 -0.0532  0.2792
14606TIP3    H165233   5.315   4.014   1.497 -1.8191  1.8205 -1.2491
14606TIP3    H265234   5.284   3.944   1.367  0.2604  1.1994 -1.4427
14607TIP3   OH265235   3.755   6.560   0.663 -0.6740  0.3325 -0.2735
14607TIP3    H165236   3.706   6.547   0.744  2.6670  2.2488  2.3308
14607TIP3    H265237   3.819   6.489   0.661 -0.5204  0.4790 -1.0815
14608TIP3   OH265238   5.207   5.816  12.907  0.1736 -0.1141  0.0827
14608TIP3    H165239   5.196   5.742  12.966 -0.5114  0.1449  0.2988
14608TIP3    H265240   5.235   5.888  12.964  1.5233 -0.3664 -0.2297
14609TIP3   OH265241   1.290   4.595   5.074 -0.0426 -0.0097  0.3363
14609TIP3    H165242   1.245   4.636   5.148  1.6172  1.7331  0.4491
14609TIP3    H265243   1.232   4.610   4.999  0.1773  2.0098  0.5140
14610TIP3   OH265244   6.508   3.911   5.593  0.2319  0.1889  0.0141
14610TIP3    H165245   6.487   3.908   5.686 -2.2715  0.7201 -0.4705
14610TIP3    H265246   6.564   3.988   5.583  1.6059 -0.5955  1.2131
14611TIP3   OH265247   0.777   2.881   5.367 -0.0312 -0.7750  0.4168
14611TIP3    H165248   0.706   2.899   5.430  0.7429  0.5603  0.9554
14611TIP3    H265249   0.768   2.788   5.348 -1.8287 -0.6932  0.6004
14612TIP3   OH265250   2.769   5.178   2.027 -0.4009 -0.2381  0.4719
14612TIP3    H165251   2.719   5.151   1.950 -2.4073 -1.5993  2.1472
14612TIP3    H265252   2.849   5.217   1.991 -1.2307 -0.8439 -2.2723
14613TIP3   OH265253   0.670   5.970   2.704  0.5300  0.2970 -0.0920
14613TIP3    H165254   0.610   5.900   2.681  0.5563  0.0111  0.6677
14613TIP3    H265255   0.756   5.941   2.673  0.3609  0.4897 -0.7480
14614TIP3   OH265256   4.560   2.068  15.291  0.3372  0.2410  0.0431
14614TIP3    H165257   4.495   2.025  15.347  1.5759  1.0105  2.2105
14614TIP3    H265258   4.638   2.013  15.298  0.9270  1.0730  0.2233
14615TIP3   OH265259   6.100   4.739   0.560 -0.2575 -0.0920 -0.0447
14615TIP3    H165260   6.089   4.667   0.498 -0.9187 -0.3065  0.3059
14615TIP3    H265261   6.122   4.697   0.643 -0.8976  0.0837  0.2230
14616TIP3   OH265262   3.393   4.717  14.912 -0.0070 -0.1824 -0.3788
14616TIP3    H165263   3.317   4.725  14.970 -0.4837  1.2499 -1.1634
14616TIP3    H265264   3.432   4.804  14.911  2.4568 -1.1603  1.0086
14617TIP3   OH265265   2.135   3.925   2.628  0.0477 -0.5209 -0.2242
14617TIP3    H165266   2.132   4.020   2.627  0.1783 -0.4935  0.7945
14617TIP3    H265267   2.201   3.902   2.562 -0.5246  0.0514 -1.0078
14618TIP3   OH265268   4.720   3.118   1.184 -0.2972 -0.0448  0.1577
14618TIP3    H165269   4.697   3.037   1.230  0.1945  1.5116  3.3889
14618TIP3    H265270   4.812   3.109   1.163  0.7304  0.8712  3.6132
14619TIP3   OH265271   3.985   1.431   2.414 -0.1645  0.5753 -0.0557
14619TIP3    H165272   3.994   1.426   2.509  0.9201  1.8761 -0.0640
14619TIP3    H265273   3.978   1.524   2.395 -1.9136  0.2773 -1.1598
14620TIP3   OH265274   3.609   5.221   4.002  0.0820 -0.3585 -0.2359
14620TIP3    H165275   3.638   5.306   4.032  0.2824  0.6922 -3.0695
14620TIP3    H265276   3.526   5.206   4.046  1.4182 -0.1463  2.5625
14621TIP3   OH265277   1.861   5.665  14.084 -0.5726 -0.0142  0.4182
14621TIP3    H165278   1.950   5.663  14.049 -0.7208 -2.1004  0.0182
14621TIP3    H265279   1.857   5.747  14.133  1.1842  0.6872 -0.4898
14622TIP3   OH265280   5.383   3.607  16.823 -0.0505 -0.6865 -0.3871
14622TIP3    H165281   5.295   3.631  16.851  0.6704  0.0763  1.3554
14622TIP3    H265282   5.406   3.671  16.756 -0.7625 -0.8486 -0.8048
14623TIP3   OH265283   1.734   6.264   2.059 -0.5327 -0.0710  0.4438
14623TIP3    H165284   1.732   6.169   2.055 -0.8573 -0.2684  3.2453
14623TIP3    H265285   1.808   6.284   2.118 -0.3406  1.4200 -0.2510
14624TIP3   OH265286   2.455   5.743  15.463  0.4029  0.7518 -0.1220
14624TIP3    H165287   2.540   5.764  15.501  0.3792 -2.5535  2.0830
14624TIP3    H265288   2.475   5.689  15.387  0.2881 -0.2147  0.5283
14625TIP3   OH265289   0.303   3.946  16.838  0.0032 -0.3789  0.1465
14625TIP3    H165290   0.231   3.883  16.829  0.1887 -0.4279 -1.2810
14625TIP3    H265291   0.259   4.029  16.858 -0.4433 -0.4403 -0.5454
14626TIP3   OH265292   1.989   1.822  10.899  0.6835 -0.7633 -0.0566
14626TIP3    H165293   1.937   1.902  10.889  0.1005 -1.1252  0.0001
14626TIP3    H265294   2.013   1.821  10.992  1.6794 -0.0704 -0.2877
14627TIP3   OH265295   2.065   1.748   1.001  0.1071 -0.0273  0.1150
14627TIP3    H165296   2.020   1.708   0.927 -2.0080  0.6578  0.9525
14627TIP3    H265297   2.066   1.680   1.069  0.7073 -0.1635 -0.0227
14628TIP3   OH265298   5.322   6.124  15.517  0.1794 -1.2701 -0.0452
14628TIP3    H165299   5.327   6.118  15.422  0.3209 -2.0523  0.0066
14628TIP3    H265300   5.243   6.175  15.534  0.4216 -0.6973 -0.5878
14629TIP3   OH265301   5.016   3.892   3.398 -0.0738  0.1805  0.5879
14629TIP3    H165302   5.019   3.803   3.362 -0.0779  1.1312 -1.9634
14629TIP3    H265303   4.923   3.909   3.414 -0.2826  0.3485 -0.7059
14630TIP3   OH265304   2.471   3.759   5.570  0.0846 -0.8193 -0.5035
14630TIP3    H165305   2.412   3.829   5.595  2.1942  1.6728 -1.9078
14630TIP3    H265306   2.415   3.684   5.553 -2.2589  0.3691  1.4871
14631TIP3   OH265307   1.968   1.340   3.607  0.1906  0.0818 -0.0848
14631TIP3    H165308   2.025   1.411   3.579  1.5709  0.0971  2.4481
14631TIP3    H265309   1.987   1.268   3.548  0.6778  1.0081 -1.0701
14632TIP3   OH265310   0.462   5.326   0.114 -0.6348 -0.4695 -0.6687
14632TIP3    H165311   0.537   5.384   0.101  1.2353 -2.1295  1.7922
14632TIP3    H265312   0.490   5.242   0.078 -1.1203 -1.2313  0.6619
14633TIP3   OH265313   3.844   0.199   1.977 -0.0239 -0.1048  0.3252
14633TIP3    H165314   3.809   0.120   1.937 -0.3738 -0.2185  0.8432
14633TIP3    H265315   3.883   0.248   1.904  0.9395 -1.1321  0.1327
14634TIP3   OH265316   5.768   1.762  15.789 -0.2135 -0.1900  0.1762
14634TIP3    H165317   5.774   1.848  15.830 -1.0964  0.7912 -1.6075
14634TIP3    H265318   5.712   1.711  15.847 -1.2253  1.0611  0.3425
14635TIP3   OH265319   2.019   3.022  12.433 -0.5852  0.6570  0.0536
14635TIP3    H165320   2.036   2.980  12.349 -0.6700  0.9345 -0.1056
14635TIP3    H265321   2.088   3.088  12.441  0.0522 -0.0710  0.6951
14636TIP3   OH265322   0.376   0.914  11.303 -0.2217 -0.1839 -0.0680
14636TIP3    H165323   0.306   0.920  11.368 -1.1105 -0.4748 -0.9624
14636TIP3    H265324   0.390   0.820  11.291 -1.1763 -0.1784 -1.4189
14637TIP3   OH265325   4.378   1.590   0.002 -0.1148  0.0043 -0.2051
14637TIP3    H165326   4.373   1.685   0.006 -0.7031 -0.0509  0.7265
14637TIP3    H265327   4.464   1.572  -0.035  0.8158  0.8986  1.3755
14638TIP3   OH265328   1.255   5.817   5.311 -0.3110 -0.2517 -0.0693
14638TIP3    H165329   1.291   5.904   5.329 -0.4266 -0.6237  2.2470
14638TIP3    H265330   1.172   5.834   5.266 -1.5350  0.9987  2.5020
14639TIP3   OH265331   6.175   3.534  15.608 -0.2016 -0.0121 -0.8171
14639TIP3    H165332   6.156   3.521  15.515 -0.6025 -1.9600 -0.5242
14639TIP3    H265333   6.251   3.478  15.624  0.7521  1.3933 -0.2391
14640TIP3   OH265334   5.808   2.391   4.728  0.2671  0.0264  0.4259
14640TIP3    H165335   5.860   2.321   4.767 -0.6182 -0.1557  1.2895
14640TIP3    H265336   5.847   2.403   4.641 -0.0748 -2.1107 -0.0896
14641TIP3   OH265337   5.720   4.647   5.121 -0.4195  0.0802 -0.2607
14641TIP3    H165338   5.767   4.727   5.096  0.9399 -0.5874  0.0163
14641TIP3    H265339   5.712   4.653   5.216 -0.5872  0.0241 -0.2710
14642TIP3   OH265340   5.868   6.611  12.416  0.0760  0.0967 -0.0915
14642TIP3    H165341   5.885   6.517  12.420 -0.4776 -0.0566 -0.9603
14642TIP3    H265342   5.942   6.651  12.460 -0.6568 -0.8246  2.1097
14643TIP3   OH265343   3.791   4.911   1.432  0.0929  0.0882  0.0923
14643TIP3    H165344   3.718   4.862   1.469  0.3876 -0.2990  0.1725
14643TIP3    H265345   3.806   4.983   1.494  1.9946 -1.7786  1.9757
14644TIP3   OH265346   5.817   5.732   1.322 -0.3213 -0.5132  0.0829
14644TIP3    H165347   5.782   5.681   1.396 -0.4071 -1.1467 -0.3886
14644TIP3    H265348   5.897   5.687   1.298 -0.6708 -0.7415 -0.6770
14645TIP3   OH265349   1.634   2.023   6.376 -0.4089 -0.5633 -0.3583
14645TIP3    H165350   1.544   2.034   6.408 -0.4724  2.6559 -1.3136
14645TIP3    H265351   1.681   2.098   6.412  1.4586 -1.1797 -1.4244
14646TIP3   OH265352   5.518   3.369   2.223  0.1467 -0.2528 -0.1995
14646TIP3    H165353   5.560   3.454   2.238  0.8846 -0.1804 -2.2844
14646TIP3    H265354   5.581   3.321   2.169  0.2192 -2.5725  1.7676
14647TIP3   OH265355   2.126   5.643   2.364 -0.2320  0.4885 -0.0360
14647TIP3    H165356   2.208   5.613   2.324 -0.0454  0.4987  0.3312
14647TIP3    H265357   2.072   5.672   2.290 -0.4051 -0.7060 -0.4028
14648TIP3   OH265358   1.953   4.179  14.990 -0.1828 -0.0053  0.0248
14648TIP3    H165359   1.956   4.187  14.895 -1.6157 -2.5711 -0.3467
14648TIP3    H265360   1.939   4.268  15.021 -2.4842  0.6349 -2.4002
14649TIP3   OH265361   5.042   3.606  13.050  0.2645  0.1188 -0.2764
14649TIP3    H165362   5.091   3.523  13.049 -0.6017 -0.4078 -0.6368
14649TIP3    H265363   5.017   3.618  13.142 -0.8969 -0.8301 -0.4389
14650TIP3   OH265364   3.015   1.184  14.342 -0.0144 -0.3318 -0.0418
14650TIP3    H165365   3.016   1.088  14.347 -0.4538 -0.2799  2.0823
14650TIP3    H265366   3.104   1.208  14.318  0.8573 -1.2371  2.0644
14651TIP3   OH265367   1.880   1.912   2.243  0.1463 -0.2545 -0.5953
14651TIP3    H165368   1.877   1.873   2.156  0.1806  0.1734 -0.7899
14651TIP3    H265369   1.804   1.970   2.246  0.4595  0.1509 -0.5376
14652TIP3   OH265370   1.271   4.685  17.158  0.0898  0.0522  0.3847
14652TIP3    H165371   1.238   4.599  17.133  0.0941  0.5375 -1.4148
14652TIP3    H265372   1.304   4.673  17.247 -1.8301 -1.2676  0.9790
14653TIP3   OH265373   1.591   1.881   2.985 -0.1671  0.2182 -0.3437
14653TIP3    H165374   1.547   1.863   2.902  0.4173 -2.6408 -0.1303
14653TIP3    H265375   1.661   1.942   2.961 -1.6855  1.6579 -1.3805
14654TIP3   OH265376   5.219   1.817  14.810 -0.5991  0.5160  0.4474
14654TIP3    H165377   5.263   1.742  14.770  0.4689  1.4516 -0.1741
14654TIP3    H265378   5.126   1.801  14.793 -0.6542 -1.8471  2.3916
14655TIP3   OH265379   6.331   1.675  14.774 -0.3244 -0.4727 -0.0336
14655TIP3    H165380   6.301   1.762  14.797  1.8214 -0.0146  1.2393
14655TIP3    H265381   6.390   1.689  14.700  0.0527 -0.8392  0.1947
14656TIP3   OH265382   4.264   2.823   5.739  0.6610  0.1623  0.2768
14656TIP3    H165383   4.248   2.851   5.649 -0.7640 -0.4810  0.2914
14656TIP3    H265384   4.194   2.760   5.757  0.3138  1.0039  2.1561
14657TIP3   OH265385   5.332   6.533  13.523  0.0020  0.0038 -0.1566
14657TIP3    H165386   5.396   6.517  13.454 -1.0802  2.5721 -1.9065
14657TIP3    H265387   5.377   6.507  13.604  2.1114 -1.0545 -1.5790
14658TIP3   OH265388   2.503   5.419  14.832  0.1495  0.3518 -0.7525
14658TIP3    H165389   2.571   5.481  14.857 -0.2024  0.3285  0.2986
14658TIP3    H265390   2.466   5.389  14.914 -1.0266  0.2357 -1.3017
14659TIP3   OH265391   4.014   6.612   4.271  0.1366  0.7944  0.2555
14659TIP3    H165392   4.065   6.619   4.189 -0.4952  0.0674 -0.2109
14659TIP3    H265393   3.971   6.697   4.279 -1.2397  0.2800 -1.1566
14660TIP3   OH265394   1.842   4.131  15.423  0.2483  0.2668 -0.2999
14660TIP3    H165395   1.797   4.215  15.412  0.5584  0.4066 -0.5256
14660TIP3    H265396   1.781   4.066  15.388 -0.1961  0.3453  0.3203
14661TIP3   OH265397   3.987   1.801  16.238 -0.1124  0.1552 -0.2043
14661TIP3    H165398   3.915   1.777  16.296  0.8839 -1.0194  0.5940
14661TIP3    H265399   3.955   1.781  16.150 -0.4297 -1.2784  0.2114
14662TIP3   OH265400   1.497   3.656  15.585 -0.3601 -0.2877 -0.0195
14662TIP3    H165401   1.437   3.713  15.537  0.4918  0.5588 -0.1010
14662TIP3    H265402   1.544   3.715  15.645  0.4382 -0.9128 -0.0078
14663TIP3   OH265403   0.704   1.856   0.358  0.1325  0.1852 -0.4132
14663TIP3    H165404   0.619   1.882   0.394 -0.7190 -1.0471 -1.4216
14663TIP3    H265405   0.767   1.876   0.428 -1.2033 -0.3751  1.0149
14664TIP3   OH265406   3.497   0.693   5.594 -0.1599 -0.3662  0.3196
14664TIP3    H165407   3.490   0.599   5.575  0.9081 -0.4990  0.5030
14664TIP3    H265408   3.591   0.708   5.602 -0.3803  0.4248  1.7686
14665TIP3   OH265409   4.099   4.446   4.825  0.2171  0.4355  0.4527
14665TIP3    H165410   4.139   4.488   4.901 -2.1975  1.0332  1.4724
14665TIP3    H265411   4.106   4.512   4.755  0.8372  0.5762  0.6350
14666TIP3   OH265412   4.745   1.117  14.472  0.1557  0.6837  0.2236
14666TIP3    H165413   4.717   1.111  14.381 -0.7233  1.0918  0.4568
14666TIP3    H265414   4.833   1.079  14.473 -0.4072 -0.6738 -0.5223
14667TIP3   OH265415   1.818   2.412   0.544 -0.3109 -0.1964  0.1557
14667TIP3    H165416   1.809   2.341   0.607  0.6635  0.7372  1.4321
14667TIP3    H265417   1.732   2.454   0.542 -0.7214 -1.0404 -0.1630
14668TIP3   OH265418   0.797   1.850   2.252 -0.5884 -0.7649 -0.3034
14668TIP3    H165419   0.856   1.779   2.229  0.0761  0.1282 -1.4447
14668TIP3    H265420   0.743   1.864   2.174  0.1062  0.7601 -0.5605
14669TIP3   OH265421   3.710   4.339  15.638  0.0609  0.4282  0.0046
14669TIP3    H165422   3.703   4.261  15.693  0.4036  0.6452  0.3580
14669TIP3    H265423   3.762   4.311  15.563 -2.4005 -0.5474 -1.4673
14670TIP3   OH265424   2.131   4.608  15.727 -0.0643  0.2880  0.1395
14670TIP3    H165425   2.157   4.563  15.807 -0.3614 -0.2111 -0.0441
14670TIP3    H265426   2.136   4.541  15.659 -0.1698  0.6190 -0.1984
14671TIP3   OH265427   3.298   6.782  11.756  0.0978  0.0148  0.7799
14671TIP3    H165428   3.230   6.730  11.713  0.2944 -0.8373  1.4494
14671TIP3    H265429   3.379   6.736  11.735  0.2046 -0.3974  1.9758
14672TIP3   OH265430   6.044   0.072  15.709  0.7642  0.5375  0.1947
14672TIP3    H165431   6.091   0.070  15.625 -2.3697  1.5469 -1.7920
14672TIP3    H265432   6.054   0.162  15.739  1.0543  0.4460  0.3711
14673TIP3   OH265433   3.246   1.721  17.059  0.1767  0.3075 -0.5288
14673TIP3    H165434   3.257   1.644  17.003 -1.9292  0.5451 -1.3837
14673TIP3    H265435   3.226   1.792  16.998 -1.8266  0.6514  0.4437
14674TIP3   OH265436   0.831   5.428  10.952  0.3347 -0.5701 -0.0819
14674TIP3    H165437   0.794   5.344  10.927 -1.2096 -0.0657  0.3810
14674TIP3    H265438   0.769   5.493  10.918 -0.4732  0.2431  2.6519
14675TIP3   OH265439   3.611   3.506   4.341  0.2051 -0.3560  0.6669
14675TIP3    H165440   3.643   3.595   4.328 -1.7011  0.3460  0.5190
14675TIP3    H265441   3.664   3.472   4.413  1.2988  0.7084  0.3974
14676TIP3   OH265442   1.503   1.750  13.456  0.1428 -0.1583 -0.4829
14676TIP3    H165443   1.465   1.707  13.380  0.0572  1.1913 -1.2316
14676TIP3    H265444   1.466   1.703  13.531 -1.8114  0.1231 -1.2090
14677TIP3   OH265445   1.290   6.647   5.247 -0.1546  0.3578 -0.1606
14677TIP3    H165446   1.307   6.677   5.158 -1.0760  0.3839 -0.3377
14677TIP3    H265447   1.375   6.616   5.279  0.3529  1.1134 -0.7533
14678TIP3   OH265448   2.382   3.430   0.382  0.3776 -0.2293 -0.2194
14678TIP3    H165449   2.288   3.445   0.366  0.1657  0.4117  1.4113
14678TIP3    H265450   2.384   3.390   0.470  1.7782  2.7253  1.2218
14679TIP3   OH265451   2.849   2.604  16.747  0.4088  0.7091  0.0523
14679TIP3    H165452   2.928   2.556  16.770  0.0736  0.5423  0.8668
14679TIP3    H265453   2.822   2.648  16.828  0.9597  2.6539 -0.7631
14680TIP3   OH265454   0.099   5.006   1.534  0.3340 -0.1313 -0.4335
14680TIP3    H165455   0.106   4.912   1.521  0.7942  0.0698 -1.8537
14680TIP3    H265456   0.051   5.016   1.616 -1.7765 -1.6143 -1.4035
14681TIP3   OH265457   6.464   5.889   5.046 -0.3027  0.0235  0.2802
14681TIP3    H165458   6.477   5.827   5.118  0.2177  0.3271  0.4549
14681TIP3    H265459   6.370   5.903   5.043 -0.4427 -0.8833  0.1488
14682TIP3   OH265460   0.522   2.935  12.228  0.2551  0.3190 -0.4627
14682TIP3    H165461   0.514   2.953  12.135 -0.4344  0.3357 -0.4067
14682TIP3    H265462   0.551   2.844  12.233  1.5032  0.6931 -0.7088
14683TIP3   OH265463   5.302   2.600  10.849  0.8494 -0.3592  0.5347
14683TIP3    H165464   5.392   2.627  10.864  1.3208 -0.6081 -1.5077
14683TIP3    H265465   5.286   2.620  10.756 -1.5371  0.6178  1.0583
14684TIP3   OH265466   3.626   4.191  14.228  0.0772  0.2941  0.3176
14684TIP3    H165467   3.671   4.270  14.199  1.3354  0.3905  2.2945
14684TIP3    H265468   3.610   4.205  14.322 -1.4128 -1.0105  0.3191
14685TIP3   OH265469   0.129   3.450   2.066 -0.3519  0.3000 -0.1654
14685TIP3    H165470   0.092   3.408   2.144  0.3251 -0.6797 -0.3581
14685TIP3    H265471   0.208   3.494   2.097  1.1692 -1.9643 -0.6583
14686TIP3   OH265472   3.478   4.129   4.584  0.1325  0.2918  0.4498
14686TIP3    H165473   3.449   4.219   4.600  3.4539  1.4239  0.8058
14686TIP3    H265474   3.545   4.113   4.650 -0.0658 -2.3474  0.1342
14687TIP3   OH265475   4.236   3.995   0.867  0.1636  0.0968 -0.4190
14687TIP3    H165476   4.310   4.055   0.860  0.6276 -0.5128 -0.8408
14687TIP3    H265477   4.160   4.052   0.879  0.8210  0.6916  1.1321
14688TIP3   OH265478   6.586   5.802   3.164  0.3403 -0.1768  0.2323
14688TIP3    H165479   6.525   5.729   3.175 -0.9589  0.5682 -1.5230
14688TIP3    H265480   6.624   5.789   3.077  1.5986  0.1756  0.7113
14689TIP3   OH265481   6.709   5.574   3.672 -0.6817  0.0144  0.2111
14689TIP3    H165482   6.716   5.663   3.705  0.4587 -0.2280  0.6603
14689TIP3    H265483   6.739   5.519   3.744  2.9943 -0.4896 -1.4833
14690TIP3   OH265484   1.905   3.829  15.545  0.1790 -0.0015  1.0168
14690TIP3    H165485   1.918   3.911  15.498 -1.6740 -0.6789 -0.8431
14690TIP3    H265486   1.901   3.855  15.637  2.9623  1.5082  0.8300
14691TIP3   OH265487   4.256   3.809  13.189 -0.4744  0.1495  0.2182
14691TIP3    H165488   4.176   3.857  13.209 -1.4407 -0.7471 -1.2653
14691TIP3    H265489   4.227   3.738  13.131  1.4770  0.1777 -0.8702
14692TIP3   OH265490   3.432   2.643  13.421  0.4986  0.0732 -0.1673
14692TIP3    H165491   3.504   2.591  13.456 -0.7391 -1.3360  0.4075
14692TIP3    H265492   3.354   2.589  13.435 -0.9118  2.1525  0.6243
14693TIP3   OH265493   3.054   3.011  15.633  0.2318  0.0013  0.2247
14693TIP3    H165494   3.128   2.963  15.671  1.7708  1.9733 -0.0622
14693TIP3    H265495   3.002   3.038  15.709  1.5932  1.2876  0.7561
14694TIP3   OH265496   0.266   4.577  11.446  0.3642 -0.3982 -0.1794
14694TIP3    H165497   0.293   4.559  11.356  0.4389  1.6322 -0.6141
14694TIP3    H265498   0.331   4.639  11.479  0.0726 -0.7563  1.1388
14695TIP3   OH265499   5.288   2.844  14.104  0.3809  0.3094 -0.3711
14695TIP3    H165500   5.346   2.920  14.108  1.2766 -0.3995  1.0685
14695TIP3    H265501   5.307   2.804  14.019  1.6823  0.3557 -0.1294
14696TIP3   OH265502   1.411   0.200  13.667 -0.8923  0.4545  0.1177
14696TIP3    H165503   1.343   0.267  13.661 -1.3484  0.0469  0.6353
14696TIP3    H265504   1.369   0.120  13.636 -0.8556  0.0645  1.0389
14697TIP3   OH265505   0.492   1.495   1.596  0.5166 -0.1309  0.4553
14697TIP3    H165506   0.576   1.458   1.623  0.5723 -0.8591 -0.6112
14697TIP3    H265507   0.513   1.551   1.521  0.5410  2.8161  2.5299
14698TIP3   OH265508   2.570   0.443   2.083 -0.3152  0.0055 -0.4436
14698TIP3    H165509   2.662   0.435   2.057  0.4318  0.9233  1.7008
14698TIP3    H265510   2.528   0.488   2.009  0.8301 -0.8109 -1.6382
14699TIP3   OH265511   2.572   2.319   0.500  0.2842  0.0725 -0.4026
14699TIP3    H165512   2.636   2.273   0.554  0.9630  0.0143 -1.2418
14699TIP3    H265513   2.506   2.351   0.562  1.1936  0.2531  0.4859
14700TIP3   OH265514   1.206   1.075   4.365 -0.0431  0.8869  0.0522
14700TIP3    H165515   1.189   1.008   4.298  1.1608 -0.2636  0.8359
14700TIP3    H265516   1.144   1.055   4.435  1.2302 -0.3557  0.8906
14701TIP3   OH265517   2.088   0.519   4.469  0.9801 -0.4506 -0.4516
14701TIP3    H165518   2.007   0.489   4.427  1.3513  1.1447 -2.4330
14701TIP3    H265519   2.158   0.482   4.415  1.4983  0.4030 -0.3796
14702TIP3   OH265520   5.139   4.872   4.521  0.0175 -0.0220  0.6392
14702TIP3    H165521   5.101   4.937   4.462 -0.0993 -1.2001 -0.6292
14702TIP3    H265522   5.207   4.829   4.469  1.0866  0.0513  1.9258
14703TIP3   OH265523   1.100   6.535   0.387 -0.2659 -0.7424 -0.1672
14703TIP3    H165524   1.020   6.586   0.376  0.6092  0.3486 -1.8039
14703TIP3    H265525   1.159   6.592   0.436  0.0739 -0.8928 -0.3964
14704TIP3   OH265526   6.706   2.087   1.715  0.4756 -0.1403  0.3752
14704TIP3    H165527   6.794   2.054   1.733  1.2434  0.9617 -1.1554
14704TIP3    H265528   6.649   2.010   1.721  1.3845 -0.7081  2.2736
14705TIP3   OH265529   3.160   0.475   3.177 -0.8259 -0.1128 -0.6360
14705TIP3    H165530   3.195   0.433   3.098 -0.8681  1.3395 -1.4504
14705TIP3    H265531   3.070   0.497   3.155 -1.5261 -1.5662  0.5817
14706TIP3   OH265532   4.516   1.889  15.539  0.2408 -0.6846 -0.2037
14706TIP3    H165533   4.478   1.938  15.613  0.6401 -0.0272 -0.4281
14706TIP3    H265534   4.609   1.908  15.543  0.1438  0.1807 -1.4682
14707TIP3   OH265535   1.468   1.415   3.147  0.0923  0.3324  0.2188
14707TIP3    H165536   1.442   1.482   3.084 -1.2081  0.6436  1.0429
14707TIP3    H265537   1.404   1.345   3.135  1.9324 -1.1881 -1.2188
14708TIP3   OH265538   6.415   2.072   1.780 -0.4742 -0.1217 -0.2126
14708TIP3    H165539   6.391   2.165   1.777 -0.2004 -0.0250  0.4096
14708TIP3    H265540   6.413   2.044   1.689 -0.4293  0.5328 -0.4213
14709TIP3   OH265541   0.011   3.946   4.680  0.2526  0.3169  0.2162
14709TIP3    H165542   0.011   3.887   4.605  0.3110  2.4011 -1.5159
14709TIP3    H265543  -0.081   3.955   4.705 -0.1596  1.9803 -1.6587
14710TIP3   OH265544   3.323   1.430  12.831 -0.0101 -0.0200 -0.1339
14710TIP3    H165545   3.401   1.486  12.826  0.1965 -0.2865  0.0976
14710TIP3    H265546   3.271   1.455  12.754 -0.0376  0.6610  0.1005
14711TIP3   OH265547   1.395   2.050   1.176 -0.3033  0.0705 -0.1506
14711TIP3    H165548   1.336   2.045   1.250  1.3203  0.4870  1.2457
14711TIP3    H265549   1.373   1.974   1.121 -0.4701 -1.1752  1.5788
14712TIP3   OH265550   3.058   3.353   4.893  0.0119  0.3975  0.5738
14712TIP3    H165551   3.140   3.382   4.933  0.5243  1.2882 -1.0216
14712TIP3    H265552   3.083   3.325   4.805 -0.9906 -1.9926  0.9876
14713TIP3   OH265553   6.452   2.966  15.077 -0.0073  0.3286 -0.1013
14713TIP3    H165554   6.402   3.048  15.082  1.5303  1.2717  0.6366
14713TIP3    H265555   6.479   2.949  15.167  2.2773  0.7233 -0.6448
14714TIP3   OH265556   0.735   6.385  10.783 -0.1077  0.5739 -0.2952
14714TIP3    H165557   0.829   6.401  10.771  0.0233 -0.4090 -0.7568
14714TIP3    H265558   0.693   6.464  10.751  0.5939  1.4420  0.8661
14715TIP3   OH265559   2.083   6.321  14.322  0.1618 -0.1240  0.2590
14715TIP3    H165560   2.060   6.255  14.387 -0.0523 -1.6429 -1.2986
14715TIP3    H265561   2.020   6.392  14.337 -0.2586 -0.6889  1.3079
14716TIP3   OH265562   4.485   0.963   3.068  0.1803 -0.0745 -0.2772
14716TIP3    H165563   4.564   0.958   3.014  0.6660 -1.4948  0.5109
14716TIP3    H265564   4.442   0.879   3.054 -0.4307  0.1162  0.4293
14717TIP3   OH265565   1.262   0.094  12.295  0.3844  0.5078  0.0012
14717TIP3    H165566   1.175   0.126  12.273 -0.6363 -0.6740  2.0870
14717TIP3    H265567   1.278   0.124  12.384  1.5882 -0.3245  0.1003
14718TIP3   OH265568   4.152   2.136   5.027 -0.7763  0.6741  0.4693
14718TIP3    H165569   4.230   2.166   5.073  0.5589  1.2236 -1.9433
14718TIP3    H265570   4.083   2.136   5.093  1.1018  0.8394  2.5311
14719TIP3   OH265571   1.723   0.564   5.825 -0.4522  0.2862  1.5833
14719TIP3    H165572   1.635   0.600   5.814 -0.8732 -0.1688  3.1862
14719TIP3    H265573   1.709   0.469   5.832  0.3953 -0.0124 -0.1687
14720TIP3   OH265574   0.817   4.739  12.111 -0.1157 -0.0645  0.3298
14720TIP3    H165575   0.896   4.689  12.089 -0.0045 -0.0690  0.7278
14720TIP3    H265576   0.850   4.811  12.166 -0.0487  1.3698 -1.4997
14721TIP3   OH265577   5.219   0.028  12.257 -0.2321 -0.6962 -0.0061
14721TIP3    H165578   5.272  -0.051  12.249  0.2991 -0.6596  2.4722
14721TIP3    H265579   5.221   0.049  12.351  1.2516  3.3712 -0.7598
14722TIP3   OH265580   2.020   1.670  11.665  0.2063 -0.3896 -0.4522
14722TIP3    H165581   2.063   1.647  11.747 -1.3187 -0.3021  0.3985
14722TIP3    H265582   1.986   1.758  11.680 -0.5901 -0.6023 -0.9762
14723TIP3   OH265583   4.598   2.222  13.937  0.0115  0.7373  0.6054
14723TIP3    H165584   4.599   2.262  14.024 -3.0282  0.0424  1.0981
14723TIP3    H265585   4.516   2.252  13.898 -0.1451 -1.3215 -0.8047
14724TIP3   OH265586   5.842   4.736   3.530  0.4612  0.8364  0.3753
14724TIP3    H165587   5.879   4.776   3.451  0.2158  1.1061  0.3980
14724TIP3    H265588   5.830   4.644   3.507  1.2282  0.7262  0.3942
14725TIP3   OH265589   1.760   3.519  11.980  0.0853  0.3427  0.0182
14725TIP3    H165590   1.786   3.439  11.935  1.3146  0.4366  0.5175
14725TIP3    H265591   1.828   3.583  11.957 -1.5544  1.6673 -1.4377
14726TIP3   OH265592   5.063   3.477  12.753 -0.0450  0.0130 -0.2423
14726TIP3    H165593   5.015   3.541  12.700 -0.3565  0.2648  0.3210
14726TIP3    H265594   5.077   3.522  12.837  0.4243 -0.3760 -0.1058
14727TIP3   OH265595   3.379   6.723   2.791 -0.2604  0.0415 -0.5034
14727TIP3    H165596   3.423   6.773   2.723 -0.4799  0.1900 -0.5391
14727TIP3    H265597   3.387   6.631   2.764 -1.2592  0.1625 -1.2882
14728TIP3   OH265598   6.139   0.478   6.180 -0.0780  0.3349 -0.1267
14728TIP3    H165599   6.160   0.388   6.155 -0.1545  0.0014  0.9547
14728TIP3    H265600   6.188   0.493   6.261 -1.4647  0.6289  0.7035
14729TIP3   OH265601   0.875   6.186   6.001  0.3069  0.1354 -0.6989
14729TIP3    H165602   0.883   6.264   6.056 -1.2798 -1.6967  2.4336
14729TIP3    H265603   0.960   6.143   6.009 -0.2386 -0.6751  1.4422
14730TIP3   OH265604   2.266   2.376  15.647  0.6063  0.4668 -0.2749
14730TIP3    H165605   2.305   2.365  15.560 -3.2479 -1.6174 -1.9950
14730TIP3    H265606   2.316   2.317  15.703  0.9957 -0.8504 -1.9395
14731TIP3   OH265607   2.121   6.135   1.879  0.1034  0.0826 -0.4080
14731TIP3    H165608   2.035   6.159   1.844 -0.2832  0.9858  1.0635
14731TIP3    H265609   2.182   6.162   1.811 -0.7828 -0.9726 -1.6690
14732TIP3   OH265610   1.424   3.599   5.667  0.1890 -0.0793 -0.4726
14732TIP3    H165611   1.507   3.563   5.700  0.4475  0.3453 -0.6422
14732TIP3    H265612   1.368   3.523   5.655  0.9276 -0.5074 -1.4216
14733TIP3   OH265613   4.270   6.499  11.897 -0.0646  0.1029 -0.6368
14733TIP3    H165614   4.188   6.544  11.913 -0.0208 -0.1680  0.3862
14733TIP3    H265615   4.336   6.569  11.895  0.1989  0.0385  2.2686
14734TIP3   OH265616   0.901   2.784   4.172  0.0710 -0.7465  0.6560
14734TIP3    H165617   0.992   2.782   4.140 -0.5824  2.5079 -2.1181
14734TIP3    H265618   0.854   2.724   4.114  0.1718 -0.9423  0.7795
14735TIP3   OH265619   1.392   3.396  13.885  0.1453 -0.1943  0.4586
14735TIP3    H165620   1.396   3.491  13.874  0.9537 -0.2948 -0.2098
14735TIP3    H265621   1.428   3.381  13.973  0.6221  0.0753  0.3143
14736TIP3   OH265622   3.799   4.698   5.885 -0.5029  0.4473  0.0655
14736TIP3    H165623   3.719   4.687   5.936 -1.0265  0.8298 -0.6637
14736TIP3    H265624   3.852   4.622   5.907 -0.9836  0.2827  0.6926
14737TIP3   OH265625   6.429   6.222  16.891 -0.3739 -0.3346  0.4933
14737TIP3    H165626   6.519   6.192  16.897  0.1697  0.8125 -1.0656
14737TIP3    H265627   6.386   6.189  16.970  1.1698 -1.6504  0.8215
14738TIP3   OH265628   1.566   5.222  16.220 -0.1997 -0.4501 -0.9184
14738TIP3    H165629   1.625   5.198  16.149  1.4669  0.2010  0.1893
14738TIP3    H265630   1.603   5.181  16.298 -0.8917  0.4222 -0.0959
14739TIP3   OH265631   2.447   3.457  17.181 -0.0026 -0.3288 -0.3165
14739TIP3    H165632   2.398   3.412  17.250 -0.3330 -0.9558 -0.9502
14739TIP3    H265633   2.430   3.406  17.102 -0.4565  0.9595 -1.0812
14740TIP3   OH265634   3.900   0.922   3.001  0.3043 -0.5071 -0.7819
14740TIP3    H165635   3.806   0.906   2.993  0.0374  0.6224 -0.1311
14740TIP3    H265636   3.940   0.863   2.937 -0.9190 -0.1259 -1.9393
14741TIP3   OH265637   0.882   0.785  14.941  0.4749 -0.0462 -0.0464
14741TIP3    H165638   0.810   0.827  14.988 -0.8415 -0.6633 -1.4254
14741TIP3    H265639   0.910   0.851  14.877  2.5259  0.9406  1.7676
14742TIP3   OH265640   0.248   1.492   2.371  0.5316 -0.7500 -0.0739
14742TIP3    H165641   0.213   1.563   2.318  2.0215 -0.5627 -0.8636
14742TIP3    H265642   0.285   1.535   2.449  1.8112 -0.5662 -0.7487
14743TIP3   OH265643   0.955   0.258  15.830 -0.0410  0.3180  0.0001
14743TIP3    H165644   0.953   0.296  15.917 -1.1388  0.5129 -0.0970
14743TIP3    H265645   0.868   0.222  15.817  0.3932 -0.5374 -0.6633
14744TIP3   OH265646   1.862   6.101   4.541  0.3111 -0.2401  0.3509
14744TIP3    H165647   1.921   6.172   4.564  2.3217 -1.5011 -0.6366
14744TIP3    H265648   1.836   6.062   4.625 -0.4009  1.2790  0.8673
14745TIP3   OH265649   1.870   0.991   3.201  0.0280 -0.1939 -0.6521
14745TIP3    H165650   1.855   1.058   3.134 -0.2360 -0.0270 -0.4257
14745TIP3    H265651   1.808   0.921   3.179  0.4392 -0.4556 -1.0054
14746TIP3   OH265652   5.248   1.160   1.698  0.6861  0.2908 -0.6534
14746TIP3    H165653   5.168   1.131   1.743  1.4664 -0.8383  0.0884
14746TIP3    H265654   5.219   1.228   1.638 -0.9341 -0.5199 -0.8518
14747TIP3   OH265655   1.432   5.342   1.972 -0.1266 -0.5643 -0.1299
14747TIP3    H165656   1.443   5.430   2.008  0.2089 -0.7945  0.3294
14747TIP3    H265657   1.368   5.354   1.902  0.6287  0.2135 -0.7114
14748TIP3   OH265658   5.591   6.763  12.023 -0.3264 -0.2563 -0.0465
14748TIP3    H165659   5.504   6.801  12.024 -0.5840 -0.7897 -0.9110
14748TIP3    H265660   5.581   6.679  12.069 -0.3018 -0.3838 -0.2731
14749TIP3   OH265661   2.575   3.177  11.770  0.0954  0.2898  0.1569
14749TIP3    H165662   2.667   3.158  11.752 -0.0833 -0.3364 -0.1161
14749TIP3    H265663   2.530   3.093  11.761 -0.4988  0.5773  0.3388
14750TIP3   OH265664   0.328   2.105   6.174  0.0039  0.0750 -0.4590
14750TIP3    H165665   0.348   2.195   6.200 -2.0858  0.4632 -0.0016
14750TIP3    H265666   0.413   2.063   6.167  1.1315  2.3560 -1.7399
14751TIP3   OH265667   0.909   5.500   2.229  0.1678  1.2543 -0.2474
14751TIP3    H165668   0.967   5.570   2.261 -0.3455  1.1254  1.0447
14751TIP3    H265669   0.968   5.429   2.205  0.7416  2.2873 -2.1147
14752TIP3   OH265670   4.558   6.077   5.983  0.1379 -0.0850 -0.0879
14752TIP3    H165671   4.610   6.087   6.062  0.7489 -0.7411 -0.3927
14752TIP3    H265672   4.580   5.989   5.951 -2.0813 -0.8912  0.4418
14753TIP3   OH265673   3.604   0.836  14.121  0.0419  0.1084 -0.1330
14753TIP3    H165674   3.597   0.865  14.030  1.6204  0.6496 -0.1193
14753TIP3    H265675   3.669   0.766  14.119  0.3174  0.3317  0.6105
14754TIP3   OH265676   2.720   1.698  15.668 -0.1062  0.4631 -0.3388
14754TIP3    H165677   2.650   1.633  15.668  0.8525 -0.6693  1.7998
14754TIP3    H265678   2.748   1.704  15.577 -1.3412 -0.8775 -0.8374
14755TIP3   OH265679   3.155   3.514   3.707  0.2074  0.1775  0.4899
14755TIP3    H165680   3.119   3.496   3.793 -1.3483 -0.1179 -0.1820
14755TIP3    H265681   3.177   3.607   3.708 -0.6074  0.3749  0.9433
14756TIP3   OH265682   0.911   5.502   5.334 -0.5894  0.3807 -0.0940
14756TIP3    H165683   0.962   5.569   5.379  0.3635 -0.4162  0.0388
14756TIP3    H265684   0.955   5.420   5.354  0.2363  0.0219 -2.9198
14757TIP3   OH265685   2.823   4.959  11.610 -0.5046 -0.2583  0.3888
14757TIP3    H165686   2.735   4.932  11.585 -1.3615  0.2686  2.5898
14757TIP3    H265687   2.831   5.048  11.576 -0.7592 -0.3628  0.0516
14758TIP3   OH265688   1.935   6.276  11.762 -0.1205 -0.1072  0.0588
14758TIP3    H165689   1.971   6.251  11.847 -0.6051  0.2511  0.3702
14758TIP3    H265690   1.914   6.192  11.719  0.4876 -0.2988  0.1289
14759TIP3   OH265691   1.183   4.729   2.459  0.5292  0.0752 -0.1443
14759TIP3    H165692   1.182   4.714   2.554 -0.2784 -1.0374 -0.3144
14759TIP3    H265693   1.219   4.817   2.450  1.2240 -0.0404  1.1599
14760TIP3   OH265694   6.100   4.384  14.829 -0.8000 -0.1993 -0.7948
14760TIP3    H165695   6.149   4.441  14.770  0.6922 -1.5261 -0.9060
14760TIP3    H265696   6.113   4.423  14.916 -0.2858 -0.0318 -0.9422
14761TIP3   OH265697   2.225   1.244   3.780  0.4210  0.0101 -0.2039
14761TIP3    H165698   2.268   1.329   3.792 -2.4276  1.4993  0.4156
14761TIP3    H265699   2.157   1.261   3.714  0.1088 -1.9421 -0.4480
14762TIP3   OH265700   5.767   3.670  17.151 -0.2168 -0.4953  0.2193
14762TIP3    H165701   5.851   3.712  17.132  0.2757 -1.7590 -0.5127
14762TIP3    H265702   5.706   3.742  17.162  0.6963  0.4201 -0.5402
14763TIP3   OH265703   3.930   3.406   3.015 -0.3182 -0.3783  0.7481
14763TIP3    H165704   3.898   3.363   2.936  0.4291  1.1531 -0.4588
14763TIP3    H265705   4.020   3.375   3.025 -0.5630 -0.9248  1.2726
14764TIP3   OH265706   5.829   4.234   3.647  0.0446 -0.1986  0.5377
14764TIP3    H165707   5.787   4.249   3.563 -0.6239 -1.5244  0.6069
14764TIP3    H265708   5.775   4.167   3.689  1.6011 -1.1704  1.0932
14765TIP3   OH265709   5.226   2.514   6.023 -0.0931  0.1142 -0.4666
14765TIP3    H165710   5.291   2.541   6.088  0.1117  1.4266 -1.1902
14765TIP3    H265711   5.166   2.458   6.072 -0.0534  1.2044  0.9114
14766TIP3   OH265712   4.846   3.363  15.146  0.1200  0.3512  0.0664
14766TIP3    H165713   4.799   3.378  15.064  0.0778  2.6321  0.4538
14766TIP3    H265714   4.883   3.448  15.169  1.6093 -0.6292  1.5292
14767TIP3   OH265715   4.078   0.159   4.623 -0.1000 -0.3329 -0.1647
14767TIP3    H165716   4.045   0.070   4.633 -0.5877 -0.0460  0.9244
14767TIP3    H265717   4.065   0.199   4.708  1.4304  0.3575 -0.2241
14768TIP3   OH265718   3.177   2.678   0.608  0.2543 -0.2462  0.6314
14768TIP3    H165719   3.223   2.639   0.682 -1.4704 -0.0999  1.8403
14768TIP3    H265720   3.090   2.699   0.642 -0.5894 -0.1485 -1.4263
14769TIP3   OH265721   2.913   1.096  12.306  0.2716  0.0284  0.2740
14769TIP3    H165722   2.996   1.066  12.341 -0.2235 -0.1375  1.3347
14769TIP3    H265723   2.852   1.091  12.379 -0.9794 -1.0384 -0.7714
14770TIP3   OH265724   5.437   4.044  10.969  0.1047 -0.2119  0.2118
14770TIP3    H165725   5.414   4.090  10.888  0.6836 -0.7432 -0.2591
14770TIP3    H265726   5.532   4.034  10.965  0.0149 -1.2048  0.4423
14771TIP3   OH265727   2.117   0.264   5.750  0.7313  0.2643 -0.3534
14771TIP3    H165728   2.044   0.213   5.786 -0.7806  1.6302 -1.3256
14771TIP3    H265729   2.176   0.199   5.712  0.3308 -0.9214  0.9605
14772TIP3   OH265730   6.045   3.633  11.385 -0.1997  0.9696 -0.5339
14772TIP3    H165731   6.062   3.719  11.425  1.7629  0.2774  0.2254
14772TIP3    H265732   6.101   3.631  11.307  0.1674  0.1954 -0.2604
14773TIP3   OH265733   2.786   5.366   5.664 -0.4191  0.4639  0.4837
14773TIP3    H165734   2.765   5.363   5.758 -1.0507 -0.9826  0.3227
14773TIP3    H265735   2.702   5.380   5.621 -0.1975  0.6281  0.1069
14774TIP3   OH265736   5.758   6.079   0.415  0.5352  0.3687 -0.6836
14774TIP3    H165737   5.823   6.099   0.482  0.6365  1.5715 -1.1190
14774TIP3    H265738   5.674   6.084   0.462  0.7439 -3.8156  0.5424
14775TIP3   OH265739   4.834   2.636   5.432 -0.2699 -0.6154 -0.0207
14775TIP3    H165740   4.882   2.627   5.514 -1.1815 -0.2919  0.5663
14775TIP3    H265741   4.742   2.629   5.457 -0.7243  2.2830 -0.6031
14776TIP3   OH265742   5.429   2.224   0.213 -0.1889 -0.2220 -0.2597
14776TIP3    H165743   5.346   2.240   0.258 -0.6240  0.7920 -1.3555
14776TIP3    H265744   5.423   2.277   0.133  1.8339  0.4963  0.0003
14777TIP3   OH265745   5.477   0.937  11.855 -0.0191 -0.1227  0.1133
14777TIP3    H165746   5.396   0.984  11.876 -0.4775 -0.2490 -1.2194
14777TIP3    H265747   5.447   0.859  11.808  0.8399 -0.6015  0.3496
14778TIP3   OH265748   4.320   6.099  14.148 -0.3147 -0.4972 -0.0071
14778TIP3    H165749   4.390   6.051  14.192  0.8991 -2.4402 -3.6244
14778TIP3    H265750   4.366   6.167  14.098 -1.5393  1.0532  0.8726
14779TIP3   OH265751   4.438   1.562  12.566 -0.1429  0.4201 -0.7430
14779TIP3    H165752   4.416   1.634  12.507 -0.5169  0.6339 -0.3470
14779TIP3    H265753   4.354   1.533  12.601 -0.1396 -1.1041 -1.9105
14780TIP3   OH265754   3.799   4.067  13.183 -0.3347  0.2320 -0.6540
14780TIP3    H165755   3.797   4.163  13.186 -0.1664  0.2131  1.5052
14780TIP3    H265756   3.746   4.045  13.106 -1.0242  2.0326 -0.7617
14781TIP3   OH265757   4.626   5.349   1.044 -0.1237 -0.3191 -0.1597
14781TIP3    H165758   4.659   5.261   1.026  0.9077  0.0135  0.0746
14781TIP3    H265759   4.641   5.397   0.962 -0.5471 -0.3087 -0.2358
14782TIP3   OH265760   5.599   6.709  14.013  0.5976 -0.2017 -0.3775
14782TIP3    H165761   5.528   6.646  14.029  1.5829 -1.3184 -0.2021
14782TIP3    H265762   5.671   6.654  13.981  0.3196  1.2757 -4.0406
14783TIP3   OH265763   2.822   0.135  15.928  0.4541 -0.1523  0.0676
14783TIP3    H165764   2.893   0.195  15.905  1.0995 -1.2839 -0.9585
14783TIP3    H265765   2.777   0.179  16.001  0.7848  1.6577 -0.7578
14784TIP3   OH265766   5.134   0.767  12.786  0.2265 -0.3788 -0.1420
14784TIP3    H165767   5.185   0.801  12.713  0.8401 -1.0580 -0.0426
14784TIP3    H265768   5.176   0.806  12.864 -0.1243 -0.0368 -0.1227
14785TIP3   OH265769   4.514   0.537  14.350 -0.0748 -0.4959 -0.2457
14785TIP3    H165770   4.489   0.530  14.258 -0.3022 -0.8920 -0.1552
14785TIP3    H265771   4.573   0.612  14.353  1.0663 -1.3426 -0.9566
14786TIP3   OH265772   6.000   4.051   3.264  0.3120  0.3987 -0.0851
14786TIP3    H165773   5.927   4.057   3.324  0.8881  0.9169  0.5776
14786TIP3    H265774   6.000   4.134   3.216  0.0385  0.1111 -0.5944
14787TIP3   OH265775   2.066   0.036  16.239  0.0857  0.2066  0.3099
14787TIP3    H165776   1.996   0.027  16.174 -1.2761  1.6016  1.4921
14787TIP3    H265777   2.137  -0.018  16.205 -1.0851 -0.2500 -1.6003
14788TIP3   OH265778   5.608   2.177  14.413 -0.0969 -0.2354 -0.4182
14788TIP3    H165779   5.632   2.092  14.449  0.0705 -0.2105 -0.4703
14788TIP3    H265780   5.679   2.236  14.440 -1.8382  0.6750  2.5652
14789TIP3   OH265781   5.972   4.223   1.148 -0.1369 -0.1464 -0.1589
14789TIP3    H165782   5.887   4.223   1.104 -0.6963 -1.7834  0.8338
14789TIP3    H265783   5.997   4.315   1.151 -1.7255  0.3442 -0.7543
14790TIP3   OH265784   3.140   2.783   6.433  0.2209 -0.0430 -0.2638
14790TIP3    H165785   3.066   2.837   6.405 -0.4712  0.1951  1.8182
14790TIP3    H265786   3.133   2.781   6.528  2.9353  0.0235  0.0254
14791TIP3   OH265787   0.537   6.106  13.085 -0.0739  0.3226 -0.2565
14791TIP3    H165788   0.496   6.181  13.128 -0.2810 -0.7409  1.4936
14791TIP3    H265789   0.626   6.135  13.064 -0.1363  1.0283  0.4263
14792TIP3   OH265790   5.926   0.751  11.026  0.0625 -0.0702  0.3853
14792TIP3    H165791   5.902   0.840  11.050 -0.1583  0.0542 -0.2825
14792TIP3    H265792   5.921   0.702  11.108 -1.8258  0.0827  0.4010
14793TIP3   OH265793   6.626   2.357   1.082  0.3205 -0.3680  0.2470
14793TIP3    H165794   6.600   2.368   1.173 -0.5095  1.1969 -0.1461
14793TIP3    H265795   6.676   2.436   1.062  0.8285 -0.8791 -0.5500
14794TIP3   OH265796   3.322   0.327   4.277 -0.2293  0.1631 -0.3538
14794TIP3    H165797   3.362   0.363   4.356  0.8024  0.1799 -0.8640
14794TIP3    H265798   3.335   0.395   4.211 -1.8510  0.5167 -0.3453
14795TIP3   OH265799   0.793   2.234  12.917 -0.3754  0.0178  0.0491
14795TIP3    H165800   0.853   2.301  12.884  0.2382  0.9806  2.8646
14795TIP3    H265801   0.838   2.151  12.897  1.1301  0.6522  0.6192
14796TIP3   OH265802   0.269   0.544   2.103 -1.0442 -0.4008 -0.0672
14796TIP3    H165803   0.251   0.584   2.018  0.2532 -0.2202 -0.2807
14796TIP3    H265804   0.292   0.618   2.159 -4.1236 -0.2168  1.1487
14797TIP3   OH265805   0.312   1.867  13.300  0.0257  0.0396  0.4201
14797TIP3    H165806   0.350   1.862  13.388 -1.1385  0.5420  0.9744
14797TIP3    H265807   0.219   1.886  13.315 -0.4738 -1.1783 -0.8846
14798TIP3   OH265808   0.303   5.306  13.511 -0.4974  0.0531 -0.7489
14798TIP3    H165809   0.236   5.374  13.518 -0.6378 -0.1254 -0.3262
14798TIP3    H265810   0.311   5.290  13.417 -0.7239  0.3954 -0.8292
14799TIP3   OH265811   3.828   3.990  11.600 -0.5119  0.7522  0.3048
14799TIP3    H165812   3.779   3.918  11.560  0.9632 -0.8512  1.2089
14799TIP3    H265813   3.857   4.043  11.526  0.4378 -0.9992 -0.6549
14800TIP3   OH265814   5.212   4.264  16.110  0.1739  0.3424 -0.6759
14800TIP3    H165815   5.117   4.277  16.112 -0.4680 -2.9961 -2.1637
14800TIP3    H265816   5.248   4.348  16.135 -3.1783  1.3454  1.4394
14801TIP3   OH265817   4.254   4.465  12.716 -0.1691 -0.1671 -0.0380
14801TIP3    H165818   4.323   4.507  12.665 -0.0563 -1.5555 -1.0920
14801TIP3    H265819   4.173   4.498  12.676 -0.0906 -1.7665 -1.6814
14802TIP3   OH265820   3.478   5.300  16.826 -0.6557 -0.0709 -0.6275
14802TIP3    H165821   3.479   5.300  16.922  1.1186 -0.2783 -0.6223
14802TIP3    H265822   3.433   5.381  16.803  1.4490  1.4925  0.4226
14803TIP3   OH265823   3.734   3.663  12.105 -0.8256 -0.0485 -0.5750
14803TIP3    H165824   3.814   3.636  12.061 -0.9881 -1.4496 -0.0448
14803TIP3    H265825   3.691   3.582  12.130 -1.1894  0.6625  1.3308
14804TIP3   OH265826   2.235   4.206  15.183 -0.3418 -1.3272  0.7740
14804TIP3    H165827   2.171   4.192  15.252  0.8696 -0.8294  2.0702
14804TIP3    H265828   2.315   4.165  15.216  0.6567  0.1803  0.3479
14805TIP3   OH265829   2.280   5.327   0.497  0.0708 -0.5707  0.0021
14805TIP3    H165830   2.246   5.416   0.494  2.0275  0.2271 -1.3641
14805TIP3    H265831   2.220   5.276   0.443  0.2009  0.4708 -1.1781
14806TIP3   OH265832   6.535   5.085  15.253 -1.0054 -0.2666 -0.1250
14806TIP3    H165833   6.506   4.999  15.286  0.1809 -0.5610  0.2309
14806TIP3    H265834   6.630   5.074  15.241 -0.8027  1.0639  0.1503
14807TIP3   OH265835   3.329   4.494   2.861  0.0967  0.2878  0.0150
14807TIP3    H165836   3.303   4.561   2.924  0.0594  0.4111 -0.1305
14807TIP3    H265837   3.412   4.525   2.825 -0.9229  1.3243 -1.5770
14808TIP3   OH265838   3.020   6.390   4.134  0.2633 -0.4794 -0.1079
14808TIP3    H165839   2.946   6.432   4.089  1.0468  0.4930 -0.5168
14808TIP3    H265840   3.008   6.415   4.226  0.7253  0.6912 -0.3449
14809TIP3   OH265841   6.394   5.727  14.686 -0.1623 -0.0514  0.2366
14809TIP3    H165842   6.453   5.729  14.761  1.6231 -0.0572 -1.1002
14809TIP3    H265843   6.309   5.706  14.723  0.4775  0.8255  2.3534
14810TIP3   OH265844   2.639   3.916   2.354  0.5255  0.0377  0.5479
14810TIP3    H165845   2.678   3.979   2.414  2.1255 -0.7057  0.3270
14810TIP3    H265846   2.676   3.832   2.379 -0.2827 -0.5766 -0.2438
14811TIP3   OH265847   2.099   0.447   3.439  0.9183 -0.4395  0.5569
14811TIP3    H165848   2.156   0.429   3.364  0.7743 -0.1012  0.3624
14811TIP3    H265849   2.045   0.520   3.410 -0.7763 -1.8103  0.1140
14812TIP3   OH265850   1.212   4.815  16.310 -0.4140  0.3225  1.1058
14812TIP3    H165851   1.285   4.875  16.301 -1.0285  0.8887 -0.5231
14812TIP3    H265852   1.146   4.848  16.249 -1.3604 -1.1383  1.2772
14813TIP3   OH265853   0.340   1.126  14.569 -0.1944  0.3251 -0.6517
14813TIP3    H165854   0.298   1.041  14.581 -0.0051  0.2776 -0.2749
14813TIP3    H265855   0.352   1.135  14.475  0.2296 -0.2922 -0.6667
14814TIP3   OH265856   0.454   0.221   5.924  0.4179 -0.5493  0.1366
14814TIP3    H165857   0.527   0.262   5.877  0.2437 -1.6005 -1.1135
14814TIP3    H265858   0.494   0.183   6.002  0.5402  2.1708  1.5120
14815TIP3   OH265859   2.536   1.132   2.977 -0.3545 -0.2541 -0.3047
14815TIP3    H165860   2.554   1.177   2.894  0.6236 -1.5588 -0.8237
14815TIP3    H265861   2.520   1.203   3.039 -0.6306  0.7602 -1.4983
14816TIP3   OH265862   0.118   0.600  16.402 -0.7101  0.3435  0.7003
14816TIP3    H165863   0.085   0.633  16.318 -0.8365  0.1897  0.6875
14816TIP3    H265864   0.136   0.678  16.453  1.5555  0.5291 -0.2756
14817TIP3   OH265865   3.558   6.524   4.237 -0.4079  0.3473 -0.4316
14817TIP3    H165866   3.538   6.521   4.143 -2.3726 -0.2208 -0.0372
14817TIP3    H265867   3.597   6.611   4.250 -1.2552  0.9300 -1.5839
14818TIP3   OH265868   2.560   0.888   2.691  0.0399 -0.4071 -0.3036
14818TIP3    H165869   2.548   0.820   2.625  0.5713  0.7649 -1.6622
14818TIP3    H265870   2.637   0.938   2.661  0.5331 -0.0706  1.4128
14819TIP3   OH265871   5.478   5.089  13.174  0.0033  0.0780  0.0917
14819TIP3    H165872   5.522   5.159  13.222  0.8920 -0.0841 -0.4642
14819TIP3    H265873   5.428   5.041  13.240  0.0536  0.7309  0.6082
14820TIP3   OH265874   3.872   5.467   3.249 -0.7971  0.8600 -0.5822
14820TIP3    H165875   3.841   5.500   3.334 -1.6428  0.4721 -0.7289
14820TIP3    H265876   3.808   5.500   3.186 -0.1176  1.2271 -1.0893
14821TIP3   OH265877   1.835   0.824   5.314  0.6387 -0.4414 -0.6879
14821TIP3    H165878   1.864   0.882   5.385  1.6121 -0.0889 -1.3557
14821TIP3    H265879   1.900   0.754   5.312  1.3771  0.2598 -2.0932
14822TIP3   OH265880   4.378   2.841   3.917  0.5360  0.1496 -0.2316
14822TIP3    H165881   4.312   2.772   3.928  0.8550 -0.0273  0.7164
14822TIP3    H265882   4.426   2.817   3.838 -0.4480  0.2117 -0.8575
14823TIP3   OH265883   5.674   0.045  15.252 -0.1089  0.3732 -0.4540
14823TIP3    H165884   5.698   0.014  15.339  1.8411 -0.5238 -1.2604
14823TIP3    H265885   5.591   0.001  15.233 -1.1812  1.4964  1.3754
14824TIP3   OH265886   1.496   3.161   3.372  0.1492  0.7654  0.0690
14824TIP3    H165887   1.538   3.217   3.437 -0.0128 -0.7919  1.6009
14824TIP3    H265888   1.562   3.096   3.349 -0.6020 -0.2534  0.6749
14825TIP3   OH265889   1.450   2.604   4.649 -0.2252 -0.0659  0.4180
14825TIP3    H165890   1.478   2.607   4.741  1.2245  0.9107 -0.0184
14825TIP3    H265891   1.447   2.510   4.628  1.0310 -0.2622  1.0195
14826TIP3   OH265892   6.423   3.705   4.011  0.1108 -0.2800  0.4410
14826TIP3    H165893   6.400   3.673   3.924  2.0805 -0.5246 -0.0338
14826TIP3    H265894   6.340   3.729   4.050 -0.7246  1.0967 -1.9883
14827TIP3   OH265895   4.819   3.320  17.034  0.1251  0.1419 -0.1782
14827TIP3    H165896   4.882   3.265  17.080 -0.2105  0.2720  0.4515
14827TIP3    H265897   4.740   3.317  17.088  0.1965  1.4860  0.0427
14828TIP3   OH265898   1.991   3.586  11.477 -0.0579  0.2319 -0.3409
14828TIP3    H165899   2.016   3.494  11.468  0.4141  0.2897  0.3387
14828TIP3    H265900   1.928   3.586  11.549 -0.4734  0.3680 -0.7019
14829TIP3   OH265901   6.615   5.140  15.718  0.1076  0.4222 -0.3381
14829TIP3    H165902   6.700   5.178  15.696  1.9430 -3.2941 -0.4664
14829TIP3    H265903   6.625   5.112  15.809 -1.2670  0.5577 -0.1253
14830TIP3   OH265904   5.029   4.672  11.596  0.1329 -0.2636  0.5377
14830TIP3    H165905   4.960   4.658  11.661  2.5569  0.0984  3.3992
14830TIP3    H265906   5.084   4.741  11.634  0.0366  2.2757 -3.4161
14831TIP3   OH265907   2.419   1.479  13.323 -0.2184 -0.7326 -0.0050
14831TIP3    H165908   2.353   1.543  13.350 -1.5397 -1.0053 -2.3153
14831TIP3    H265909   2.498   1.505  13.371 -1.9178 -0.3134  2.7369
14832TIP3   OH265910   1.130   5.921  12.119  0.0585 -0.5601 -0.2925
14832TIP3    H165911   1.174   5.937  12.036  1.5364 -1.5039  0.2642
14832TIP3    H265912   1.054   5.979  12.118  2.6579  3.2138 -0.2521
14833TIP3   OH265913   6.224   3.843   3.711 -0.4384 -0.7554  0.2740
14833TIP3    H165914   6.291   3.888   3.659 -0.3543 -0.4273  0.6601
14833TIP3    H265915   6.265   3.762   3.740 -0.1963 -0.5457  0.5278
14834TIP3   OH265916   1.520   4.769  13.230  0.3980 -0.4361 -0.1171
14834TIP3    H165917   1.591   4.791  13.170 -0.5797  2.2282 -0.4744
14834TIP3    H265918   1.502   4.677  13.214  4.4761 -1.6161  0.8451
14835TIP3   OH265919   3.526   4.874  16.333  0.0492 -0.5002  0.8790
14835TIP3    H165920   3.589   4.928  16.285 -0.6688  0.7991  1.3619
14835TIP3    H265921   3.456   4.857  16.269 -0.4257  0.3820  1.1612
14836TIP3   OH265922   1.505   3.394  14.129  0.0102 -0.0956 -0.4141
14836TIP3    H165923   1.452   3.419  14.204  0.6715 -2.2004  0.8504
14836TIP3    H265924   1.592   3.429  14.149 -0.5301  2.3441 -1.9315
14837TIP3   OH265925   4.732   1.269   6.153 -0.4637  0.6892 -0.3502
14837TIP3    H165926   4.778   1.281   6.237 -0.3726  2.2186 -0.6010
14837TIP3    H265927   4.668   1.340   6.150 -0.9803  0.2037 -1.2550
14838TIP3   OH265928   2.353   4.410   1.203 -0.3449  0.3216  0.2805
14838TIP3    H165929   2.306   4.482   1.160 -1.4232 -0.9655 -0.7936
14838TIP3    H265930   2.403   4.369   1.133 -0.4426 -0.5193  0.6999
14839TIP3   OH265931   0.957   0.466   0.423  0.0440 -0.3328 -0.4703
14839TIP3    H165932   0.989   0.523   0.494  1.7404 -1.4048 -0.3081
14839TIP3    H265933   0.865   0.452   0.443  0.2146  0.3093  0.8843
14840TIP3   OH265934   0.479   3.640  10.786  0.9604  0.2338  0.4697
14840TIP3    H165935   0.472   3.695  10.864 -0.7431  0.4179  0.2382
14840TIP3    H265936   0.392   3.646  10.745  1.3555 -1.0475 -0.6346
14841TIP3   OH265937   2.555   6.490  14.861  0.0354 -0.0041  0.7374
14841TIP3    H165938   2.591   6.459  14.944 -2.8194  0.1258  2.1660
14841TIP3    H265939   2.460   6.489  14.875 -0.5037  1.0355 -2.1965
14842TIP3   OH265940   4.636   4.620   0.473 -0.1326  0.3693  0.0436
14842TIP3    H165941   4.554   4.617   0.522 -0.3489  0.9863 -0.2673
14842TIP3    H265942   4.644   4.533   0.435 -1.4320  0.7394 -1.1804
14843TIP3   OH265943   0.813   2.751  12.125  0.0388  0.0567 -0.4301
14843TIP3    H165944   0.848   2.824  12.074  0.6661 -0.2110 -0.3903
14843TIP3    H265945   0.839   2.673  12.076  1.0896 -0.2311  0.5524
14844TIP3   OH265946   5.910   4.017  16.219  0.6579 -0.4452  0.2343
14844TIP3    H165947   5.838   3.954  16.224 -1.2080  1.4449 -1.1230
14844TIP3    H265948   5.988   3.963  16.206 -0.7167 -2.5034 -0.0143
14845TIP3   OH265949   1.539   5.545  16.164 -0.5539 -0.0202  0.1588
14845TIP3    H165950   1.564   5.453  16.166 -0.6563 -0.0384  1.3781
14845TIP3    H265951   1.621   5.592  16.149 -0.5884 -0.3237 -1.0670
14846TIP3   OH265952   2.833   2.867   5.882 -0.3584 -0.3346 -0.2667
14846TIP3    H165953   2.761   2.805   5.889 -1.8351  1.0863 -2.1144
14846TIP3    H265954   2.794   2.953   5.899  0.7015  0.5544 -1.9692
14847TIP3   OH265955   0.166   2.583   4.915 -0.4374 -0.2835 -0.7715
14847TIP3    H165956   0.115   2.590   4.996 -0.6696 -1.7989 -0.7487
14847TIP3    H265957   0.103   2.557   4.849 -0.3480  1.4769 -1.6072
14848TIP3   OH265958   5.574   1.676  13.260 -0.4355  0.1070  0.2379
14848TIP3    H165959   5.572   1.704  13.351 -0.3341  0.2292  0.2032
14848TIP3    H265960   5.545   1.753  13.211 -0.6759 -0.0193  0.1821
14849TIP3   OH265961   3.266   6.410   2.874 -0.1014 -0.0014  0.8198
14849TIP3    H165962   3.332   6.392   2.806  0.0808  0.8015  0.7689
14849TIP3    H265963   3.310   6.469   2.934 -0.3449 -0.5254  1.5248
14850TIP3   OH265964   3.374   3.510   4.210 -0.0737  0.1273  0.1605
14850TIP3    H165965   3.456   3.510   4.258 -0.4916 -1.1147  0.9178
14850TIP3    H265966   3.381   3.435   4.150 -1.3390 -1.1859  1.5415
14851TIP3   OH265967   3.214   4.041   0.155 -0.0387  0.2303  0.1777
14851TIP3    H165968   3.253   4.042   0.067  2.3656  0.4533  1.1680
14851TIP3    H265969   3.213   4.133   0.182  0.5940  0.0239  0.9247
14852TIP3   OH265970   5.255   4.335  16.512  0.3123  0.3200  0.5438
14852TIP3    H165971   5.347   4.361  16.504 -0.2885  2.7731  0.9156
14852TIP3    H265972   5.219   4.392  16.580 -1.8585  0.5298 -0.6872
14853TIP3   OH265973   4.630   6.780   3.186  0.7647 -0.5704 -0.3657
14853TIP3    H165974   4.619   6.811   3.096 -1.2414 -0.1897 -0.0404
14853TIP3    H265975   4.725   6.767   3.195  0.9971 -1.0183 -2.6351
14854TIP3   OH265976   2.953   2.258  16.749 -0.3298 -0.8250  0.3214
14854TIP3    H165977   2.858   2.273  16.751 -0.1234  0.6539 -0.1879
14854TIP3    H265978   2.980   2.287  16.662  0.5517 -1.5544  0.3392
14855TIP3   OH265979   2.060   2.323   2.163 -0.4255  0.5853  0.0404
14855TIP3    H165980   2.097   2.262   2.227 -1.1869 -0.2375 -0.2777
14855TIP3    H265981   1.971   2.339   2.194  0.0892  2.4111  0.7059
14856TIP3   OH265982   3.150   4.888   0.217 -0.0753 -0.1108 -0.1060
14856TIP3    H165983   3.232   4.891   0.266 -0.1863  0.1065  0.0689
14856TIP3    H265984   3.128   4.795   0.213  0.0141 -0.1441  0.1264
14857TIP3   OH265985   2.310   4.835   0.422 -0.5710 -0.2472  0.3223
14857TIP3    H165986   2.399   4.869   0.435 -0.3179 -1.1542  1.1001
14857TIP3    H265987   2.270   4.896   0.361  0.1643  0.9057  0.9597
14858TIP3   OH265988   5.954   6.385  16.639 -0.2699  0.7998  0.1119
14858TIP3    H165989   5.912   6.408  16.721 -1.3781  0.9361 -0.4848
14858TIP3    H265990   6.045   6.366  16.664 -0.5440  0.9912  1.3339
14859TIP3   OH265991   3.518   6.696   0.295 -0.0020  0.0200 -0.0037
14859TIP3    H165992   3.542   6.782   0.261  0.6505 -0.0137  0.3355
14859TIP3    H265993   3.423   6.696   0.298 -0.0358  0.3720 -0.9103
14860TIP3   OH265994   0.700   1.006   1.880 -0.3205  0.6471  0.1548
14860TIP3    H165995   0.787   1.023   1.845  0.2351  1.7746  1.9440
14860TIP3    H265996   0.646   1.077   1.846 -0.7648 -0.4265 -1.5128
14861TIP3   OH265997   5.256   3.858   5.895  0.1986 -0.0822  0.1170
14861TIP3    H165998   5.342   3.887   5.924  0.6537 -1.8506  0.6322
14861TIP3    H265999   5.210   3.834   5.975 -0.9718  1.2208 -0.1063
14862TIP3   OH266000   2.578   6.233   2.766 -0.0734 -0.4124 -0.7979
14862TIP3    H166001   2.511   6.300   2.750 -1.6069 -1.5345  0.5300
14862TIP3    H266002   2.544   6.155   2.722 -0.3571 -1.3579  0.9928
14863TIP3   OH266003   1.384   0.381   0.642  0.3682 -0.0646  0.5909
14863TIP3    H166004   1.334   0.321   0.587  0.4712 -1.1799  1.6628
14863TIP3    H266005   1.342   0.376   0.728  0.3386  1.4743  0.6988
14864TIP3   OH266006   3.465   5.816   2.999  0.4035 -0.2488  0.3836
14864TIP3    H166007   3.413   5.897   2.994  2.1568  0.9381  0.2084
14864TIP3    H266008   3.400   5.746   3.003 -1.3386  0.8497 -3.3822
14865TIP3   OH266009   2.208   1.640  16.636  0.2139  0.2213 -0.3101
14865TIP3    H166010   2.263   1.655  16.713  0.0325 -0.6052 -0.0128
14865TIP3    H266011   2.159   1.721  16.625  1.9318  1.2278 -0.9627
14866TIP3   OH266012   1.873   5.978  12.632  0.2971  0.3652 -0.0310
14866TIP3    H166013   1.828   6.058  12.660  1.4221  0.7096  0.8646
14866TIP3    H266014   1.947   5.970  12.691  0.1800 -1.3961 -0.0768
14867TIP3   OH266015   5.265   3.912  15.981 -0.1693 -0.0028 -0.2372
14867TIP3    H166016   5.345   3.945  15.939 -1.0817  0.7337 -1.4363
14867TIP3    H266017   5.194   3.956  15.936 -1.3559 -1.8468 -0.2876
14868TIP3   OH266018   5.522   0.335   1.502  0.6585 -0.6413 -0.9409
14868TIP3    H166019   5.617   0.339   1.497  0.7844  0.8546  1.3982
14868TIP3    H266020   5.495   0.426   1.514 -0.8297 -1.2972  1.2178
14869TIP3   OH266021   3.316   5.371  17.118  0.3883  0.7156 -0.3419
14869TIP3    H166022   3.324   5.277  17.132  0.3794  0.6179 -0.9729
14869TIP3    H266023   3.229   5.383  17.081  0.1468  1.0491  0.3090
14870TIP3   OH266024   2.729   6.334  12.214  0.0762 -0.0364  0.4342
14870TIP3    H166025   2.694   6.407  12.163  2.1784  1.0082  0.3502
14870TIP3    H266026   2.721   6.258  12.155  1.7834  0.9994 -1.2745
14871TIP3   OH266027   3.822   3.838  17.023 -0.4220 -0.3530 -0.6094
14871TIP3    H166028   3.784   3.770  17.078 -0.3552  1.1344  1.3856
14871TIP3    H266029   3.916   3.819  17.023 -0.0574  0.9993  1.9650
14872TIP3   OH266030   2.882   0.881   3.207  0.2480  0.0108  0.1108
14872TIP3    H166031   2.970   0.901   3.240 -0.0854  0.1429  0.9430
14872TIP3    H266032   2.898   0.836   3.124  1.0980  0.2319  0.1366
14873TIP3   OH266033   3.029   3.948  11.293 -0.1648  0.2783 -0.0647
14873TIP3    H166034   2.934   3.942  11.302 -0.2699  1.0294 -0.5472
14873TIP3    H266035   3.042   4.010  11.221  0.7032  1.0456  0.7245
14874TIP3   OH266036   0.563   0.068   4.008 -0.1879 -0.8162 -0.0209
14874TIP3    H166037   0.593   0.017   4.083  0.1020 -1.4308 -0.5507
14874TIP3    H266038   0.615   0.036   3.935  0.3348  0.5708 -0.2769
14875TIP3   OH266039   3.449   3.854  16.304 -0.1087  0.2121  0.3759
14875TIP3    H166040   3.414   3.869  16.216 -0.8120 -0.6481  0.5007
14875TIP3    H266041   3.409   3.923  16.358 -1.6175 -0.7260  0.5074
14876TIP3   OH266042   5.399   6.197  12.176 -0.0482 -0.3120 -0.5735
14876TIP3    H166043   5.378   6.125  12.235  0.0023  0.4958  0.4429
14876TIP3    H266044   5.490   6.180  12.150 -0.2019 -0.8880 -0.7490
14877TIP3   OH266045   4.426   1.230  15.616 -0.1989 -0.1184  0.0944
14877TIP3    H166046   4.458   1.142  15.635 -0.8625  0.0772  2.3401
14877TIP3    H266047   4.494   1.288  15.650 -0.0750  0.2645 -0.7818
14878TIP3   OH266048   2.540   2.920   0.982 -0.1291 -0.3299  0.5088
14878TIP3    H166049   2.564   2.913   1.075  0.5418 -0.2432  0.3446
14878TIP3    H266050   2.622   2.942   0.938 -0.3730 -0.7557 -0.1568
14879TIP3   OH266051   4.621   4.390   0.342 -0.3479  0.0374  0.4451
14879TIP3    H166052   4.685   4.321   0.324 -0.5081 -0.4248  1.5312
14879TIP3    H266053   4.558   4.384   0.270 -1.2696 -2.0821  1.3070
14880TIP3   OH266054   5.671   6.132  15.088 -0.7152 -0.1457 -0.1969
14880TIP3    H166055   5.693   6.080  15.011 -0.4082 -1.5085  0.7773
14880TIP3    H266056   5.645   6.217  15.052  0.8860 -0.2262 -1.7055
14881TIP3   OH266057   3.121   2.588   4.088 -0.0924  0.4316 -0.5409
14881TIP3    H166058   3.209   2.582   4.125 -0.3346  0.0088 -0.0105
14881TIP3    H266059   3.063   2.560   4.159 -0.5819 -0.2261 -1.1800
14882TIP3   OH266060   3.198   1.015   4.906 -0.1252  0.0159  0.0618
14882TIP3    H166061   3.210   1.054   4.820  1.1377 -0.0197  0.2067
14882TIP3    H266062   3.103   1.001   4.913 -0.3987  1.3420 -0.7303
14883TIP3   OH266063   4.167   4.209  16.019  0.0523  0.5962  0.3293
14883TIP3    H166064   4.159   4.145  15.948  0.0718  0.0316  0.8314
14883TIP3    H266065   4.080   4.249  16.025  0.1842  0.9761 -0.3270
14884TIP3   OH266066   5.851   5.575  16.017 -0.1405  0.1223  0.1013
14884TIP3    H166067   5.759   5.552  16.005  0.2552 -0.6982 -1.5928
14884TIP3    H266068   5.896   5.540  15.940  0.9347  4.4133 -1.5086
14885TIP3   OH266069   2.888   3.841  12.553  1.1156  0.0783 -0.0893
14885TIP3    H166070   2.927   3.754  12.547  0.6773 -0.0508 -2.0546
14885TIP3    H266071   2.876   3.868  12.461 -1.5983  0.8972  0.4078
14886TIP3   OH266072   1.139   1.431  12.898 -0.0678  0.4829 -0.2215
14886TIP3    H166073   1.152   1.379  12.977 -0.4430 -1.1579 -1.1893
14886TIP3    H266074   1.213   1.409  12.842  0.9421  2.6915  0.1745
14887TIP3   OH266075   5.500   3.714  14.833  0.1295  0.2558  0.2997
14887TIP3    H166076   5.530   3.663  14.908 -0.9621 -0.6585  0.1382
14887TIP3    H266077   5.540   3.672  14.757  1.3642  1.2783  0.3539
14888TIP3   OH266078   6.297   4.120   4.838  0.1889 -0.4593  0.3315
14888TIP3    H166079   6.227   4.097   4.898 -0.9092 -0.2635 -0.8254
14888TIP3    H266080   6.281   4.065   4.761  0.4797  0.5639 -0.4856
14889TIP3   OH266081   2.350   5.265  13.575  0.1052  0.0211 -0.2959
14889TIP3    H166082   2.380   5.296  13.490 -0.2738  0.8141 -0.1534
14889TIP3    H266083   2.305   5.182  13.556 -0.8761  0.6971 -1.0227
14890TIP3   OH266084   1.403   3.041   5.144  0.7322  1.0489  0.2570
14890TIP3    H166085   1.443   3.022   5.229  0.5859  1.4942  0.4244
14890TIP3    H266086   1.434   3.129   5.122  0.3875  1.1232  0.0687
14891TIP3   OH266087   6.139   5.092   1.701  0.3404 -0.1091 -0.2020
14891TIP3    H166088   6.064   5.067   1.648  0.5446 -0.9976 -0.1049
14891TIP3    H266089   6.115   5.065   1.790  0.8126 -0.5245 -0.1927
14892TIP3   OH266090   1.490   2.302   5.623 -0.2248  0.3043  0.1293
14892TIP3    H166091   1.499   2.390   5.587  1.4842  0.8931  1.8165
14892TIP3    H266092   1.452   2.251   5.552 -0.6069  2.2221 -1.1348
14893TIP3   OH266093   0.923   0.671  12.911  0.0001  0.1903 -0.2313
14893TIP3    H166094   0.938   0.749  12.857 -1.3394 -0.4755 -1.6504
14893TIP3    H266095   0.859   0.699  12.977  0.2864  0.5477 -0.1012
14894TIP3   OH266096   0.762   6.047   0.561 -0.2781  0.2163 -0.4257
14894TIP3    H166097   0.731   6.081   0.477  0.7135 -1.0703 -1.3514
14894TIP3    H266098   0.745   5.953   0.557  0.4191  0.0309  0.5277
14895TIP3   OH266099   0.734   3.544   3.553  0.4236 -0.0715 -0.2181
14895TIP3    H166100   0.686   3.480   3.501  1.0711 -0.8111  0.0830
14895TIP3    H266101   0.823   3.543   3.518  0.5782  0.2601  0.1522
14896TIP3   OH266102   4.929   5.593   2.293  0.5021  0.5778 -0.0638
14896TIP3    H166103   4.941   5.501   2.317  0.4484  0.8719  1.2039
14896TIP3    H266104   4.850   5.620   2.341  0.4516  1.2521 -0.5101
14897TIP3   OH266105   1.672   4.228   5.282  0.2261  0.0220 -0.5550
14897TIP3    H166106   1.692   4.250   5.373 -0.6840  0.2902 -0.4010
14897TIP3    H266107   1.753   4.194   5.246  0.4769 -0.5031  0.4902
14898TIP3   OH266108   3.749   0.897  12.471 -0.1961  0.0578 -0.5017
14898TIP3    H166109   3.736   0.982  12.513 -1.4329 -0.0188 -0.6909
14898TIP3    H266110   3.831   0.864  12.509  0.5934  1.5535 -0.8200
14899TIP3   OH266111   2.984   1.439   0.050 -0.5712 -0.7523  0.5321
14899TIP3    H166112   3.073   1.403   0.054  0.4100  1.0185 -2.3098
14899TIP3    H266113   2.979   1.500   0.123  0.9790 -0.1020  0.1349
14900TIP3   OH266114   6.017   0.312   5.784  0.0407  0.3299  0.1720
14900TIP3    H166115   6.089   0.249   5.775 -0.4426  0.0052 -1.9130
14900TIP3    H266116   6.052   0.393   5.747 -0.1657  0.5960  0.5566
14901TIP3   OH266117   0.226   4.247  11.093 -0.5821  0.8736 -0.4174
14901TIP3    H166118   0.173   4.211  11.022  0.8915  0.7357 -1.4767
14901TIP3    H266119   0.163   4.262  11.164 -1.4979 -2.6414 -0.2946
14902TIP3   OH266120   3.344   0.830   5.025  0.3214 -0.4087 -0.2287
14902TIP3    H166121   3.400   0.797   4.955 -0.1351 -1.4578 -0.1267
14902TIP3    H266122   3.276   0.880   4.980 -0.1311 -1.3119 -0.5884
14903TIP3   OH266123   5.218   1.910   1.330 -0.1861  0.7092 -0.2661
14903TIP3    H166124   5.251   1.840   1.386 -0.1614  1.2467  0.4104
14903TIP3    H266125   5.143   1.946   1.377 -2.2362 -0.9220 -2.1006
14904TIP3   OH266126   6.132   2.183   4.141 -0.0452 -0.2827 -0.2655
14904TIP3    H166127   6.182   2.110   4.105 -1.3576 -0.9946 -0.6941
14904TIP3    H266128   6.041   2.161   4.124 -0.6467  0.1184  2.1184
14905TIP3   OH266129   6.391   2.698  13.877 -0.1198 -0.2282 -0.1600
14905TIP3    H166130   6.471   2.670  13.921 -0.1815  1.0909  0.8644
14905TIP3    H266131   6.403   2.792  13.864 -2.5652  0.5937  2.5052
14906TIP3   OH266132   0.976   5.284  11.659  0.1424  0.5336 -0.4903
14906TIP3    H166133   0.981   5.292  11.564  0.2857  0.7384 -0.4646
14906TIP3    H266134   1.019   5.362  11.693  0.9255  0.0020 -0.2462
14907TIP3   OH266135   1.774   1.165  17.029  0.0724 -0.0421  0.2271
14907TIP3    H166136   1.731   1.143  16.946  1.0889 -2.3980  0.2334
14907TIP3    H266137   1.852   1.215  17.004 -0.7401  1.1340 -0.0362
14908TIP3   OH266138   3.195   4.065   0.997 -0.4743 -0.3884  0.8104
14908TIP3    H166139   3.206   4.034   0.907 -1.1509 -0.7338  0.8436
14908TIP3    H266140   3.274   4.035   1.042  0.8039  1.4477 -0.1039
14909TIP3   OH266141   4.751   1.039  14.189 -0.0947 -0.2488 -0.0484
14909TIP3    H166142   4.761   0.972  14.121 -1.0328  0.1198 -0.5550
14909TIP3    H266143   4.736   1.120  14.141  1.9298  0.5343  0.5297
14910TIP3   OH266144   4.083   2.315  15.845 -0.0781  0.1039 -0.0449
14910TIP3    H166145   4.018   2.339  15.779 -1.4495 -1.7595  0.5675
14910TIP3    H266146   4.087   2.391  15.904  0.1783  1.2337 -1.4682
14911TIP3   OH266147   3.839   4.323  15.354 -0.7990  0.0490  0.3506
14911TIP3    H166148   3.782   4.295  15.283  1.3527  1.4990 -2.1017
14911TIP3    H266149   3.835   4.418  15.352  1.0219  0.1563  0.6794
14912TIP3   OH266150   6.236   1.702  10.118  0.2837 -0.4376 -0.0529
14912TIP3    H166151   6.324   1.739  10.129 -0.0528 -0.0306  1.6785
14912TIP3    H266152   6.249   1.621  10.070  1.4153  0.3455 -1.1368
14913TIP3   OH266153   6.597   1.942   5.001 -0.6224 -0.4925  0.3665
14913TIP3    H166154   6.526   2.004   4.983  0.4266  0.6688  0.1200
14913TIP3    H266155   6.612   1.950   5.095  1.2538  1.6417 -0.0270
14914TIP3   OH266156   0.768   1.445   2.980 -0.3585 -0.4307 -0.3212
14914TIP3    H166157   0.778   1.459   3.074  1.6685  1.4836 -0.7519
14914TIP3    H266158   0.679   1.476   2.960 -0.9522 -1.2129  0.9809
14915TIP3   OH266159   0.994   2.155  11.756  0.2525 -0.5609  0.7144
14915TIP3    H166160   0.918   2.183  11.706  1.5818  2.0560 -0.0733
14915TIP3    H266161   0.968   2.165  11.848  0.4011  3.2247  0.5174
14916TIP3   OH266162   1.278   2.929   1.435  0.3227 -0.4096  0.4781
14916TIP3    H166163   1.311   3.013   1.466  0.3188 -0.4683  0.6434
14916TIP3    H266164   1.315   2.919   1.348  1.0365 -0.6417  0.8016
14917TIP3   OH266165   6.408   5.114  13.514 -0.0399 -0.0160  0.3361
14917TIP3    H166166   6.360   5.113  13.431 -1.2123  0.3773  0.9798
14917TIP3    H266167   6.343   5.142  13.578  0.2064 -2.5021  1.7980
14918TIP3   OH266168   0.718   0.773  16.342  0.0946 -0.1760  0.3841
14918TIP3    H166169   0.678   0.710  16.401 -2.7485  1.5077  0.4380
14918TIP3    H266170   0.649   0.837  16.325  2.3330  2.0865 -0.8760
14919TIP3   OH266171   6.635   4.204   1.195  0.1293 -0.0398 -0.6512
14919TIP3    H166172   6.717   4.196   1.242 -0.4698  1.4485  0.7421
14919TIP3    H266173   6.648   4.155   1.114  2.3295  0.0771 -0.4034
14920TIP3   OH266174   6.478   5.751   5.297 -0.5663  0.1201  0.1635
14920TIP3    H166175   6.493   5.660   5.324 -1.8250  0.1716  1.1308
14920TIP3    H266176   6.529   5.803   5.359 -0.4014  0.1015  0.0442
14921TIP3   OH266177   0.126   6.344  11.449  0.5187 -0.1770  0.5408
14921TIP3    H166178   0.056   6.328  11.386  0.5020 -1.0476  0.7774
14921TIP3    H266179   0.118   6.437  11.469  0.7878  0.2341 -1.0594
14922TIP3   OH266180   3.325   6.481   1.986  0.1302  0.4178 -0.1614
14922TIP3    H166181   3.230   6.493   1.982 -0.0972 -0.2150  1.8740
14922TIP3    H266182   3.338   6.387   1.973  0.4717  0.4883 -0.3412
14923TIP3   OH266183   1.002   5.954   0.264 -0.3083 -0.4177 -0.3607
14923TIP3    H166184   0.916   5.996   0.262 -1.0389 -1.6705  1.7582
14923TIP3    H266185   1.012   5.916   0.177 -0.4876  2.3208 -1.6773
14924TIP3   OH266186   0.666   3.928  13.406 -0.4532  0.0359  0.2549
14924TIP3    H166187   0.676   4.022  13.421 -1.4550  0.0447  0.9991
14924TIP3    H266188   0.682   3.889  13.492 -1.3124 -0.3608  0.2393
14925TIP3   OH266189   1.322   2.234  16.183  0.0230  0.2356 -0.0318
14925TIP3    H166190   1.319   2.282  16.100 -0.8487  0.6774  0.2368
14925TIP3    H266191   1.401   2.180  16.177  0.0843  0.4155 -1.0583
14926TIP3   OH266192   5.866   0.159   3.892  0.5430 -0.1973  0.3199
14926TIP3    H166193   5.848   0.146   3.985  0.6250 -2.0709  0.1019
14926TIP3    H266194   5.807   0.098   3.847  0.4451  0.7363 -0.8817
14927TIP3   OH266195   6.089   5.900  12.055  0.1041  0.5370 -0.6768
14927TIP3    H166196   6.147   5.856  12.116 -1.4909  0.5960  0.9507
14927TIP3    H266197   6.085   5.843  11.979  0.6718 -0.4670  0.0350
14928TIP3   OH266198   4.185   5.555   6.328 -0.7397  0.2242 -0.0042
14928TIP3    H166199   4.129   5.486   6.364 -3.1027  1.3092 -1.4406
14928TIP3    H266200   4.193   5.619   6.398 -3.4235  1.2332 -0.5204
14929TIP3   OH266201   2.284   6.013   6.524 -0.3186  0.5559  0.0904
14929TIP3    H166202   2.362   6.051   6.483  0.6178 -0.8993  0.4155
14929TIP3    H266203   2.255   6.079   6.586  1.2990  0.7599  0.6977
14930TIP3   OH266204   2.230   0.550  16.441 -0.2804 -0.0380  0.1001
14930TIP3    H166205   2.163   0.487  16.466  0.2977 -0.5546  0.3821
14930TIP3    H266206   2.212   0.627  16.494 -0.5852 -0.2150  0.2535
14931TIP3   OH266207   1.541   5.167  14.318  0.6542  0.0552  0.5510
14931TIP3    H166208   1.549   5.111  14.240 -0.1163  0.0722  0.4492
14931TIP3    H266209   1.623   5.155  14.365 -0.3079 -2.9312  1.6958
14932TIP3   OH266210   2.474   6.016  14.760  0.3638 -0.1954  0.3898
14932TIP3    H166211   2.490   5.939  14.816  0.4032 -1.1565 -0.9092
14932TIP3    H266212   2.542   6.078  14.785 -0.0518 -0.2997  1.9182
14933TIP3   OH266213   3.874   1.574  13.108 -0.0409  0.0610 -0.2224
14933TIP3    H166214   3.791   1.617  13.091 -1.8480 -2.3978  1.5959
14933TIP3    H266215   3.917   1.628  13.174 -1.6583 -0.2078  1.0951
14934TIP3   OH266216   5.183   6.276   0.281  0.2904  0.0597  0.1361
14934TIP3    H166217   5.124   6.205   0.307  1.1724 -0.7010  0.1008
14934TIP3    H266218   5.255   6.272   0.343  0.7684  0.3757 -0.3868
14935TIP3   OH266219   3.386   6.260  16.917  0.3803 -0.5169  0.0219
14935TIP3    H166220   3.479   6.238  16.923  0.3099 -0.8338 -0.0563
14935TIP3    H266221   3.347   6.223  16.996  0.4728  0.4025  0.5173
14936TIP3   OH266222   3.139   5.677  16.954 -0.2785  0.5258  0.2141
14936TIP3    H166223   3.222   5.724  16.954  0.1564 -0.2255 -0.1520
14936TIP3    H266224   3.087   5.721  16.886 -0.1149  0.8778  0.3127
14937TIP3   OH266225   2.061   2.174   0.452  0.1661  0.2343 -0.3951
14937TIP3    H166226   2.152   2.146   0.444  0.2872  0.3463  0.4429
14937TIP3    H266227   2.013   2.093   0.468  0.3701  0.3387  0.9219
14938TIP3   OH266228   0.286   4.596  16.216 -0.1302 -0.3807 -0.0416
14938TIP3    H166229   0.333   4.679  16.219 -1.2850  0.4384 -2.2927
14938TIP3    H266230   0.202   4.615  16.257 -0.3718 -0.4134 -0.5067
14939TIP3   OH266231   3.916   5.670  12.165  0.4490 -0.0439  0.5988
14939TIP3    H166232   4.005   5.660  12.130 -0.0981 -0.9253 -0.5828
14939TIP3    H266233   3.924   5.644  12.257  1.6196  0.9402  0.8087
14940TIP3   OH266234   1.641   1.468  15.142 -0.1299  0.0850  0.1717
14940TIP3    H166235   1.650   1.500  15.232 -2.1487 -0.3630  0.5721
14940TIP3    H266236   1.644   1.373  15.149 -1.0608  0.0208 -0.1108
14941TIP3   OH266237   0.654   3.099   3.003  0.1897 -0.0161 -0.2148
14941TIP3    H166238   0.731   3.063   3.047 -0.5704 -1.4753  0.0035
14941TIP3    H266239   0.590   3.027   3.004 -0.6300  0.6355 -1.7618
14942TIP3   OH266240   3.332   0.601  12.555 -0.2305 -0.9789 -0.0098
14942TIP3    H166241   3.396   0.670  12.538  0.3393 -1.2135  1.0681
14942TIP3    H266242   3.282   0.634  12.630 -0.2185 -1.5561  0.2526
14943TIP3   OH266243   0.029   6.475  15.860 -0.2631 -0.1170 -0.2432
14943TIP3    H166244   0.117   6.508  15.842  0.0220 -0.5728  0.2941
14943TIP3    H266245   0.004   6.517  15.942 -1.3283  1.5038 -1.3246
14944TIP3   OH266246   1.986   0.879   1.968 -0.6529 -0.9664  0.2254
14944TIP3    H166247   2.027   0.928   1.896  0.3037 -0.8807  0.8171
14944TIP3    H266248   2.008   0.929   2.046  1.0368 -2.7184  0.9571
14945TIP3   OH266249   5.697   2.009   4.383 -0.4691 -0.1848 -0.5982
14945TIP3    H166250   5.604   2.031   4.374 -0.1464  2.2736  1.1470
14945TIP3    H266251   5.743   2.092   4.372  1.3313 -0.8863  1.0122
14946TIP3   OH266252   2.446   5.773  13.458 -0.3632 -0.1174 -0.4148
14946TIP3    H166253   2.429   5.804  13.370  0.1131  2.1062  0.2193
14946TIP3    H266254   2.416   5.844  13.515  0.1619 -1.1174  1.1784
14947TIP3   OH266255   2.376   4.516   4.122 -0.1257  0.3834 -0.4588
14947TIP3    H166256   2.378   4.592   4.181 -0.7458  0.5095 -0.5907
14947TIP3    H266257   2.468   4.494   4.107  0.0446  0.2848  0.6413
14948TIP3   OH266258   3.795   2.494   2.072  0.5203 -0.2065 -0.1436
14948TIP3    H166259   3.759   2.510   1.985  1.5513 -0.5726 -0.6517
14948TIP3    H266260   3.810   2.581   2.108 -0.8689 -0.0429  0.0965
14949TIP3   OH266261   5.395   1.603  14.728  0.2820  0.1398 -0.3196
14949TIP3    H166262   5.453   1.620  14.803 -1.3839  0.9969  0.8526
14949TIP3    H266263   5.409   1.511  14.707 -0.3886 -0.6377  2.1912
14950TIP3   OH266264   4.324   5.311  12.486  0.1487 -0.0601  0.0672
14950TIP3    H166265   4.415   5.307  12.516 -0.1318 -0.8595  0.8592
14950TIP3    H266266   4.286   5.228  12.513 -1.0244  0.5668  0.4418
14951TIP3   OH266267   6.163   5.934   5.044 -0.3765 -0.0224 -0.2200
14951TIP3    H166268   6.076   5.925   5.084 -0.2050  1.8195  0.6861
14951TIP3    H266269   6.153   6.005   4.982  0.6815  0.8425  0.5707
14952TIP3   OH266270   2.185   6.511  15.402  0.6415  0.3388  0.0820
14952TIP3    H166271   2.273   6.482  15.379  0.5448 -1.5611  1.7895
14952TIP3    H266272   2.127   6.453  15.353  0.2691  2.1330 -1.6967
14953TIP3   OH266273   5.891   1.250  17.073  0.4664  0.2048 -0.0116
14953TIP3    H166274   5.811   1.237  17.022  0.1035 -0.1445  0.6352
14953TIP3    H266275   5.944   1.310  17.019  0.1267 -0.2046 -0.8258
14954TIP3   OH266276   2.206   5.661   2.612  0.1632  0.5979  0.1912
14954TIP3    H166277   2.212   5.750   2.647  0.7904  0.5749  0.1482
14954TIP3    H266278   2.182   5.673   2.520  1.8326  0.8110 -0.2592
14955TIP3   OH266279   2.350   2.203  14.079 -0.0770 -0.5855 -0.0164
14955TIP3    H166280   2.369   2.124  14.130 -0.6379 -1.3920 -1.0149
14955TIP3    H266281   2.417   2.203  14.010 -0.2539 -0.3385 -0.1877
14956TIP3   OH266282   1.384   6.528  15.981  0.2213 -0.2540 -0.2707
14956TIP3    H166283   1.474   6.501  15.961 -0.5162 -0.8222 -3.2523
14956TIP3    H266284   1.334   6.447  15.978 -0.3967 -0.0065  1.8208
14957TIP3   OH266285   6.451   5.541  16.279  0.2687 -0.0888 -0.0726
14957TIP3    H166286   6.361   5.565  16.257 -0.3416  0.1891  2.4388
14957TIP3    H266287   6.444   5.453  16.316  1.1279 -0.3045 -0.3972
14958TIP3   OH266288   3.419   5.632   5.270 -0.3369 -0.0786  0.1371
14958TIP3    H166289   3.408   5.725   5.289  1.2854  0.3161 -0.5983
14958TIP3    H266290   3.441   5.630   5.176 -1.8205 -1.3546 -0.2298
14959TIP3   OH266291   6.528   0.052  15.363 -0.2838  0.6581  0.5456
14959TIP3    H166292   6.602   0.000  15.396  0.0399  0.4369 -0.4989
14959TIP3    H266293   6.500   0.103  15.439  0.4177  0.1460  1.1770
14960TIP3   OH266294   1.028   4.375  14.394 -0.1506 -0.3317 -0.1348
14960TIP3    H166295   0.974   4.430  14.451  1.3776 -1.2685  2.3599
14960TIP3    H266296   1.003   4.402  14.305 -2.1944  1.6548  0.9235
14961TIP3   OH266297   1.933   6.502  16.114  0.2325 -0.4323  0.2731
14961TIP3    H166298   1.878   6.566  16.070  1.6018  0.5016 -0.1571
14961TIP3    H266299   1.889   6.486  16.198  0.3141  1.8211  0.8186
14962TIP3   OH266300   2.806   6.027   1.104  0.7776 -0.4670 -0.3851
14962TIP3    H166301   2.731   6.020   1.045 -0.1491  1.4702  0.4579
14962TIP3    H266302   2.801   6.116   1.139  1.3548 -1.4517  2.5074
14963TIP3   OH266303   1.735   3.313  15.303 -0.1973  0.0368 -0.2833
14963TIP3    H166304   1.815   3.321  15.251  1.4175 -2.6081  1.6066
14963TIP3    H266305   1.716   3.220  15.305 -0.4193  0.0279  3.4171
14964TIP3   OH266306   4.102   4.182   1.684 -0.0313  0.0619 -0.2861
14964TIP3    H166307   4.132   4.257   1.633 -1.5783  1.0632  0.2176
14964TIP3    H266308   4.180   4.154   1.733  0.7348  0.9029 -0.9720
14965TIP3   OH266309   6.410   2.648  14.204  0.5844 -0.0648  0.2375
14965TIP3    H166310   6.443   2.561  14.226 -0.2287 -0.2448  0.7791
14965TIP3    H266311   6.327   2.655  14.251 -0.0731  0.4482 -0.9544
14966TIP3   OH266312   2.602   2.846  15.760 -0.1145  0.3934 -0.2384
14966TIP3    H166313   2.586   2.781  15.692 -0.4360  0.6917 -0.4502
14966TIP3    H266314   2.576   2.929  15.720 -1.3630  0.4410  0.6193
14967TIP3   OH266315   4.483   4.863   1.220 -0.3259  0.0390  0.1954
14967TIP3    H166316   4.483   4.806   1.297  1.4920  1.4942  1.3768
14967TIP3    H266317   4.406   4.919   1.232  0.0459  0.3837  1.0950
14968TIP3   OH266318   3.507   2.741  11.180  0.1650 -0.4271 -0.2261
14968TIP3    H166319   3.556   2.815  11.216  0.9216 -0.6378 -0.7979
14968TIP3    H266320   3.415   2.766  11.190  0.4122  1.2870 -1.8286
14969TIP3   OH266321   5.316   0.772   5.783  0.6263 -0.0757 -0.2812
14969TIP3    H166322   5.246   0.723   5.826  1.4154 -1.0333 -0.0673
14969TIP3    H266323   5.294   0.864   5.799 -2.0077 -0.2095 -2.4719
14970TIP3   OH266324   4.858   2.618   0.510  0.2991  0.2177  0.1009
14970TIP3    H166325   4.825   2.549   0.452  1.5924 -0.1602 -0.2131
14970TIP3    H266326   4.779   2.652   0.555 -0.5008 -0.6126 -0.6440
14971TIP3   OH266327   4.882   1.849   2.490  0.3232  0.3065  0.2585
14971TIP3    H166328   4.796   1.881   2.518 -1.0093  0.5732 -3.5909
14971TIP3    H266329   4.876   1.754   2.496 -1.3180  0.1488 -2.3507
14972TIP3   OH266330   4.388   2.568  11.282 -0.5376 -0.4336  0.2286
14972TIP3    H166331   4.480   2.592  11.298 -1.3589  2.2716  1.4390
14972TIP3    H266332   4.383   2.475  11.305  1.7148 -0.4392  0.9513
14973TIP3   OH266333   3.307   0.773  14.488  0.3122  0.0642 -0.2724
14973TIP3    H166334   3.362   0.696  14.504  1.0736  0.4453 -1.0107
14973TIP3    H266335   3.301   0.816  14.574  1.3279  0.1092 -0.2057
14974TIP3   OH266336   5.279   4.477  16.827 -0.1927  0.5016 -0.4920
14974TIP3    H166337   5.251   4.557  16.872 -0.5703  0.7484 -1.1372
14974TIP3    H266338   5.198   4.442  16.789  0.3033  1.1556 -2.2808
14975TIP3   OH266339   2.757   1.214  14.433  0.0110 -0.3029 -0.6097
14975TIP3    H166340   2.773   1.227  14.527 -2.6131  0.1983 -0.1474
14975TIP3    H266341   2.840   1.179  14.399  1.1437 -0.1922  1.8122
14976TIP3   OH266342   1.903   1.960  11.474  0.0263 -0.2219 -0.0117
14976TIP3    H166343   1.966   1.993  11.411 -0.6719  0.6747 -0.2496
14976TIP3    H266344   1.934   1.993  11.558  0.7424 -1.1019  0.0909
14977TIP3   OH266345   3.722   5.673   5.013 -0.7961  0.5963  0.0823
14977TIP3    H166346   3.665   5.624   4.955 -1.0201 -0.8250  1.4529
14977TIP3    H266347   3.674   5.754   5.031 -1.0702  0.7018 -1.0430
14978TIP3   OH266348   0.645   1.797   5.427 -0.3879  0.9963 -0.2970
14978TIP3    H166349   0.659   1.889   5.449  0.7882  0.3856  1.7673
14978TIP3    H266350   0.650   1.751   5.511 -0.4166 -1.0245 -1.3405
14979TIP3   OH266351   6.536   4.217  10.680 -0.0322  0.2080 -0.2036
14979TIP3    H166352   6.597   4.202  10.608 -0.2913  1.5651 -0.7408
14979TIP3    H266353   6.488   4.135  10.688 -0.3515  0.1907 -1.9348
14980TIP3   OH266354   0.824   5.847   2.966  0.1007 -0.2810  0.1827
14980TIP3    H166355   0.733   5.875   2.957  0.2389  0.5329  1.1156
14980TIP3    H266356   0.835   5.831   3.060  1.6723  2.4847  0.5927
14981TIP3   OH266357   5.250   3.399  15.665 -0.0736 -0.0299  0.1160
14981TIP3    H166358   5.335   3.406  15.709  0.2435  1.9472 -0.6981
14981TIP3    H266359   5.248   3.473  15.605 -2.3348 -0.1148  0.0013
14982TIP3   OH266360   2.639   3.277   2.248 -0.3402  0.1438 -0.1594
14982TIP3    H166361   2.717   3.249   2.201 -1.1163 -0.5160 -1.0963
14982TIP3    H266362   2.566   3.244   2.196 -1.2529 -0.2522  1.2933
14983TIP3   OH266363   3.204   6.391  16.175 -0.5060  0.1955  0.3321
14983TIP3    H166364   3.165   6.477  16.157  0.3210  0.5392  0.1613
14983TIP3    H266365   3.170   6.367  16.261 -1.2588  0.3958  0.0999
14984TIP3   OH266366   3.870   2.930   5.712  0.5097 -0.0926 -0.3080
14984TIP3    H166367   3.817   2.850   5.720 -1.3907  1.0481 -0.6801
14984TIP3    H266368   3.903   2.929   5.623 -1.5482  0.6578 -1.1389
14985TIP3   OH266369   3.333   2.144   2.147  0.1972 -0.0121  0.0478
14985TIP3    H166370   3.376   2.183   2.222  1.7007  1.3706 -1.4414
14985TIP3    H266371   3.288   2.217   2.104 -1.5452 -0.9638  0.1478
14986TIP3   OH266372   5.175   4.324   1.680 -0.4931 -0.2278  0.1563
14986TIP3    H166373   5.204   4.414   1.695  0.3391 -0.2341 -1.2782
14986TIP3    H266374   5.105   4.331   1.616  0.8687 -0.7045 -1.4591
14987TIP3   OH266375   4.825   4.231   1.650 -0.3256 -0.1929  0.5408
14987TIP3    H166376   4.882   4.301   1.619 -0.0394 -0.6181  0.0883
14987TIP3    H266377   4.880   4.153   1.650 -0.8733 -0.5929  0.1712
14988TIP3   OH266378   5.210   0.068  15.988 -0.5799  0.1868 -0.2623
14988TIP3    H166379   5.222   0.124  15.912 -1.7558 -1.5016 -1.7541
14988TIP3    H266380   5.115   0.070  16.005 -0.4415 -0.1464  0.6090
14989TIP3   OH266381   1.868   6.031  16.908 -0.1735  0.1555 -0.4368
14989TIP3    H166382   1.823   6.109  16.876 -2.4735 -0.5976  0.7372
14989TIP3    H266383   1.943   6.065  16.957 -0.4577  1.5671 -0.9379
14990TIP3   OH266384   5.778   6.377  14.073 -0.3347  0.3569 -0.6506
14990TIP3    H166385   5.819   6.312  14.016  0.7840  0.8645 -0.4593
14990TIP3    H266386   5.710   6.329  14.120  2.5067 -1.5496  1.8873
14991TIP3   OH266387   6.116   0.683  13.792  0.0768  0.2122 -0.6519
14991TIP3    H166388   6.092   0.605  13.744  1.5572 -0.4826 -0.2978
14991TIP3    H266389   6.211   0.690  13.783  0.2664  0.6608  1.2290
14992TIP3   OH266390   4.112   2.389  13.733  0.5850  0.1278  0.1807
14992TIP3    H166391   4.094   2.483  13.733  1.9738  0.4274 -0.4794
14992TIP3    H266392   4.085   2.359  13.646  0.1353 -0.0869  0.3935
14993TIP3   OH266393   1.901   1.094  12.165  0.1448 -0.0063  0.1740
14993TIP3    H166394   1.899   1.072  12.072 -2.5827  2.4722 -0.5018
14993TIP3    H266395   1.852   1.176  12.171  0.8839  0.3203  3.7270
14994TIP3   OH266396   5.296   3.725   3.045 -0.0298 -0.4827  0.5622
14994TIP3    H166397   5.243   3.662   3.093 -2.6616 -1.2584 -2.9525
14994TIP3    H266398   5.313   3.683   2.960 -2.1073  3.3371 -2.0776
14995TIP3   OH266399   2.102   0.746  11.663 -0.6788 -0.4033 -0.0087
14995TIP3    H166400   2.090   0.823  11.720  0.6000 -0.3993  0.2949
14995TIP3    H266401   2.197   0.732  11.663 -0.7647 -1.0549 -1.3056
14996TIP3   OH266402   1.623   0.610  17.112  0.2905 -0.6956 -0.1911
14996TIP3    H166403   1.702   0.664  17.119 -0.3350  0.7863 -2.9603
14996TIP3    H266404   1.619   0.585  17.020 -3.6223  1.2931 -0.7887
14997TIP3   OH266405   4.215   2.332  17.206 -0.1244  0.3747 -0.0020
14997TIP3    H166406   4.130   2.298  17.177 -0.1097  0.1563  0.2075
14997TIP3    H266407   4.193   2.402  17.267 -0.1553 -0.0664  0.4965
14998TIP3   OH266408   4.623   4.071  17.128 -0.3347  0.1369 -0.2775
14998TIP3    H166409   4.567   4.084  17.205  0.5448 -1.0937  0.6084
14998TIP3    H266410   4.648   4.159  17.102 -0.2184  0.5660  1.1804
14999TIP3   OH266411   5.688   5.326   6.108 -0.1901 -0.0025  0.9386
14999TIP3    H166412   5.775   5.297   6.080 -0.1619  0.2770  0.7352
14999TIP3    H266413   5.629   5.292   6.040 -0.5588 -2.2861  2.2876
15000TIP3   OH266414   5.183   5.527   0.137 -0.2339  1.0098 -0.1591
15000TIP3    H166415   5.262   5.545   0.087  0.3659 -0.1900  0.3129
15000TIP3    H266416   5.199   5.565   0.223 -0.2607  0.9741 -0.1378
15001TIP3   OH266417   4.941   0.555   3.534 -0.5256  0.0132  0.0376
15001TIP3    H166418   4.971   0.494   3.467 -1.5229  1.0865 -1.4533
15001TIP3    H266419   4.911   0.500   3.606  0.2589 -1.1861 -0.5334
15002TIP3   OH266420   6.771   1.723  11.491  0.0083 -0.6493 -0.5977
15002TIP3    H166421   6.789   1.685  11.577  3.0804  0.6364 -0.5672
15002TIP3    H266422   6.825   1.674  11.430 -0.5427 -0.1851 -1.4931
15003TIP3   OH266423   1.484   1.584  15.370 -0.3622 -0.0920  0.3483
15003TIP3    H166424   1.480   1.587  15.465 -1.2870 -1.9513  0.4102
15003TIP3    H266425   1.484   1.491  15.349 -1.4426  0.2730 -1.5053
15004TIP3   OH266426   1.757   2.639   2.685 -0.0529  0.2030  0.2198
15004TIP3    H166427   1.847   2.647   2.716  0.3058  1.8144 -1.1005
15004TIP3    H266428   1.765   2.607   2.596 -0.8118 -0.0052  0.2193
15005TIP3   OH266429   0.049   0.717  16.160  0.4197 -0.3199 -0.2266
15005TIP3    H166430  -0.023   0.681  16.108  1.0871 -1.4617 -0.4106
15005TIP3    H266431   0.031   0.811  16.165 -2.0892 -0.7809  1.3403
15006TIP3   OH266432   3.305   5.138   2.089 -0.4139  0.1617  0.0886
15006TIP3    H166433   3.393   5.103   2.074 -0.2691  0.2837  0.6237
15006TIP3    H266434   3.285   5.114   2.180 -0.7044  0.6159  0.1486
15007TIP3   OH266435   0.732   1.151  15.857  0.7882 -0.1520 -0.4539
15007TIP3    H166436   0.790   1.153  15.933 -2.0717 -0.6110  1.9223
15007TIP3    H266437   0.714   1.243  15.838  1.5688 -0.0357 -0.6833
15008TIP3   OH266438   0.059   0.059  13.310  0.2421  0.4261 -0.0638
15008TIP3    H166439  -0.036   0.074  13.317  0.1013 -0.2234 -0.4985
15008TIP3    H266440   0.087   0.043  13.400 -0.0964  0.4142  0.0427
15009TIP3   OH266441   6.215   6.334   4.620 -0.1994 -0.3242  0.3106
15009TIP3    H166442   6.219   6.362   4.529 -2.5203  0.2103  0.2943
15009TIP3    H266443   6.250   6.407   4.670  0.4000 -0.3248 -0.1083
15010TIP3   OH266444   1.911   6.513   0.022 -0.0478 -0.4357 -0.0564
15010TIP3    H166445   1.853   6.437   0.023  1.0462 -1.2991  0.9025
15010TIP3    H266446   1.929   6.528  -0.070 -0.3108 -1.3113 -0.2638
15011TIP3   OH266447   4.018   0.737   2.494 -0.4058  0.2509  0.3164
15011TIP3    H166448   4.051   0.780   2.415 -0.5515 -1.5884 -0.8187
15011TIP3    H266449   4.006   0.645   2.468 -1.7726 -0.1367  2.0856
15012TIP3   OH266450   0.389   5.669   2.165 -0.2093  0.2287 -0.4407
15012TIP3    H166451   0.331   5.732   2.122  1.1910  1.6656 -0.2944
15012TIP3    H266452   0.471   5.717   2.179 -0.3715 -0.2837  3.3706
15013TIP3   OH266453   3.762   4.539  10.745  0.2716  0.3008  0.4765
15013TIP3    H166454   3.691   4.555  10.684 -0.5887  0.3224  1.4619
15013TIP3    H266455   3.837   4.515  10.689 -0.8407 -1.0587 -0.5066
15014TIP3   OH266456   0.378   2.945  16.518  0.4936  0.6268  0.0862
15014TIP3    H166457   0.408   2.863  16.479 -0.6550 -0.7496  1.9195
15014TIP3    H266458   0.454   2.976  16.568  0.2206 -0.6514  1.3564
15015TIP3   OH266459   3.615   6.324  11.379 -0.6082  0.0838 -0.1502
15015TIP3    H166460   3.656   6.280  11.305 -0.9532  0.7822 -0.7735
15015TIP3    H266461   3.678   6.391  11.405  0.2556 -1.2078  1.2828
15016TIP3   OH266462   1.518   1.896   0.365  0.0935  0.0906 -0.4224
15016TIP3    H166463   1.530   1.905   0.460 -3.1173  0.2054  0.0943
15016TIP3    H266464   1.584   1.953   0.327 -0.2105  2.1338  1.8635
15017TIP3   OH266465   6.523   3.843  12.263  0.0502  0.3663  0.0852
15017TIP3    H166466   6.456   3.853  12.332  0.1439 -1.1476  0.4331
15017TIP3    H266467   6.594   3.796  12.306 -0.8170 -2.7054 -1.5404
15018TIP3   OH266468   6.645   1.422  15.890 -0.1985  0.2914  0.4084
15018TIP3    H166469   6.604   1.508  15.891  0.3808  0.5666  1.0885
15018TIP3    H266470   6.594   1.372  15.826 -0.4328  1.1818 -0.1118
15019TIP3   OH266471   5.386   4.762  16.225  0.0080  0.3291  0.1845
15019TIP3    H166472   5.448   4.807  16.283 -0.5562  0.7997  0.4335
15019TIP3    H266473   5.394   4.669  16.249 -1.1440  0.6315  1.9477
15020TIP3   OH266474   5.181   5.911   1.699 -0.1876 -0.4593  0.5851
15020TIP3    H166475   5.267   5.950   1.688  1.1019 -2.9010  1.4179
15020TIP3    H266476   5.154   5.887   1.610  0.2552 -0.2292  0.3857
15021TIP3   OH266477   0.511   6.243  11.830 -0.6738  0.1831 -0.0785
15021TIP3    H166478   0.520   6.227  11.736 -0.8577 -0.4924  0.0091
15021TIP3    H266479   0.598   6.272  11.857  0.3898 -2.8044  0.1145
15022TIP3   OH266480   6.222   0.780   5.793 -0.1337  0.3644  0.3206
15022TIP3    H166481   6.318   0.775   5.790 -0.1274  0.3715  0.5076
15022TIP3    H266482   6.201   0.866   5.756 -0.0745  0.3118  0.1640
15023TIP3   OH266483   3.347   5.674   2.330  0.4015 -0.2788  0.2342
15023TIP3    H166484   3.381   5.735   2.265  0.5470  2.4110  2.6376
15023TIP3    H266485   3.413   5.605   2.336  2.1569  1.3240  0.0692
15024TIP3   OH266486   0.942   5.767   0.468  0.0373  0.7926 -0.0384
15024TIP3    H166487   0.964   5.693   0.412 -2.2410 -0.2125  0.2811
15024TIP3    H266488   0.963   5.844   0.416 -0.0320 -0.0980 -1.4336
15025TIP3   OH266489   2.872   3.442   1.017  0.7754  0.2566 -0.1947
15025TIP3    H166490   2.919   3.493   1.083 -0.6875  0.8196  0.4707
15025TIP3    H266491   2.784   3.430   1.055 -0.3579  1.2233 -2.3471
15026TIP3   OH266492   2.399   6.409   1.146 -0.3698  0.4560 -0.2796
15026TIP3    H166493   2.389   6.373   1.234 -0.7542  1.1517 -0.0260
15026TIP3    H266494   2.313   6.397   1.105 -0.2201  0.2197 -0.5288
15027TIP3   OH266495   0.654   1.727   0.861 -0.0710 -0.0742  0.2400
15027TIP3    H166496   0.670   1.718   0.767 -0.3372 -0.1141  0.1968
15027TIP3    H266497   0.574   1.676   0.876 -0.8686  1.1333  0.2265
15028TIP3   OH266498   1.205   1.433  15.521  0.3133 -0.2690 -0.1697
15028TIP3    H166499   1.164   1.387  15.447  1.1192 -1.0856 -0.1349
15028TIP3    H266500   1.245   1.363  15.573 -0.1118  0.3056  0.9689
15029TIP3   OH266501   4.592   0.602   1.340  0.9699 -0.6826  0.1015
15029TIP3    H166502   4.582   0.680   1.395  0.0172 -0.5949 -0.1776
15029TIP3    H266503   4.602   0.636   1.252  1.4167 -0.8559  0.0832
15030TIP3   OH266504   6.006   4.825   2.106 -0.5662 -0.2336  0.3000
15030TIP3    H166505   6.046   4.912   2.109 -0.8649 -0.1150  1.6177
15030TIP3    H266506   6.080   4.764   2.106 -0.3593  0.0178  0.3043
15031TIP3   OH266507   1.312   5.921  10.721 -0.3686  0.2947 -0.2896
15031TIP3    H166508   1.313   5.843  10.665  0.5378  0.9115 -1.1817
15031TIP3    H266509   1.394   5.917  10.769 -0.2343  0.7813 -0.4728
15032TIP3   OH266510   1.300   1.488   4.867 -0.0037  0.5066  0.2313
15032TIP3    H166511   1.259   1.404   4.889  0.8162  0.9415  4.0837
15032TIP3    H266512   1.380   1.464   4.822  1.6777 -1.1390  3.7244
15033TIP3   OH266513   3.540   2.945  12.105 -0.1808 -0.3304  0.2532
15033TIP3    H166514   3.450   2.912  12.103 -0.1805 -0.3457 -1.9774
15033TIP3    H266515   3.539   3.021  12.048  1.2438 -0.3884  0.1192
15034TIP3   OH266516   2.727   4.070  16.433  0.2867 -0.3947  0.0888
15034TIP3    H166517   2.822   4.079  16.443  0.3386  2.4653 -1.7536
15034TIP3    H266518   2.716   4.008  16.361  0.7074 -1.0712  0.5904
15035TIP3   OH266519   2.507   1.218  11.870 -0.5790  0.4528 -0.3640
15035TIP3    H166520   2.510   1.303  11.825 -2.5938 -0.2716 -2.0226
15035TIP3    H266521   2.414   1.196  11.873 -0.2980 -0.6856  2.1122
15036TIP3   OH266522   4.074   4.023  11.191  0.9161  0.1666 -0.0540
15036TIP3    H166523   4.143   3.956  11.194 -0.6509 -1.4946  0.9732
15036TIP3    H266524   4.057   4.036  11.098  2.1749  0.1686 -0.3099
15037TIP3   OH266525   2.722   6.502   5.500 -0.0402 -0.3334 -0.5543
15037TIP3    H166526   2.673   6.483   5.420 -0.5102  0.9227 -0.5941
15037TIP3    H266527   2.695   6.591   5.524  0.5238 -0.4705  0.6873
15038TIP3   OH266528   3.646   4.092  15.809 -0.2225 -0.7017 -0.6373
15038TIP3    H166529   3.641   4.001  15.838 -0.0926 -1.0119 -1.5771
15038TIP3    H266530   3.723   4.127  15.855 -0.3153 -1.0354 -0.2184
15039TIP3   OH266531   4.069   4.019  15.236  0.1814 -0.2693  0.0028
15039TIP3    H166532   3.978   4.002  15.210  0.3757  0.2537 -1.0692
15039TIP3    H266533   4.108   3.932  15.248 -0.1880 -0.5043 -0.5025
15040TIP3   OH266534   2.897   3.162  12.898 -0.7737  0.3459  0.0367
15040TIP3    H166535   2.828   3.181  12.962 -0.2827 -0.5903  0.8911
15040TIP3    H266536   2.852   3.116  12.827 -0.8286 -1.8995  1.4169
15041TIP3   OH266537   2.150   6.125  16.670 -0.0388 -0.3137  0.2015
15041TIP3    H166538   2.193   6.119  16.585 -0.9199 -0.2974 -0.2560
15041TIP3    H266539   2.150   6.035  16.703 -1.8718 -0.7944 -0.9397
15042TIP3   OH266540   6.561   2.067   2.562  0.6637 -0.8806 -0.1867
15042TIP3    H166541   6.500   2.111   2.622  1.0842 -0.1145 -0.2965
15042TIP3    H266542   6.611   2.008   2.618  0.5769 -0.6822  0.1053
15043TIP3   OH266543   0.927   5.022   3.348  0.4720 -0.1868  0.0056
15043TIP3    H166544   0.893   4.936   3.374  0.6239 -0.6170 -1.1654
15043TIP3    H266545   1.019   5.006   3.326  0.7316  0.4522  0.6171
15044TIP3   OH266546   1.869   4.780  15.581 -0.0743 -0.3563 -0.0960
15044TIP3    H166547   1.850   4.696  15.622 -2.4912 -1.1838 -2.6095
15044TIP3    H266548   1.787   4.829  15.585  0.8518  1.2906 -0.0670
15045TIP3   OH266549   6.155   1.973   0.620 -0.2326 -0.0767  0.4136
15045TIP3    H166550   6.079   2.032   0.621 -0.8926 -0.8991  1.5429
15045TIP3    H266551   6.225   2.023   0.662 -0.1685  0.6450 -0.5251
15046TIP3   OH266552   4.638   5.574  11.667  0.1353  0.5953 -0.0770
15046TIP3    H166553   4.700   5.555  11.737  2.0861  5.3854 -0.1423
15046TIP3    H266554   4.692   5.584  11.589 -1.4208 -0.0938 -1.2829
15047TIP3   OH266555   6.035   2.814  13.528  0.8178  0.0077  0.0729
15047TIP3    H166556   6.026   2.877  13.600 -0.5256 -0.2779  0.1836
15047TIP3    H266557   5.970   2.841  13.464  0.4399 -1.0710 -0.0227
15048TIP3   OH266558   4.152   3.939  15.656 -0.1752 -0.0511 -0.5548
15048TIP3    H166559   4.136   3.891  15.738  0.4850  0.2410 -0.2502
15048TIP3    H266560   4.068   3.982  15.637 -0.1387  0.4553  0.3567
15049TIP3   OH266561   2.717   0.458  14.674  0.0927 -0.4749  0.3976
15049TIP3    H166562   2.647   0.444  14.737  0.3767 -0.2924  0.7557
15049TIP3    H266563   2.677   0.438  14.589 -1.2956  2.5279  0.2198
15050TIP3   OH266564   6.768   2.144   6.728 -0.1259  0.3109  0.1334
15050TIP3    H166565   6.801   2.213   6.785  1.7800  0.8674 -1.5185
15050TIP3    H266566   6.836   2.134   6.661 -1.1693 -1.9426 -0.6964
15051TIP3   OH266567   2.869   4.488   1.169 -0.0390 -0.2978 -0.4268
15051TIP3    H166568   2.928   4.513   1.241 -1.8147  2.0235  0.3615
15051TIP3    H266569   2.891   4.397   1.150  1.2376 -0.6609  2.3289
15052TIP3   OH266570   1.102   5.219  14.809 -0.2040 -0.1104 -0.5340
15052TIP3    H166571   1.018   5.255  14.839  0.0491 -0.0177  0.0917
15052TIP3    H266572   1.082   5.177  14.726 -0.7582  0.4034 -0.6645
15053TIP3   OH266573   5.606   5.276  13.335 -0.0941  0.0460 -0.1396
15053TIP3    H166574   5.688   5.304  13.295  0.1158 -0.4580 -0.0595
15053TIP3    H266575   5.572   5.356  13.376 -0.4270  0.6321 -1.4936
15054TIP3   OH266576   0.501   2.316  14.101 -0.1780 -0.1965  0.5232
15054TIP3    H166577   0.553   2.369  14.162  0.5929  0.6376 -0.8010
15054TIP3    H266578   0.427   2.285  14.153  0.0511  1.1067  1.6790
15055TIP3   OH266579   6.688   1.726   0.858  0.3824  0.6742 -0.9488
15055TIP3    H166580   6.718   1.645   0.816  1.9403  0.5678  0.2506
15055TIP3    H266581   6.752   1.792   0.830  0.7074  0.8697  0.1953
15056TIP3   OH266582   6.570   1.680   4.909  0.3158 -0.4502  0.2296
15056TIP3    H166583   6.572   1.767   4.948  1.3534 -0.6716  0.7034
15056TIP3    H266584   6.497   1.636   4.953 -0.4024  0.2603 -0.2222
15057TIP3   OH266585   5.489   5.661   5.736  0.4930  0.3282  0.4717
15057TIP3    H166586   5.439   5.671   5.817 -0.4002 -0.0090 -0.0214
15057TIP3    H266587   5.556   5.596   5.756 -0.9519 -1.2475  0.4068
15058TIP3   OH266588   6.657   5.096  13.959 -0.7691 -0.4679 -0.0503
15058TIP3    H166589   6.624   5.159  14.024 -0.2804 -1.2608  0.9924
15058TIP3    H266590   6.592   5.026  13.958 -0.3642 -0.8572  0.2132
15059TIP3   OH266591   2.038   4.317   6.340  0.0822 -0.4047 -0.1449
15059TIP3    H166592   2.111   4.257   6.327  0.9069 -0.0636  2.2806
15059TIP3    H266593   2.064   4.369   6.416 -2.6400 -0.1864  0.7411
15060TIP3   OH266594   3.892   5.026  14.385  0.1540  0.0662 -0.4496
15060TIP3    H166595   3.963   5.045  14.446  1.8389 -2.0301 -1.6233
15060TIP3    H266596   3.857   4.943  14.414 -0.6313  0.2154 -0.9418
15061TIP3   OH266597   3.724   1.354   2.289  0.4897  0.6342  0.3643
15061TIP3    H166598   3.803   1.376   2.239  1.1984  2.4551  2.1749
15061TIP3    H266599   3.752   1.286   2.350  0.4016  0.6246  0.3944
15062TIP3   OH266600   1.799   4.551  13.335 -0.2031  0.4795 -0.8509
15062TIP3    H166601   1.832   4.549  13.425 -3.0944  1.9887  0.3730
15062TIP3    H266602   1.867   4.597  13.285  2.5839 -2.4587 -0.0997
15063TIP3   OH266603   1.426   5.788   5.091  0.3967 -0.0924 -0.0441
15063TIP3    H166604   1.450   5.706   5.135 -0.1097  0.5616  1.5171
15063TIP3    H266605   1.360   5.827   5.148  1.2929  1.8582 -0.2638
15064TIP3   OH266606   5.803   4.933  11.026  0.5569  0.0984  0.3353
15064TIP3    H166607   5.857   4.856  11.045  2.0197  0.9606 -0.0995
15064TIP3    H266608   5.867   5.004  11.012 -0.5830  0.7594 -2.1518
15065TIP3   OH266609   2.180   5.744  17.075 -0.0257  0.1284 -0.2945
15065TIP3    H166610   2.114   5.703  17.021  1.0106 -1.7158 -0.2322
15065TIP3    H266611   2.133   5.770  17.155 -0.9017 -0.0479 -0.7421
15066TIP3   OH266612   1.171   1.081  11.645 -0.0639 -0.2263 -0.0100
15066TIP3    H166613   1.154   1.045  11.732  2.2760  0.1110  0.6589
15066TIP3    H266614   1.232   1.020  11.605  1.3250  1.2032 -0.1740
15067TIP3   OH266615   0.281   3.966   4.445 -0.8511  0.5769  0.0982
15067TIP3    H166616   0.192   3.964   4.410 -1.0136 -1.3298  0.4882
15067TIP3    H266617   0.282   3.897   4.511  0.6798  1.1568  0.7296
15068TIP3   OH266618   3.669   0.347   1.250 -0.2840 -0.0097  0.5711
15068TIP3    H166619   3.614   0.281   1.292 -2.1255  0.5559 -0.8496
15068TIP3    H266620   3.613   0.425   1.243 -0.3452 -0.2377 -3.3675
15069TIP3   OH266621   1.662   4.119  14.639 -0.0480  0.1762  0.5605
15069TIP3    H166622   1.632   4.149  14.725 -0.4519 -1.7720  1.1558
15069TIP3    H266623   1.584   4.127  14.583 -0.2989 -0.2178  0.8442
15070TIP3   OH266624   5.021   2.729   6.159  0.4733  0.1839 -0.0419
15070TIP3    H166625   5.017   2.642   6.199  0.2170  0.3630  0.3334
15070TIP3    H266626   4.976   2.786   6.221  2.7982  1.0633  0.9426
15071TIP3   OH266627   3.332   0.632  10.612  0.0427  0.2813 -0.2524
15071TIP3    H166628   3.257   0.616  10.669  0.7517  1.6455  1.1644
15071TIP3    H266629   3.355   0.546  10.577 -1.9151 -0.2167 -0.4222
15072TIP3   OH266630   3.191   1.581  11.707  0.4452 -0.0754 -0.4541
15072TIP3    H166631   3.106   1.575  11.751  0.5761  2.8308  0.3716
15072TIP3    H266632   3.173   1.635  11.629  1.1665 -1.1673 -1.4051
15073TIP3   OH266633   3.354   2.573  14.610 -0.2505  0.5081 -0.0179
15073TIP3    H166634   3.375   2.667  14.615  0.7052  0.2981  0.3152
15073TIP3    H266635   3.355   2.544  14.702  1.5797 -0.2279 -0.2118
15074TIP3   OH266636   6.105   4.941  17.082  0.3937 -0.0291 -0.4196
15074TIP3    H166637   6.020   4.942  17.128  0.1267 -1.6567 -0.8222
15074TIP3    H266638   6.144   5.026  17.104 -1.4141  0.8552 -0.3922
15075TIP3   OH266639   2.492   0.408   3.175  0.0282  0.5618 -0.1166
15075TIP3    H166640   2.455   0.435   3.091 -1.9329  1.3677  0.9481
15075TIP3    H266641   2.516   0.490   3.218  0.7882  0.1685  0.2281
15076TIP3   OH266642   0.838   5.626   5.698 -0.0332 -0.0831 -0.0606
15076TIP3    H166643   0.846   5.531   5.712 -1.0561 -0.2783 -0.7523
15076TIP3    H266644   0.756   5.637   5.650  0.1440  1.1480 -0.1115
15077TIP3   OH266645   4.025   2.316  11.763 -0.5048  0.7232  0.0865
15077TIP3    H166646   3.978   2.276  11.836  1.4333 -0.0672  0.9662
15077TIP3    H266647   3.979   2.284  11.685 -0.6881 -1.0409  0.8665
15078TIP3   OH266648   4.277   5.838   4.882  0.0057 -0.2630  0.2200
15078TIP3    H166649   4.351   5.779   4.894 -0.6389 -1.2107 -0.3349
15078TIP3    H266650   4.259   5.837   4.788 -2.0644 -1.8237  0.5386
15079TIP3   OH266651   1.064   3.792  13.731 -0.7325 -0.4641  0.2312
15079TIP3    H166652   1.005   3.736  13.781 -2.0433 -1.0115 -1.8210
15079TIP3    H266653   1.109   3.733  13.671  2.5472 -0.1907  2.1477
15080TIP3   OH266654   2.625   1.482  16.902  0.6168 -0.1881  0.0751
15080TIP3    H166655   2.696   1.430  16.938  1.9707  0.6443 -1.2857
15080TIP3    H266656   2.663   1.525  16.825 -1.2536  0.5686 -0.4838
15081TIP3   OH266657   1.642   5.996  11.337  0.1000 -0.0617  0.3960
15081TIP3    H166658   1.682   6.038  11.413 -2.2645  0.6330  1.3567
15081TIP3    H266659   1.604   6.068  11.287 -0.2056 -0.7025 -0.3146
15082TIP3   OH266660   6.033   5.028  10.931  0.4354  0.3250 -0.0798
15082TIP3    H166661   6.100   4.987  10.876  0.7358  1.2309 -0.4071
15082TIP3    H266662   6.082   5.088  10.987  0.2125 -1.0864  1.6845
15083TIP3   OH266663   5.219   2.289   2.674 -0.4892  0.4828 -0.1488
15083TIP3    H166664   5.132   2.252   2.692 -0.6729  1.0189  0.0812
15083TIP3    H266665   5.205   2.383   2.671  0.0187  0.5490 -0.5097
15084TIP3   OH266666   1.531   4.956  14.127 -0.0080  0.1227  0.0994
15084TIP3    H166667   1.501   4.868  14.149 -0.8637 -0.5290 -3.0584
15084TIP3    H266668   1.608   4.941  14.072 -0.3887  1.2837 -0.7990
15085TIP3   OH266669   2.147   4.618  16.430  0.4077 -0.3616  0.0237
15085TIP3    H166670   2.232   4.575  16.423  0.0454 -1.2073  0.7389
15085TIP3    H266671   2.086   4.559  16.387  0.3244  0.7723 -1.5222
15086TIP3   OH266672   1.331   2.834   6.488 -0.1582  0.2719 -0.3424
15086TIP3    H166673   1.372   2.830   6.401  0.5296  0.0106 -0.0079
15086TIP3    H266674   1.266   2.904   6.480  0.0593  0.4045 -1.0046
15087TIP3   OH266675   3.999   1.872   0.030 -0.2016  0.1329 -0.1017
15087TIP3    H166676   3.963   1.794  -0.014 -0.9367  0.1890  0.3733
15087TIP3    H266677   3.956   1.872   0.115  0.7894  0.3358  0.4071
15088TIP3   OH266678   6.410   4.241   0.641 -0.1230 -0.0928 -0.1258
15088TIP3    H166679   6.435   4.156   0.678 -0.1100 -1.0958 -2.2880
15088TIP3    H266680   6.316   4.234   0.627 -0.4144  0.8889  1.1182
15089TIP3   OH266681   0.344   4.909   1.724 -0.1432  0.6044  0.3712
15089TIP3    H166682   0.402   4.838   1.698 -0.1828 -0.2891  2.5048
15089TIP3    H266683   0.266   4.865   1.757 -1.0252  1.7208 -0.1715
15090TIP3   OH266684   1.501   0.872   1.139 -0.0664 -0.0955 -0.6178
15090TIP3    H166685   1.458   0.791   1.111  0.3936 -0.3634 -0.5540
15090TIP3    H266686   1.515   0.921   1.058 -1.6080  0.5589 -0.5248
15091TIP3   OH266687   6.473   1.108   1.233 -0.5626 -0.5052 -0.1578
15091TIP3    H166688   6.449   1.059   1.313 -0.4057 -0.4851 -0.0984
15091TIP3    H266689   6.520   1.185   1.265  1.2360 -1.4726 -0.3392
15092TIP3   OH266690   0.491   2.177   5.009  0.1671 -0.4876 -0.2082
15092TIP3    H166691   0.549   2.169   4.933  0.7020  1.2495 -0.0234
15092TIP3    H266692   0.520   2.107   5.068  0.7178 -0.9264 -0.9663
15093TIP3   OH266693   4.198   1.258   5.217  0.6351  0.5299 -0.5202
15093TIP3    H166694   4.244   1.310   5.151 -1.9594 -1.0788 -3.9554
15093TIP3    H266695   4.161   1.323   5.276  1.9593  2.2019 -1.4263
15094TIP3   OH266696   3.125   2.893   3.109  0.2395  0.9810  0.1700
15094TIP3    H166697   3.153   2.820   3.054  0.6023 -0.0045  1.6385
15094TIP3    H266698   3.030   2.896   3.098  0.0811 -0.4925  1.0345
15095TIP3   OH266699   5.050   0.116  14.600  0.4556 -0.2315  0.2388
15095TIP3    H166700   5.014   0.110  14.688  1.4424 -0.8989  0.6186
15095TIP3    H266701   4.990   0.173  14.553 -0.4467 -0.3954  1.1589
15096TIP3   OH266702   4.546   0.293  14.454 -0.0611  0.1458 -0.1987
15096TIP3    H166703   4.464   0.246  14.436  0.5191 -0.4896 -1.3074
15096TIP3    H266704   4.524   0.385  14.436 -0.9892  0.2402  1.2339
15097TIP3   OH266705   5.709   2.445   2.001 -0.1727 -0.2085  0.1073
15097TIP3    H166706   5.797   2.482   2.011 -0.9265  1.2963  1.5461
15097TIP3    H266707   5.718   2.382   1.929  2.1152 -0.2400  0.3485
15098TIP3   OH266708   0.674   4.379  12.875  0.0907 -0.4621 -0.0410
15098TIP3    H166709   0.722   4.453  12.838 -1.3477  0.7710  0.4656
15098TIP3    H266710   0.742   4.317  12.902  1.4153  1.3374  0.9489
15099TIP3   OH266711   1.915   6.021   5.854 -0.0269  0.6062 -0.0137
15099TIP3    H166712   1.918   6.089   5.787  2.9090 -1.1156 -1.8354
15099TIP3    H266713   2.003   5.983   5.854 -1.3524 -2.9141  1.1513
15100TIP3   OH266714   1.827   1.083  15.575 -0.3910 -0.3319  0.1676
15100TIP3    H166715   1.772   1.023  15.624  0.3638 -1.0409  0.1720
15100TIP3    H266716   1.912   1.081  15.620  1.0509 -2.6825 -2.2928
15101TIP3   OH266717   6.217   4.287   2.349 -0.3591  0.1906  0.1897
15101TIP3    H166718   6.276   4.214   2.330  0.9317  0.5302  2.5041
15101TIP3    H266719   6.268   4.344   2.407 -2.6998  0.8449  1.7407
15102TIP3   OH266720   5.745   6.421   0.483  0.2405  0.0277  0.5055
15102TIP3    H166721   5.739   6.511   0.516  0.1008 -0.3852  1.6459
15102TIP3    H266722   5.698   6.368   0.547  0.8496 -0.9412  0.1828
15103TIP3   OH266723   0.623   4.489  16.044  0.0602  0.0582  0.0430
15103TIP3    H166724   0.606   4.580  16.020 -0.6817  0.2738  1.2607
15103TIP3    H266725   0.707   4.490  16.089 -0.0456  0.1891  0.2407
15104TIP3   OH266726   3.166   6.369  15.503 -0.3846  0.2043 -0.3558
15104TIP3    H166727   3.219   6.448  15.493  2.9013 -1.2642  3.0866
15104TIP3    H266728   3.106   6.390  15.574  0.8417 -0.4076  0.9217
15105TIP3   OH266729   1.541   5.813   3.169  0.0928  0.2219 -0.1179
15105TIP3    H166730   1.516   5.883   3.109 -1.2136  0.0326  0.1742
15105TIP3    H266731   1.459   5.770   3.191  0.5116  0.3929  1.9562
15106TIP3   OH266732   5.904   2.636  15.340 -0.1418 -1.2114  0.3600
15106TIP3    H166733   5.907   2.622  15.245  0.2985 -0.1666  0.2123
15106TIP3    H266734   5.986   2.599  15.372  0.4349 -0.1410  0.1312
15107TIP3   OH266735   3.930   3.948  13.561 -0.3382  0.3944  0.4573
15107TIP3    H166736   3.836   3.929  13.553 -0.3746  0.5341  0.5433
15107TIP3    H266737   3.934   4.023  13.621 -0.1628  0.2957  0.5697
15108TIP3   OH266738   3.412   5.439   1.122 -0.1804 -0.5567 -0.6035
15108TIP3    H166739   3.357   5.478   1.054 -0.0606 -0.0342 -0.4063
15108TIP3    H266740   3.441   5.356   1.085  0.5413  0.0859 -1.5226
15109TIP3   OH266741   5.801   2.201   0.470  0.1517 -0.1044  0.2115
15109TIP3    H166742   5.835   2.275   0.521  2.4193 -1.8191  1.3956
15109TIP3    H266743   5.825   2.124   0.521  1.1534 -1.8769 -2.6687
15110TIP3   OH266744   6.753   3.531  15.331 -0.0131  0.4776  0.0184
15110TIP3    H166745   6.789   3.573  15.409 -0.9600  1.4387 -0.0424
15110TIP3    H266746   6.774   3.591  15.260 -1.5468  0.9551 -0.0460
15111TIP3   OH266747   5.878   3.563   2.177  0.2134 -0.0873  0.0248
15111TIP3    H166748   5.887   3.481   2.129 -2.6120 -0.6495  0.2536
15111TIP3    H266749   5.928   3.549   2.257  0.8725 -1.0704 -0.5369
15112TIP3   OH266750   0.859   5.440  15.859  0.2260 -0.0481  0.3205
15112TIP3    H166751   0.954   5.447  15.844  0.0490 -0.0794 -0.8849
15112TIP3    H266752   0.845   5.485  15.942  1.2656  0.1994  0.3773
15113TIP3   OH266753   2.057   2.745   3.784 -0.3525  0.3116 -0.2145
15113TIP3    H166754   2.046   2.651   3.770 -0.0468  0.1006  0.9014
15113TIP3    H266755   2.127   2.770   3.722  0.8950 -0.5782  0.7888
15114TIP3   OH266756   3.089   3.265   3.330  0.0128  0.3180 -0.4089
15114TIP3    H166757   3.102   3.258   3.235 -3.8199 -0.2676 -1.0403
15114TIP3    H266758   3.056   3.354   3.342  1.1347  0.6285  0.5370
15115TIP3   OH266759   1.644   2.366   0.166 -0.2296 -1.0418 -0.0555
15115TIP3    H166760   1.716   2.314   0.202  0.3250  1.0878  2.1404
15115TIP3    H266761   1.657   2.363   0.072  0.4447 -3.8425  0.0319
15116TIP3   OH266762   5.171   1.179  12.252  0.4392  0.1857 -0.2740
15116TIP3    H166763   5.107   1.230  12.302  0.1228 -0.0977 -0.3847
15116TIP3    H266764   5.126   1.096  12.235  0.7804  0.0468 -0.4878
15117TIP3   OH266765   2.051   2.504   6.488  0.7457 -0.2014  0.5112
15117TIP3    H166766   2.068   2.475   6.398 -0.3622 -0.6510  0.4342
15117TIP3    H266767   2.128   2.555   6.511  0.5329  0.9639 -1.1367
15118TIP3   OH266768   1.399   4.615   1.707  0.3027  0.1800 -0.3288
15118TIP3    H166769   1.390   4.580   1.795 -1.1052 -0.3476 -0.6641
15118TIP3    H266770   1.396   4.710   1.718 -0.0308  0.1132  0.1662
15119TIP3   OH266771   3.731   0.266   0.293  0.3722  0.4512 -0.5864
15119TIP3    H166772   3.785   0.244   0.217  0.6958 -0.3363 -0.1315
15119TIP3    H266773   3.763   0.210   0.363 -0.6810  0.3499 -0.1668
15120TIP3   OH266774   1.402   5.016  11.810  0.2982  0.7059 -0.5165
15120TIP3    H166775   1.356   5.055  11.884  1.2694 -0.6067  0.8372
15120TIP3    H266776   1.494   5.040  11.823  0.9185 -1.7715  0.2972
15121TIP3   OH266777   6.503   6.335  14.478  0.4564 -0.2535  0.7379
15121TIP3    H166778   6.407   6.340  14.482  0.3881 -1.6899  1.4788
15121TIP3    H266779   6.521   6.254  14.430  1.3185  0.3680 -0.0212
15122TIP3   OH266780   3.425   3.792  12.661  0.3330 -0.8891 -0.2049
15122TIP3    H166781   3.451   3.881  12.639 -1.5158 -0.3099 -0.2475
15122TIP3    H266782   3.456   3.739  12.588 -0.2214  0.0475 -1.1540
15123TIP3   OH266783   3.981   4.767  11.626 -0.0639  0.7675 -0.2051
15123TIP3    H166784   4.061   4.817  11.643 -0.0316  1.0568 -1.1569
15123TIP3    H266785   4.009   4.694  11.571 -0.4393  0.8545 -0.5197
15124TIP3   OH266786   5.645   3.183  10.778 -0.1490 -0.5873 -0.1689
15124TIP3    H166787   5.691   3.263  10.754  0.3643 -0.9241 -0.3190
15124TIP3    H266788   5.571   3.213  10.832 -1.1232  0.1392 -1.8367
15125TIP3   OH266789   5.956   5.092  14.691  0.2050  0.5841 -0.0197
15125TIP3    H166790   5.950   5.027  14.762 -1.6796  1.3501  0.5805
15125TIP3    H266791   5.936   5.043  14.612 -0.6626  0.3128  0.3602
15126TIP3   OH266792   6.007   4.539  12.959  0.1401 -0.6143 -0.1110
15126TIP3    H166793   5.968   4.605  12.902  1.4785 -0.6748 -1.1421
15126TIP3    H266794   6.098   4.568  12.971 -0.0659 -0.6428  1.9664
15127TIP3   OH266795   2.890   3.439   3.103 -0.2157  0.1799 -0.2497
15127TIP3    H166796   2.870   3.512   3.045  1.0135  1.4921  0.8927
15127TIP3    H266797   2.969   3.466   3.150  0.3470 -1.9443  0.1491
15128TIP3   OH266798   2.716   6.090  12.057 -0.1456  0.4120 -0.2161
15128TIP3    H166799   2.750   6.001  12.055 -1.0645 -0.0621  2.2285
15128TIP3    H266800   2.669   6.100  11.974  1.6636 -0.6174 -1.4293
15129TIP3   OH266801   3.304   6.523   0.013 -0.0169 -0.1716  0.0430
15129TIP3    H166802   3.365   6.475   0.068  0.5450  1.0520  0.5212
15129TIP3    H266803   3.351   6.602  -0.013 -0.1911 -0.7867 -2.3850
15130TIP3   OH266804   3.435   1.701  12.307 -0.1561 -0.5569 -0.5463
15130TIP3    H166805   3.399   1.780  12.349  2.6489  0.4585  0.1469
15130TIP3    H266806   3.362   1.640  12.305 -1.4181  0.6774  2.4703
15131TIP3   OH266807   3.502   0.451   4.510 -0.2963  0.0783  0.1793
15131TIP3    H166808   3.510   0.372   4.565  1.1692 -3.1049 -4.0600
15131TIP3    H266809   3.592   0.485   4.505 -0.1934 -0.3095 -0.9551
15132TIP3   OH266810   2.516   0.691   5.856 -0.4119  0.9146 -0.3476
15132TIP3    H166811   2.542   0.643   5.934  0.5306  2.4114  0.3127
15132TIP3    H266812   2.532   0.631   5.784  0.2744  0.0905  0.4721
15133TIP3   OH266813   5.139   2.139  11.971 -0.1738  0.5383 -0.2016
15133TIP3    H166814   5.171   2.192  11.898 -0.1972  0.2160 -0.4519
15133TIP3    H266815   5.117   2.055  11.931 -0.2574  0.3828  0.1664
15134TIP3   OH266816   0.105   1.545  15.998 -0.5721  0.7776  0.1184
15134TIP3    H166817   0.041   1.496  15.947 -0.2599  0.5014 -0.0168
15134TIP3    H266818   0.125   1.622  15.945  1.7291 -0.7975 -1.4955
15135TIP3   OH266819   1.936   3.132   3.337 -0.0681 -0.1356 -0.1999
15135TIP3    H166820   1.939   3.135   3.432  0.1687 -0.2729 -0.2002
15135TIP3    H266821   1.862   3.187   3.313  0.8011  1.1769 -0.0028
15136TIP3   OH266822   1.657   2.062   5.957 -0.0632  0.1881  0.3071
15136TIP3    H166823   1.743   2.019   5.953 -0.4690 -0.6329 -3.1958
15136TIP3    H266824   1.673   2.151   5.925 -0.6201 -0.3788 -1.7106
15137TIP3   OH266825   0.171   2.285   1.624 -0.0769 -0.1876  0.2201
15137TIP3    H166826   0.107   2.294   1.694 -1.3828  1.3585 -1.0775
15137TIP3    H266827   0.177   2.372   1.585 -1.3613 -1.4179 -3.1862
15138TIP3   OH266828   2.438   2.289   2.067 -0.4474 -0.1536 -0.2024
15138TIP3    H166829   2.496   2.253   2.000  0.3693  0.2266  0.2903
15138TIP3    H266830   2.361   2.318   2.018 -0.0791 -0.3363 -0.9110
15139TIP3   OH266831   2.325   3.761  12.639 -0.0134  0.0044  0.3581
15139TIP3    H166832   2.243   3.712  12.640 -0.0680  0.1007  1.1835
15139TIP3    H266833   2.306   3.838  12.585 -0.8350  0.6366  1.5131
15140TIP3   OH266834   3.802   1.665  16.396 -0.0971  0.0495 -0.4837
15140TIP3    H166835   3.779   1.590  16.450  0.7291 -0.7714 -1.2501
15140TIP3    H266836   3.732   1.728  16.412  1.1013  0.6911  3.0875
15141TIP3   OH266837   2.068   5.716   0.291 -0.1809  0.8340 -0.4340
15141TIP3    H166838   1.973   5.713   0.276 -0.1613  0.1707 -0.4874
15141TIP3    H266839   2.082   5.794   0.343 -0.7952  0.7904 -0.1918
15142TIP3   OH266840   4.829   2.836  11.971  0.4410 -0.1199  0.5377
15142TIP3    H166841   4.751   2.888  11.992  1.0326  0.2879  1.7729
15142TIP3    H266842   4.795   2.746  11.962 -0.7880  0.5307 -2.7561
15143TIP3   OH266843   3.853   6.171  13.560 -0.6804  0.2340  0.0852
15143TIP3    H166844   3.799   6.249  13.569 -1.7960 -0.6472  1.5458
15143TIP3    H266845   3.932   6.190  13.611 -1.1543  0.2407  0.8221
15144TIP3   OH266846   2.793   1.996  10.679 -0.6708  0.2099 -0.0820
15144TIP3    H166847   2.853   1.959  10.615 -1.2132  0.5592 -0.8064
15144TIP3    H266848   2.710   2.004  10.632 -1.2381 -0.0747  0.8347
15145TIP3   OH266849   4.672   6.510  17.091 -0.1764  0.0963  0.1091
15145TIP3    H166850   4.728   6.487  17.165 -1.3696 -2.0393  0.4484
15145TIP3    H266851   4.662   6.605  17.097 -0.4734 -0.0285  2.8812
15146TIP3   OH266852   6.624   1.574  11.922  0.1177  0.3048  0.8382
15146TIP3    H166853   6.594   1.659  11.891  0.1825  0.1088  0.2254
15146TIP3    H266854   6.707   1.560  11.877 -0.5043 -0.6500 -0.0737
15147TIP3   OH266855   3.371   3.063  13.690 -0.0802 -0.0644 -0.7132
15147TIP3    H166856   3.306   3.040  13.623 -0.8029  0.3283 -0.1514
15147TIP3    H266857   3.406   2.979  13.719  0.2574 -0.2450 -1.5849
15148TIP3   OH266858   2.609   4.808  14.632  0.4738 -0.0253  0.0696
15148TIP3    H166859   2.637   4.735  14.687  3.0405  0.5100 -0.3971
15148TIP3    H266860   2.686   4.829  14.579 -1.3539  0.6055 -2.5083
15149TIP3   OH266861   0.477   6.747   4.711 -0.6801 -0.0991 -0.3523
15149TIP3    H166862   0.550   6.790   4.754 -0.7733 -0.3303  0.0385
15149TIP3    H266863   0.495   6.756   4.617 -0.5304  0.4883 -0.2657
15150TIP3   OH266864   5.385   0.031   4.708 -0.2515  0.2453  0.0389
15150TIP3    H166865   5.429   0.080   4.639 -0.5980 -0.9068 -1.0392
15150TIP3    H266866   5.303   0.002   4.668  0.7736 -2.8490 -0.0789
15151TIP3   OH266867   5.119   4.186  15.245 -0.1722 -0.2446 -0.1631
15151TIP3    H166868   5.054   4.160  15.179 -1.6444 -2.8484  2.0938
15151TIP3    H266869   5.067   4.205  15.323  1.6527  0.3268  0.9683
15152TIP3   OH266870   0.301   1.591  12.747 -0.0855  0.0711 -0.2860
15152TIP3    H166871   0.385   1.546  12.750  0.1881  0.4739 -1.4019
15152TIP3    H266872   0.319   1.678  12.782  0.6633  1.1484 -3.1373
15153TIP3   OH266873   0.138   0.238   2.027 -0.7823  0.1584 -0.0791
15153TIP3    H166874   0.108   0.328   2.022 -0.2407  0.2710 -1.9660
15153TIP3    H266875   0.220   0.243   2.077 -2.3649  0.1968  2.7268
15154TIP3   OH266876   1.315   3.949  13.073  0.4054  0.1314  0.1238
15154TIP3    H166877   1.271   3.891  13.011 -1.0529 -0.6636  1.8345
15154TIP3    H266878   1.352   3.891  13.139 -0.8942  1.0604  1.7622
15155TIP3   OH266879   2.308   3.297  16.022  0.4184  0.1078 -0.6208
15155TIP3    H166880   2.348   3.210  16.028 -0.2671 -0.2992 -1.6486
15155TIP3    H266881   2.265   3.309  16.106  0.0698 -0.7804 -0.6584
15156TIP3   OH266882   3.561   3.655   4.645 -0.2111  0.2642 -0.1849
15156TIP3    H166883   3.633   3.655   4.708  0.6747  0.9454 -1.1694
15156TIP3    H266884   3.604   3.661   4.559 -1.4014 -0.2749 -0.8432
15157TIP3   OH266885   2.486   4.845   1.547 -0.0702  0.0920  0.7341
15157TIP3    H166886   2.407   4.798   1.518  0.3822 -0.0694 -0.2413
15157TIP3    H266887   2.452   4.921   1.594 -0.8285  0.6850 -0.7061
15158TIP3   OH266888   1.457   5.364  13.872  0.1000 -0.0672 -0.5714
15158TIP3    H166889   1.450   5.297  13.803  3.7176 -1.2085 -0.0531
15158TIP3    H266890   1.413   5.325  13.948  0.3902 -0.9958 -0.8622
15159TIP3   OH266891   5.277   3.885  16.819 -0.8857  0.7276  0.3488
15159TIP3    H166892   5.266   3.885  16.724  0.5123  0.5005  0.1681
15159TIP3    H266893   5.212   3.821  16.850  0.0457 -0.7792 -0.6529
15160TIP3   OH266894   4.028   2.578  16.547 -0.1262 -0.3099  0.2699
15160TIP3    H166895   4.117   2.548  16.527  0.7515  2.3776 -0.4044
15160TIP3    H266896   4.007   2.538  16.631  1.6453 -1.1633  0.3606
15161TIP3   OH266897   1.219   2.633   3.601  0.2293  0.1186  0.8924
15161TIP3    H166898   1.147   2.578   3.571  0.3560  0.6064 -0.3489
15161TIP3    H266899   1.188   2.723   3.588  0.9682  0.3330  0.5477
15162TIP3   OH266900   2.442   5.220  10.361  0.1570 -0.3249  0.1204
15162TIP3    H166901   2.385   5.297  10.362  0.8057  0.2114 -1.3513
15162TIP3    H266902   2.530   5.255  10.373  0.7834 -0.4413 -3.2189
15163TIP3   OH266903   0.365   2.315  17.169  0.3179  0.0021  0.2918
15163TIP3    H166904   0.390   2.406  17.153 -1.2747  0.5024  0.4690
15163TIP3    H266905   0.362   2.307  17.264 -1.2679  0.2959  0.2886
15164TIP3   OH266906   6.778   0.014  13.973 -0.8523 -0.7342 -0.1146
15164TIP3    H166907   6.799   0.107  13.983  0.5905 -0.9850 -0.5507
15164TIP3    H266908   6.728  -0.008  14.051 -3.6653  1.0306 -1.2322
15165TIP3   OH266909   3.394   2.304   5.442  0.0595  0.3972 -0.2204
15165TIP3    H166910   3.450   2.227   5.451  0.5373  0.6119 -1.2405
15165TIP3    H266911   3.441   2.373   5.489 -0.8506 -0.1423  1.5656
15166TIP3   OH266912   5.124   5.797   0.666  0.0281 -0.2213 -1.3395
15166TIP3    H166913   5.180   5.761   0.735 -1.7872 -1.2019 -0.2832
15166TIP3    H266914   5.131   5.734   0.594 -1.4704 -1.6587 -0.3058
15167TIP3   OH266915   4.027   1.824  11.089 -0.5333  0.1738  0.2383
15167TIP3    H166916   4.115   1.804  11.121 -1.2692 -1.6070  1.3096
15167TIP3    H266917   4.029   1.799  10.997 -0.6762 -2.7605  0.9317
15168TIP3   OH266918   2.042   0.129   5.357 -0.5346 -0.5999  0.5299
15168TIP3    H166919   2.077   0.041   5.357 -3.4423 -1.8887 -0.6031
15168TIP3    H266920   1.965   0.124   5.414 -0.8978  1.1416  0.2484
15169TIP3   OH266921   6.487   0.855  14.677 -0.1885  0.2448 -0.1518
15169TIP3    H166922   6.486   0.936  14.626 -1.1767  0.5838  0.3811
15169TIP3    H266923   6.577   0.846  14.707 -0.0547  1.1202 -0.2761
15170TIP3   OH266924   5.131   1.868  11.887 -0.2206  0.0638 -0.1178
15170TIP3    H166925   5.147   1.803  11.955 -2.3487 -0.4912 -0.0877
15170TIP3    H266926   5.067   1.828  11.829  1.9625  0.2621 -2.8954
15171TIP3   OH266927   3.214   5.450  14.942 -0.0744  0.0122  0.4679
15171TIP3    H166928   3.263   5.407  14.872 -0.1365 -0.8848  0.9592
15171TIP3    H266929   3.243   5.406  15.022 -1.9756 -0.8468  0.7337
15172TIP3   OH266930   2.748   1.627  11.873  0.4823 -0.5057 -0.8561
15172TIP3    H166931   2.736   1.539  11.908  1.5036  0.3019  1.7117
15172TIP3    H266932   2.663   1.670  11.886 -0.1444 -1.1653 -2.4850
15173TIP3   OH266933   0.380   5.040  15.810  0.0814 -0.3569  0.0182
15173TIP3    H166934   0.370   4.944  15.814 -0.3142 -0.3545 -0.7370
15173TIP3    H266935   0.313   5.068  15.748  0.0678  0.4386  0.3807
15174TIP3   OH266936   0.944   5.331  14.016 -0.3995  0.5669  0.3826
15174TIP3    H166937   1.023   5.341  13.964  0.1851 -1.3231  0.8329
15174TIP3    H266938   0.907   5.419  14.021  2.4034  1.8016  1.3533
15175TIP3   OH266939   0.042   3.130   1.835  0.0423 -0.1345  0.4293
15175TIP3    H166940   0.014   3.059   1.894  0.1670 -0.9655 -0.4889
15175TIP3    H266941   0.137   3.119   1.828 -0.0132 -0.2503 -0.1802
15176TIP3   OH266942   3.885   5.149  16.999  0.3338  0.4763  0.5643
15176TIP3    H166943   3.977   5.134  16.976  0.8135  3.3505  0.1740
15176TIP3    H266944   3.882   5.140  17.094  1.0845  0.5532  0.6035
15177TIP3   OH266945   5.331   2.046   2.751 -0.9731 -0.1616 -0.3554
15177TIP3    H166946   5.327   2.039   2.847  1.5835 -0.1088 -0.1644
15177TIP3    H266947   5.288   2.129   2.731 -1.2556 -0.0180  0.7762
15178TIP3   OH266948   0.043   3.618   1.548 -0.3361  0.2166 -0.4428
15178TIP3    H166949   0.064   3.655   1.462 -0.4465  1.1605 -0.0772
15178TIP3    H266950   0.122   3.632   1.601 -1.0552  1.7759  0.2832
15179TIP3   OH266951   3.041   0.930  11.704 -0.5176  0.0391  0.0851
15179TIP3    H166952   3.127   0.917  11.743 -0.3965 -1.8893 -0.7330
15179TIP3    H266953   3.049   1.010  11.653  0.9782 -0.4482 -0.4830
15180TIP3   OH266954   4.485   3.906  13.854 -0.1406  0.2218 -0.2773
15180TIP3    H166955   4.390   3.899  13.848 -0.0784 -1.5386  0.4068
15180TIP3    H266956   4.519   3.837  13.797  0.6502 -1.2720  1.8541
15181TIP3   OH266957   1.144   4.095   5.358  0.0359 -0.7338  0.0024
15181TIP3    H166958   1.198   4.172   5.340  0.4124 -1.1725 -0.8369
15181TIP3    H266959   1.062   4.130   5.393  1.0474 -0.0735  1.8794
15182TIP3   OH266960   0.365   3.365  13.568 -0.1447 -0.4028 -0.1834
15182TIP3    H166961   0.367   3.274  13.538  0.5105 -0.3067 -0.4459
15182TIP3    H266962   0.448   3.376  13.615  0.3379  0.4010 -1.1832
15183TIP3   OH266963   6.245   0.291  12.357  0.1489  0.8506 -0.2212
15183TIP3    H166964   6.163   0.242  12.354  0.1490  0.7994  0.5268
15183TIP3    H266965   6.219   0.383  12.356  0.0550  0.8341  0.6749
15184TIP3   OH266966   1.194   0.363  14.739  0.0863  0.3719 -0.4000
15184TIP3    H166967   1.135   0.289  14.726  0.2337  0.4840 -1.8387
15184TIP3    H266968   1.139   0.441  14.729  0.0990  0.4706  0.2529
15185TIP3   OH266969   0.475   1.895  15.422 -0.0642 -0.5216 -0.2035
15185TIP3    H166970   0.395   1.916  15.373 -0.7605 -1.4711  0.4923
15185TIP3    H266971   0.479   1.962  15.491  0.1451 -0.0400 -0.6755
15186TIP3   OH266972   1.333   5.835   0.278 -0.1295 -0.3138 -0.0367
15186TIP3    H166973   1.376   5.913   0.242  0.5458 -0.9766 -0.6899
15186TIP3    H266974   1.286   5.868   0.355 -0.2794  0.8301 -0.5911
15187TIP3   OH266975   1.269   3.244   1.062  0.1897 -0.3151 -0.0556
15187TIP3    H166976   1.260   3.221   1.155  1.4828 -2.0745 -0.3142
15187TIP3    H266977   1.182   3.226   1.025  0.0539 -0.9586  0.5480
15188TIP3   OH266978   4.485   1.591  14.831  0.5063 -0.2236  0.4197
15188TIP3    H166979   4.495   1.541  14.750  0.2337 -0.1442  0.3353
15188TIP3    H266980   4.466   1.524  14.898  0.0512 -0.2267  0.2898
15189TIP3   OH266981   1.069   1.006  15.501 -0.3932  1.0577 -0.2421
15189TIP3    H166982   0.985   1.003  15.548 -0.0050  0.7486  0.4474
15189TIP3    H266983   1.133   0.978  15.566  0.1349  0.4293 -1.0311
15190TIP3   OH266984   0.591   4.703   0.936  0.1892 -0.2003 -0.4740
15190TIP3    H166985   0.537   4.781   0.920  1.1565  0.4257 -0.7688
15190TIP3    H266986   0.585   4.689   1.030 -0.6223 -0.2558 -0.5201
15191TIP3   OH266987   3.596   2.299   3.712 -0.4730  0.1006  0.2590
15191TIP3    H166988   3.597   2.391   3.739  0.3218 -0.4103  2.1517
15191TIP3    H266989   3.528   2.294   3.645  0.1097  2.2424 -0.5920
15192TIP3   OH266990   3.733   4.524   5.293 -0.2743  0.2450 -0.3013
15192TIP3    H166991   3.698   4.472   5.221 -2.4573 -0.9623  1.4721
15192TIP3    H266992   3.698   4.612   5.279 -1.4052 -0.1887 -0.3124
15193TIP3   OH266993   3.490   0.560   2.149 -0.5316 -0.2915 -0.0832
15193TIP3    H166994   3.536   0.486   2.111 -0.8023 -1.7397  2.2211
15193TIP3    H266995   3.556   0.604   2.202 -0.9001 -0.1888  0.2947
15194TIP3   OH266996   1.898   4.007   1.033  0.2289  0.2245 -0.3671
15194TIP3    H166997   1.882   4.019   1.126 -0.3598 -1.0631 -0.2849
15194TIP3    H266998   1.978   3.954   1.029 -0.4257 -0.7764 -0.5412
15195TIP3   OH266999   1.830   3.251   1.475 -0.3093 -0.0656  0.0121
15195TIP3    H167000   1.850   3.343   1.458  0.6484  0.1434  1.9677
15195TIP3    H267001   1.801   3.249   1.567 -1.8970 -1.5079 -0.4588
15196TIP3   OH267002   0.132   6.283   5.895 -0.0602  0.5448  0.2126
15196TIP3    H167003   0.225   6.264   5.886  0.1020  1.6474 -0.7474
15196TIP3    H267004   0.090   6.198   5.902  1.0591  0.0551  1.0941
15197TIP3   OH267005   5.165   5.430  14.173 -0.4221 -0.4556  0.5003
15197TIP3    H167006   5.181   5.367  14.103 -1.1856  1.0204 -1.0705
15197TIP3    H267007   5.250   5.472  14.188 -0.6870  0.7505 -1.1359
15198TIP3   OH267008   4.583   0.947   2.079  0.0071 -0.6747  0.8080
15198TIP3    H167009   4.550   1.021   2.029  1.2082 -0.1591  0.7503
15198TIP3    H267010   4.645   0.985   2.141 -0.6628 -1.4268  1.9868
15199TIP3   OH267011   4.300   1.277   1.653  0.1521  0.2482  0.1920
15199TIP3    H167012   4.365   1.346   1.661  2.5941 -1.7711 -0.8281
15199TIP3    H267013   4.230   1.316   1.600  1.6625  1.8189 -0.7525
15200TIP3   OH267014   2.969   6.391   3.026 -0.6298  0.1389  0.7387
15200TIP3    H167015   3.059   6.423   3.018 -0.8290  1.3635  2.6933
15200TIP3    H267016   2.939   6.380   2.936  1.0670  0.9140  0.0387
15201TIP3   OH267017   5.285   0.510   1.958  0.0490 -0.2830  0.1000
15201TIP3    H167018   5.198   0.474   1.975 -1.0042  1.4726 -1.2292
15201TIP3    H267019   5.337   0.485   2.034 -1.5263 -1.6279  0.7938
15202TIP3   OH267020   2.100   1.513   0.171  0.0086 -0.0875 -0.0965
15202TIP3    H167021   2.016   1.554   0.150 -0.4054  0.1135  1.7524
15202TIP3    H267022   2.082   1.419   0.168 -0.2920 -0.0463  0.2193
15203TIP3   OH267023   3.678   1.662   0.457  0.6558 -0.0598 -0.3817
15203TIP3    H167024   3.725   1.651   0.539 -0.5995  2.1803  0.7373
15203TIP3    H267025   3.599   1.711   0.481 -0.7574 -1.0709 -2.6260
15204TIP3   OH267026   1.571   1.051  14.249  0.8676  0.2521 -0.2252
15204TIP3    H167027   1.630   0.976  14.237 -0.2537 -0.7467  0.3496
15204TIP3    H267028   1.494   1.014  14.291 -1.0970  1.1071 -2.8332
15205TIP3   OH267029   1.059   3.159  16.468  0.1636 -0.3659 -0.3793
15205TIP3    H167030   1.023   3.072  16.483  0.6183 -0.2691  1.5499
15205TIP3    H267031   1.013   3.216  16.530  0.2943  0.6669 -1.1922
15206TIP3   OH267032   2.880   6.306  14.566  0.1465  0.4104 -0.2552
15206TIP3    H167033   2.918   6.220  14.545 -0.2452 -0.4296  2.1586
15206TIP3    H267034   2.809   6.317  14.502  1.4802 -0.0899 -1.8951
15207TIP3   OH267035   1.072   5.587   1.931 -0.7928  0.0157  0.1762
15207TIP3    H167036   1.010   5.515   1.921 -2.1298  1.1192  0.1802
15207TIP3    H267037   1.024   5.664   1.899  0.8738  0.7688 -0.5809
15208TIP3   OH267038   3.414   0.554  11.220  0.3902  0.4841  0.0980
15208TIP3    H167039   3.363   0.567  11.139  0.4705  0.4303  0.0387
15208TIP3    H267040   3.385   0.625  11.278 -0.5142 -0.1553  0.4471
15209TIP3   OH267041   1.063   3.157  11.583 -0.1219  1.0409  0.2483
15209TIP3    H167042   1.065   3.180  11.676  2.0793 -0.6987  0.7300
15209TIP3    H267043   1.005   3.080  11.579  0.8893  0.2387  0.4752
15210TIP3   OH267044   6.382   4.332  13.025  0.8043  0.0711  0.3543
15210TIP3    H167045   6.447   4.366  12.964 -0.3923 -0.1907 -1.1173
15210TIP3    H267046   6.345   4.255  12.981 -0.6468  0.3293  1.0417
15211TIP3   OH267047   1.337   1.044  12.872  0.6533 -0.5242 -0.3595
15211TIP3    H167048   1.302   1.042  12.783  0.5608  0.8146 -0.3839
15211TIP3    H267049   1.360   1.136  12.886 -2.1089 -0.0693  2.0525
15212TIP3   OH267050   0.464   0.395   5.570  0.1781  0.6393  0.1559
15212TIP3    H167051   0.490   0.481   5.538  0.0247  0.9994  0.9796
15212TIP3    H267052   0.485   0.335   5.498  2.2199  1.0615  0.3465
15213TIP3   OH267053   0.133   1.859  12.968 -0.3236 -0.5181  0.0419
15213TIP3    H167054   0.112   1.789  12.907  0.1345 -1.7393  1.2284
15213TIP3    H267055   0.228   1.862  12.970 -0.3080  1.1453 -1.0587
15214TIP3   OH267056   0.017   1.677  16.798  0.1698 -0.4269  0.0865
15214TIP3    H167057  -0.001   1.630  16.879  1.3948  0.6018  1.0047
15214TIP3    H267058   0.109   1.660  16.780  0.6219  1.4749  0.3940
15215TIP3   OH267059   5.801   6.457  13.296 -0.0198  0.3160  0.3886
15215TIP3    H167060   5.821   6.445  13.389  0.0142 -1.2636  0.1975
15215TIP3    H267061   5.886   6.463  13.254 -0.0329  0.7651  0.4244
15216TIP3   OH267062   2.980   4.794  10.843 -0.1757 -0.6977 -0.1213
15216TIP3    H167063   2.896   4.837  10.830  0.3775  0.0367 -1.4307
15216TIP3    H267064   2.963   4.702  10.825 -0.7199 -0.5669 -0.2839
15217TIP3   OH267065   5.478   5.867  13.183  0.0573  0.4342  0.8681
15217TIP3    H167066   5.407   5.922  13.150 -1.3370 -0.7274  1.7816
15217TIP3    H267067   5.557   5.903  13.144 -1.1171  1.2725 -0.8648
15218TIP3   OH267068   3.483   2.639   4.861 -0.2074  0.0521 -0.0113
15218TIP3    H167069   3.453   2.601   4.944  0.9638 -0.4084  0.2165
15218TIP3    H267070   3.541   2.572   4.823 -0.0884  0.5916 -0.8134
15219TIP3   OH267071   4.824   6.140   0.976 -0.3045 -0.3754 -0.5416
15219TIP3    H167072   4.844   6.136   0.882 -1.3581  0.6965 -0.8224
15219TIP3    H267073   4.735   6.173   0.981 -0.1264 -0.0268  0.8568
15220TIP3   OH267074   2.327   6.264  14.232  0.8649 -0.2197 -1.0670
15220TIP3    H167075   2.328   6.327  14.160  1.4996  0.8874 -0.1214
15220TIP3    H267076   2.238   6.270  14.268 -0.5206 -3.0068 -3.5736
15221TIP3   OH267077   5.860   3.957  16.546 -0.2341 -0.1208 -0.0974
15221TIP3    H167078   5.877   3.891  16.479  0.7145 -1.6309  1.5548
15221TIP3    H267079   5.779   3.930  16.588 -0.1884  0.1320  0.1617
15222TIP3   OH267080   3.229   0.038  12.928 -0.3344  0.8227  0.1186
15222TIP3    H167081   3.262   0.090  13.001  0.5033 -0.3006  0.5700
15222TIP3    H267082   3.136   0.061  12.922 -0.3119  1.2714  1.2545
15223TIP3   OH267083   4.804   5.147  17.212 -0.2518 -0.2698 -0.2284
15223TIP3    H167084   4.898   5.147  17.193 -0.1241 -2.0280  0.2310
15223TIP3    H267085   4.767   5.209  17.150  1.4856  2.4215  1.1888
15224TIP3   OH267086   6.574   0.748   4.509  0.5782  0.2129  0.3511
15224TIP3    H167087   6.578   0.808   4.584 -0.1142  0.9464 -0.1855
15224TIP3    H267088   6.626   0.673   4.537  1.6291  1.1200  0.9811
15225TIP3   OH267089   1.902   1.694  16.816 -0.0938 -0.1420 -0.1859
15225TIP3    H167090   1.835   1.631  16.844  0.5628 -1.5954 -1.6556
15225TIP3    H267091   1.955   1.710  16.894 -0.5247 -1.1258  0.3317
15226TIP3   OH267092   1.789   2.370  11.071  0.4109 -0.8726 -0.1176
15226TIP3    H167093   1.732   2.295  11.086 -1.8982  0.4802 -1.5010
15226TIP3    H267094   1.755   2.439  11.127  2.7108 -0.8476  1.4003
15227TIP3   OH267095   0.664   6.386   1.826 -0.4043  0.2601  0.1939
15227TIP3    H167096   0.615   6.369   1.906 -2.0727 -0.0704 -0.8450
15227TIP3    H267097   0.660   6.304   1.777  0.9459  0.3302 -0.0735
15228TIP3   OH267098   5.996   4.550   2.037  0.2496  0.4845  0.0839
15228TIP3    H167099   6.021   4.514   1.952 -0.1021 -0.1751  0.2568
15228TIP3    H267100   5.920   4.605   2.018  0.6832  1.0085 -0.1539
15229TIP3   OH267101   0.227   3.208   0.180  0.1557  0.3858  0.3715
15229TIP3    H167102   0.175   3.284   0.205 -1.7041 -0.5482 -0.4591
15229TIP3    H267103   0.309   3.218   0.228 -0.2110  2.6642  0.6175
15230TIP3   OH267104   4.875   1.787  13.393  0.2305  0.3606  0.1893
15230TIP3    H167105   4.882   1.716  13.329  0.0996  0.2883  0.2553
15230TIP3    H267106   4.895   1.746  13.477 -2.1689 -0.1379  0.5724
15231TIP3   OH267107   3.550   2.347   6.224  0.4225 -0.2654  0.0232
15231TIP3    H167108   3.602   2.427   6.221  1.0671 -0.7082 -1.1247
15231TIP3    H267109   3.614   2.277   6.238  0.1227 -0.7770 -1.0084
15232TIP3   OH267110   4.048   3.725  14.511 -0.7406 -0.7560  0.3762
15232TIP3    H167111   4.040   3.789  14.582 -0.5733 -0.3957  0.0738
15232TIP3    H267112   3.957   3.699  14.493 -0.8042 -0.6627  0.5554
15233TIP3   OH267113   2.153   2.208   4.843 -0.1588  0.6568 -0.1077
15233TIP3    H167114   2.148   2.174   4.933 -1.1446 -3.8131 -1.6094
15233TIP3    H267115   2.078   2.268   4.836 -2.4907 -1.8661  1.1212
15234TIP3   OH267116   0.607   6.188  11.539 -0.0846 -0.3734 -0.2050
15234TIP3    H167117   0.665   6.116  11.561  0.9080  0.5531  0.3147
15234TIP3    H267118   0.579   6.171  11.450  1.2148 -0.7044 -0.5630
15235TIP3   OH267119   5.024   4.443  11.280  0.0020 -0.2787 -0.1547
15235TIP3    H167120   5.024   4.355  11.316 -0.7518 -1.2311 -2.3517
15235TIP3    H267121   5.046   4.432  11.188  1.6676  2.0375 -0.1317
15236TIP3   OH267122   5.236   3.511   5.351  0.6042 -0.7271  0.3523
15236TIP3    H167123   5.237   3.440   5.288 -0.5988 -1.3136  0.9614
15236TIP3    H267124   5.143   3.534   5.360  0.6984 -0.9578  2.2227
15237TIP3   OH267125   3.589   1.303   3.394 -0.2189 -0.1165  0.3362
15237TIP3    H167126   3.554   1.384   3.429  0.5588 -0.2425  1.4554
15237TIP3    H267127   3.573   1.238   3.463 -0.2220 -0.7673 -0.2635
15238TIP3   OH267128   4.756   6.441   6.131 -0.4890  0.1515  0.0566
15238TIP3    H167129   4.850   6.451   6.148 -0.6654  0.5675  0.8259
15238TIP3    H267130   4.732   6.521   6.084 -0.7152  0.6711  1.0304
15239TIP3   OH267131   5.178   3.285  11.467 -0.1757 -0.6784  0.9765
15239TIP3    H167132   5.094   3.323  11.440 -0.6382 -1.2077  1.6251
15239TIP3    H267133   5.156   3.195  11.493  1.1419 -2.0312 -2.1328
15240TIP3   OH267134   4.288   3.843  13.575 -0.2425  0.6271 -0.5973
15240TIP3    H167135   4.362   3.836  13.514 -0.7949  0.2747 -1.2368
15240TIP3    H267136   4.293   3.933  13.609  2.5041 -0.3480  1.9867
15241TIP3   OH267137   2.060   1.974   1.496 -0.2720  0.1097  0.6297
15241TIP3    H167138   2.056   1.917   1.419 -2.2499 -0.9299  1.4438
15241TIP3    H267139   2.143   1.952   1.538  0.0727 -0.4738 -0.3387
15242TIP3   OH267140   4.011   4.790   1.560 -0.3392 -0.1888  0.3607
15242TIP3    H167141   3.937   4.815   1.506 -0.7485  1.3924  1.5692
15242TIP3    H267142   4.075   4.859   1.546 -0.7206  0.6240  2.3382
15243TIP3   OH267143   0.597   4.222   2.866 -0.3569 -0.2423 -0.1109
15243TIP3    H167144   0.643   4.197   2.946 -1.5248 -2.7547 -0.1231
15243TIP3    H267145   0.554   4.305   2.888  1.5378  0.5094  0.9259
15244TIP3   OH267146   0.297   5.044  11.020 -0.1545 -0.1908  0.0043
15244TIP3    H167147   0.361   5.084  10.962 -1.4328  0.9698 -0.6693
15244TIP3    H267148   0.349   5.010  11.094  1.0808  2.1936  0.3166
15245TIP3   OH267149   4.442   5.468   2.346 -1.0139 -0.2288  0.1334
15245TIP3    H167150   4.469   5.410   2.274 -0.0589  0.7029 -0.2816
15245TIP3    H267151   4.372   5.522   2.309  1.0405  1.8893 -0.9325
15246TIP3   OH267152   3.165   5.129   2.786  0.6580 -0.4339 -0.3212
15246TIP3    H167153   3.075   5.101   2.772  0.9584 -2.6284  1.5577
15246TIP3    H267154   3.199   5.145   2.698 -1.1233 -1.0246 -1.1540
15247TIP3   OH267155   3.822   5.901  14.490  0.2652  0.2861 -0.1490
15247TIP3    H167156   3.741   5.904  14.440  0.6347  0.2652 -0.7699
15247TIP3    H267157   3.821   5.816  14.533  0.7770 -0.4964 -1.6087
15248TIP3   OH267158   0.342   3.465  14.789 -0.3313 -0.4433 -0.4083
15248TIP3    H167159   0.261   3.433  14.830 -0.2982  0.9054  0.7780
15248TIP3    H267160   0.400   3.484  14.863 -0.1581  1.8148 -1.0599
15249TIP3   OH267161   5.372   2.702   3.174 -0.4138  0.1071 -0.4814
15249TIP3    H167162   5.348   2.609   3.183 -0.3087  0.0783 -0.5036
15249TIP3    H267163   5.461   2.707   3.207 -1.2360  0.6211  1.8851
15250TIP3   OH267164   4.478   6.080   4.497  0.4097 -0.0769  0.1255
15250TIP3    H167165   4.523   6.004   4.461 -1.7883 -0.5068 -1.8951
15250TIP3    H267166   4.474   6.142   4.425  0.3338  1.1397  1.1407
15251TIP3   OH267167   6.167   4.031   5.676  0.2270  0.1445  0.3018
15251TIP3    H167168   6.235   4.099   5.682 -0.2071  0.5465  0.7443
15251TIP3    H267169   6.098   4.062   5.734 -0.0483 -0.5965  0.3724
15252TIP3   OH267170   5.952   3.508   3.127  0.2726 -0.2737 -0.0427
15252TIP3    H167171   5.914   3.594   3.143  0.7248 -0.2995  1.2760
15252TIP3    H267172   5.933   3.458   3.207  0.3957 -1.2598 -0.6119
15253TIP3   OH267173   3.994   3.221   5.484 -0.2757 -0.2843  0.3115
15253TIP3    H167174   4.057   3.203   5.413  0.5766  1.6722  0.4945
15253TIP3    H267175   3.920   3.164   5.466 -0.3584  0.5669 -2.5536
15254TIP3   OH267176   1.823   5.616   1.542 -0.2580 -0.0458  0.9598
15254TIP3    H167177   1.826   5.551   1.472  0.1023 -0.9397  1.7785
15254TIP3    H267178   1.837   5.565   1.622 -3.0989  0.5310  1.9547
15255TIP3   OH267179   6.121   1.730  12.212  0.3435 -0.1296  0.4748
15255TIP3    H167180   6.035   1.731  12.254  0.0302  0.9001 -0.1541
15255TIP3    H267181   6.103   1.700  12.123  0.5487  0.5813  0.1872
15256TIP3   OH267182   3.501   2.684  11.735 -0.4124  0.3159 -0.6691
15256TIP3    H167183   3.485   2.711  11.644  1.2740  1.2570 -0.7096
15256TIP3    H267184   3.501   2.588  11.731  0.1403  0.3463 -1.7625
15257TIP3   OH267185   0.431   5.634   0.969  0.7037  0.0731  0.3128
15257TIP3    H167186   0.350   5.585   0.973 -0.7693  2.2998 -0.3486
15257TIP3    H267187   0.405   5.722   0.940  3.1712  1.2729  1.4186
15258TIP3   OH267188   6.477   3.869  16.477  0.0475 -0.3617 -0.7110
15258TIP3    H167189   6.441   3.856  16.564 -0.3739 -0.1490 -0.8485
15258TIP3    H267190   6.419   3.934  16.436 -0.5790 -1.4531 -1.6241
15259TIP3   OH267191   5.955   3.850  13.943 -0.2071 -0.0745  0.5676
15259TIP3    H167192   5.943   3.835  14.037 -0.4309  0.5753  0.6521
15259TIP3    H267193   6.006   3.775  13.913  0.2152 -0.0899  1.2903
15260TIP3   OH267194   0.064   0.219  11.063  0.6408  0.4358 -0.4196
15260TIP3    H167195   0.072   0.201  11.157  1.5693  0.7478 -0.4328
15260TIP3    H267196   0.120   0.153  11.022 -0.2936 -0.1400 -0.8104
15261TIP3   OH267197   2.700   4.820   4.130 -0.1843  0.0163  0.2976
15261TIP3    H167198   2.769   4.757   4.151  0.1612  0.2583 -0.0865
15261TIP3    H267199   2.690   4.812   4.035 -0.8375 -0.1705  0.3821
15262TIP3   OH267200   3.728   6.249  12.773  0.0311  0.3051 -0.8261
15262TIP3    H167201   3.692   6.320  12.826  0.5088  1.8077 -2.4304
15262TIP3    H267202   3.822   6.261  12.777  0.1878 -0.9083 -0.2831
15263TIP3   OH267203   3.738   0.784  13.721 -0.0615 -0.7511 -0.3060
15263TIP3    H167204   3.734   0.703  13.670  1.8870  0.5110 -2.6578
15263TIP3    H267205   3.796   0.842  13.671  0.6502  1.2393  2.5384
15264TIP3   OH267206   6.681   2.512  14.485 -0.6986  0.3792 -0.2219
15264TIP3    H167207   6.656   2.603  14.500 -0.1131  0.5804 -0.4155
15264TIP3    H267208   6.695   2.507  14.390  0.8781  0.5293 -0.0302
15265TIP3   OH267209   5.694   2.975  15.239 -0.6141 -0.3378 -0.0990
15265TIP3    H167210   5.777   2.937  15.211 -1.1174 -0.1285 -2.0119
15265TIP3    H267211   5.713   3.069  15.250  0.0792 -0.6888  2.4442
15266TIP3   OH267212   0.742   6.536  12.881 -0.0212 -0.4789 -0.6507
15266TIP3    H167213   0.659   6.576  12.859  0.4979  0.4908 -0.9043
15266TIP3    H267214   0.805   6.608  12.878  0.7375 -1.0873  0.0573
15267TIP3   OH267215   0.123   5.530  14.286 -0.0403  0.0177 -0.3408
15267TIP3    H167216   0.137   5.564  14.197 -1.0023  1.2799 -0.0373
15267TIP3    H267217   0.196   5.471  14.301  0.3006  0.0190 -1.8652
15268TIP3   OH267218   0.009   3.398   4.881  0.2868 -0.2403 -0.7695
15268TIP3    H167219   0.004   3.385   4.786  1.5182 -0.5042 -0.8084
15268TIP3    H267220   0.034   3.490   4.891  0.1505 -0.2108 -0.6950
15269TIP3   OH267221   3.289   1.047   3.111  0.3627  0.2645 -0.0772
15269TIP3    H167222   3.320   1.130   3.075  1.1475  0.9697  2.0640
15269TIP3    H267223   3.366   1.008   3.152 -0.3712 -0.7015  0.4330
15270TIP3   OH267224   2.890   6.359  15.378 -0.4038  0.2121  0.2784
15270TIP3    H167225   2.925   6.323  15.297 -2.4000  0.8490 -0.9295
15270TIP3    H267226   2.905   6.453  15.371 -2.1973  0.5007 -0.2609
15271TIP3   OH267227   2.283   4.840   3.241  0.4424 -0.7884  0.0683
15271TIP3    H167228   2.255   4.921   3.200 -0.7027 -1.5741 -0.7796
15271TIP3    H267229   2.255   4.771   3.180  0.2446 -1.8906  1.3524
15272TIP3   OH267230   0.766   1.105  12.675  0.2425 -0.0810 -0.1910
15272TIP3    H167231   0.727   1.148  12.751  2.7134  1.9805  0.0503
15272TIP3    H267232   0.813   1.030  12.711 -0.4484 -0.4484 -0.0282
15273TIP3   OH267233   2.262   6.113  15.342  0.2951 -0.0668  0.0679
15273TIP3    H167234   2.278   6.171  15.267  1.9684  0.0959  0.5132
15273TIP3    H267235   2.309   6.155  15.415  0.5997 -1.3944  0.6620
15274TIP3   OH267236   3.954   2.166  11.109  0.6824  0.3172 -0.5491
15274TIP3    H167237   3.977   2.120  11.028 -2.8839 -2.7716 -0.1259
15274TIP3    H267238   3.870   2.207  11.091  0.1609  0.2025  1.3263
15275TIP3   OH267239   0.265   5.154  15.223 -0.5027  0.0632 -0.3275
15275TIP3    H167240   0.309   5.164  15.308 -0.7185  0.0035 -0.2091
15275TIP3    H267241   0.335   5.167  15.159  0.1564 -2.0949 -0.1284
15276TIP3   OH267242   2.092   4.701  14.391  0.4266 -0.5512  0.3283
15276TIP3    H167243   2.121   4.712  14.300 -0.0387 -1.9317 -0.0117
15276TIP3    H267244   2.143   4.627  14.423  0.2389 -0.3756  1.0563
15277TIP3   OH267245   4.971   3.916   1.911  0.3918  0.1656 -0.1431
15277TIP3    H167246   4.980   3.899   1.817  2.4472 -0.9054  0.1721
15277TIP3    H267247   5.026   3.993   1.926  0.1287  0.2883  0.1926
15278TIP3   OH267248   4.447   2.459  15.744 -0.3037 -0.0571  0.6186
15278TIP3    H167249   4.516   2.450  15.809  1.1120  0.3583 -0.7719
15278TIP3    H267250   4.464   2.543  15.702 -2.9188  1.0793  1.6078
15279TIP3   OH267251   2.946   3.113  11.397  0.3416 -0.2565 -0.3091
15279TIP3    H167252   2.916   3.108  11.307  0.9237 -0.5411 -0.4921
15279TIP3    H267253   3.025   3.058  11.400  0.8370  0.4503  0.1559
15280TIP3   OH267254   5.501   3.572   5.364 -0.0869 -0.1643  0.2161
15280TIP3    H167255   5.414   3.532   5.365  0.5879 -1.7194 -0.7379
15280TIP3    H267256   5.541   3.544   5.446  0.8730 -2.6842 -1.0313
15281TIP3   OH267257   2.651   0.721  16.362 -0.4605 -0.3791 -0.1276
15281TIP3    H167258   2.573   0.768  16.391  0.6932  0.5297  1.5970
15281TIP3    H267259   2.682   0.674  16.439  1.3778  0.2346 -0.4436
15282TIP3   OH267260   4.306   1.625  12.232 -0.4460  0.1691  0.2129
15282TIP3    H167261   4.235   1.592  12.287 -0.3308  0.3719  0.4865
15282TIP3    H267262   4.262   1.673  12.162 -0.6568 -1.3386 -0.7281
15283TIP3   OH267263   6.060   4.874  12.000 -0.2671  0.2222  1.0347
15283TIP3    H167264   6.098   4.961  11.987  0.6076 -0.2611  0.1934
15283TIP3    H267265   5.991   4.868  11.934  0.7745 -0.3246 -0.0300
15284TIP3   OH267266   3.770   2.131   4.555  0.0414  0.1641 -0.6621
15284TIP3    H167267   3.756   2.101   4.465 -1.2942  0.6536 -0.6530
15284TIP3    H267268   3.682   2.154   4.585  0.2562 -1.2962  1.2465
15285TIP3   OH267269   3.363   0.996   1.279  0.0327  0.4194  0.0951
15285TIP3    H167270   3.280   0.962   1.245 -0.0426  1.1619 -0.4970
15285TIP3    H267271   3.361   1.090   1.257  1.8183  0.1298 -1.5967
15286TIP3   OH267272   4.341   3.098   3.816 -0.0109 -0.1701 -1.0553
15286TIP3    H167273   4.319   3.027   3.877 -0.1134  1.0315  0.3672
15286TIP3    H267274   4.294   3.174   3.850 -0.5530  0.4270 -3.0100
15287TIP3   OH267275   6.215   0.642  12.837 -0.1142  0.5284  0.0040
15287TIP3    H167276   6.275   0.653  12.762  0.1859  0.9751  0.2989
15287TIP3    H267277   6.209   0.730  12.874  0.6408  0.1060  1.1848
15288TIP3   OH267278   0.988   4.814  14.129 -0.5881  0.2364  0.4072
15288TIP3    H167279   0.909   4.789  14.178  1.0379  1.0637  3.7650
15288TIP3    H267280   0.964   4.896  14.085 -1.7884  0.1757  0.9120
15289TIP3   OH267281   5.383   5.796  16.627  0.1786  0.0893 -0.2467
15289TIP3    H167282   5.315   5.843  16.676  1.2038 -1.1825  2.5673
15289TIP3    H267283   5.465   5.828  16.664  0.9819 -1.3359 -0.7535
15290TIP3   OH267284   3.359   0.215  12.347 -0.1242  0.4337 -0.3095
15290TIP3    H167285   3.345   0.245  12.437  2.2496 -1.2516  0.7220
15290TIP3    H267286   3.280   0.164  12.326 -1.0212  1.4236  0.5184
15291TIP3   OH267287   5.691   4.820  16.603  0.4466  0.2237 -0.0825
15291TIP3    H167288   5.748   4.823  16.526 -1.2554  2.1860 -1.4095
15291TIP3    H267289   5.649   4.906  16.604 -1.6334 -0.7197  1.4561
15292TIP3   OH267290   0.919   3.840   3.853  0.4412 -0.5082  0.0527
15292TIP3    H167291   0.896   3.932   3.865  0.7279 -0.3166 -0.8153
15292TIP3    H267292   1.002   3.842   3.805 -0.4012 -1.2150 -1.4856
15293TIP3   OH267293   0.336   6.613  15.212 -0.5662  0.1105  0.4754
15293TIP3    H167294   0.300   6.682  15.267 -0.4949 -0.9971  1.9806
15293TIP3    H267295   0.407   6.655  15.162  0.0711  0.9274  2.0141
15294TIP3   OH267296   5.147   4.811   0.960  0.1356  0.0937 -0.1538
15294TIP3    H167297   5.157   4.718   0.980 -0.1276  0.0372 -0.2863
15294TIP3    H267298   5.163   4.818   0.866 -1.8345 -0.1200 -0.5378
15295TIP3   OH267299   3.178   2.917   1.843 -0.2404  0.3285 -0.1897
15295TIP3    H167300   3.264   2.945   1.876 -0.3680  0.1947  0.2620
15295TIP3    H267301   3.173   2.824   1.864 -0.7587  0.4742  0.3688
15296TIP3   OH267302   0.546   1.262  14.772  0.4626 -0.0146 -0.1913
15296TIP3    H167303   0.501   1.323  14.714  0.0318  0.2918  0.4490
15296TIP3    H267304   0.476   1.207  14.808  0.7248 -0.2051  0.0356
15297TIP3   OH267305   2.432   1.916  13.734  0.1523 -0.3853  0.1719
15297TIP3    H167306   2.400   1.847  13.793  0.7719 -0.0652  0.8958
15297TIP3    H267307   2.527   1.906  13.734  0.1684 -0.2756 -0.6556
15298TIP3   OH267308   3.094   6.355   5.645 -0.1111  0.8554 -0.0853
15298TIP3    H167309   3.148   6.370   5.723  0.3151 -1.5660  0.1648
15298TIP3    H267310   3.136   6.405   5.576  1.4685  0.3780  0.4987
15299TIP3   OH267311   0.197   3.284  11.206  0.3773 -0.1655 -0.3740
15299TIP3    H167312   0.148   3.253  11.130 -1.9373  1.6202  0.2788
15299TIP3    H267313   0.248   3.358  11.173 -1.9592  1.7575  0.0044
15300TIP3   OH267314   2.313   1.847   4.339  0.2369  0.4937 -0.1338
15300TIP3    H167315   2.285   1.783   4.404  1.2975 -0.0221 -0.1561
15300TIP3    H267316   2.361   1.913   4.390  1.1301  0.0521 -0.3845
15301TIP3   OH267317   3.515   4.940   3.178  0.0647  0.3757  0.7601
15301TIP3    H167318   3.553   5.022   3.209 -0.5488 -0.2924  3.5798
15301TIP3    H267319   3.441   4.925   3.236  0.7063 -2.6202  0.9583
15302TIP3   OH267320   4.031   3.903   3.451  0.1130  0.5497 -0.7336
15302TIP3    H167321   3.999   3.933   3.366 -1.2015 -0.7607 -0.7196
15302TIP3    H267322   3.971   3.943   3.514  0.0472  0.1299 -0.5336
15303TIP3   OH267323   0.655   4.918  16.745  0.4511  0.3181 -0.2962
15303TIP3    H167324   0.677   4.850  16.682 -2.1051 -0.6061 -0.3055
15303TIP3    H267325   0.578   4.885  16.791  0.1990  2.4301  0.9715
15304TIP3   OH267326   1.422   2.326   6.459 -0.1722  0.1048  0.3593
15304TIP3    H167327   1.395   2.234   6.466  0.8328 -0.2020  0.4889
15304TIP3    H267328   1.352   2.375   6.500 -1.1686 -0.5259 -0.5188
15305TIP3   OH267329   1.320   6.633  16.912  0.0456  0.0226 -0.3754
15305TIP3    H167330   1.375   6.677  16.977 -0.2310  0.2920 -0.3193
15305TIP3    H267331   1.336   6.680  16.831 -1.4456  1.2919  0.0066
15306TIP3   OH267332   5.660   5.444  14.554 -0.0398 -0.2908  0.1883
15306TIP3    H167333   5.736   5.498  14.532  0.9825 -1.2740  1.1934
15306TIP3    H267334   5.693   5.380  14.617 -1.7029 -0.7652  0.6287
15307TIP3   OH267335   1.058   3.255  17.092  0.5170 -0.6070 -0.7577
15307TIP3    H167336   1.079   3.301  17.011  0.0157  0.9257 -0.0452
15307TIP3    H267337   1.130   3.193  17.103  1.7034  0.6135 -1.2897
15308TIP3   OH267338   4.585   6.591  10.801  0.5948 -0.1547  0.2996
15308TIP3    H167339   4.586   6.501  10.769 -0.1757 -0.3864  0.8911
15308TIP3    H267340   4.546   6.585  10.888  1.6183  0.6055  0.8239
15309TIP3   OH267341   1.999   6.516  16.559  0.4025 -0.1067  0.2128
15309TIP3    H167342   1.962   6.428  16.560  0.3761 -0.0930  0.4994
15309TIP3    H267343   1.999   6.544  16.651 -1.0024  0.7920 -0.0394
15310TIP3   OH267344   3.125   0.126  12.190 -0.0163  0.3380 -0.6252
15310TIP3    H167345   3.151   0.059  12.128  1.4649  2.4873 -2.5123
15310TIP3    H267346   3.038   0.100  12.220  0.0889 -1.8289 -2.0285
15311TIP3   OH267347   2.294   1.045   2.145  0.1560 -0.1290 -1.0464
15311TIP3    H167348   2.211   1.052   2.191  1.5791  0.0496  1.6604
15311TIP3    H267349   2.287   0.964   2.094 -0.7930 -1.4677  1.0797
15312TIP3   OH267350   0.389   4.203  12.307 -0.6872 -0.5438 -0.3264
15312TIP3    H167351   0.450   4.274  12.288 -0.5986 -0.6133 -0.3047
15312TIP3    H267352   0.433   4.124  12.274 -1.2899 -0.4411 -1.4083
15313TIP3   OH267353   3.798   5.123   4.309  0.1012  0.0757 -0.0551
15313TIP3    H167354   3.892   5.123   4.288  0.0843 -1.6137 -0.2196
15313TIP3    H267355   3.773   5.216   4.304  1.4985  0.4298 -1.1701
15314TIP3   OH267356   2.165   0.477  12.700  0.1488  0.5076 -0.3028
15314TIP3    H167357   2.212   0.454  12.620  3.2101 -0.4221  1.6287
15314TIP3    H267358   2.179   0.571  12.710 -0.9532  0.8043 -1.1830
15315TIP3   OH267359   0.611   0.279   4.204  0.9152  0.0730  0.3692
15315TIP3    H167360   0.700   0.312   4.196  1.2610 -1.0288 -0.5358
15315TIP3    H267361   0.604   0.211   4.137  0.2189 -1.6192  2.0589
15316TIP3   OH267362   5.784   4.842   0.507  0.0206  0.7255 -0.1333
15316TIP3    H167363   5.715   4.854   0.573 -0.6545 -1.8389 -0.2590
15316TIP3    H267364   5.865   4.847   0.557 -0.4104  0.4386  0.6208
15317TIP3   OH267365   3.801   3.801   0.750 -0.3807 -0.4671 -0.3075
15317TIP3    H167366   3.861   3.869   0.778 -1.5920  0.6335 -0.3067
15317TIP3    H267367   3.764   3.833   0.668 -0.7839 -1.2304 -0.4337
15318TIP3   OH267368   3.987   6.556  11.734 -0.2450  0.1998  0.2646
15318TIP3    H167369   3.906   6.515  11.764 -1.0869  1.9130  0.5001
15318TIP3    H267370   4.023   6.598  11.813  0.6323 -0.1565  0.0628
15319TIP3   OH267371   2.874   4.468  17.176  0.0464  0.1006 -0.2755
15319TIP3    H167372   2.874   4.382  17.218 -0.2373 -0.1129 -0.7058
15319TIP3    H267373   2.782   4.494  17.175  0.0788  0.2110 -0.5343
15320TIP3   OH267374   1.632   6.149   5.616 -0.2561 -0.3459 -0.8647
15320TIP3    H167375   1.631   6.176   5.708  0.5813 -0.9696 -0.6643
15320TIP3    H267376   1.686   6.070   5.614  0.7860  0.3529 -2.0755
15321TIP3   OH267377   6.724   1.522   1.227 -0.4157  0.1373  0.1614
15321TIP3    H167378   6.741   1.602   1.277 -0.2963  0.2224 -0.0152
15321TIP3    H267379   6.810   1.488   1.206 -0.4489  0.5740 -0.7381
15322TIP3   OH267380   2.721   6.064  15.238  0.5750 -0.0131  0.3554
15322TIP3    H167381   2.664   6.056  15.314  0.4289 -0.6616  0.1774
15322TIP3    H267382   2.783   5.991  15.245  0.7479  0.0942  0.0093
15323TIP3   OH267383   3.989   6.545   2.447 -0.1575  0.0977 -0.0499
15323TIP3    H167384   3.911   6.490   2.432  0.0538  0.0905 -1.2021
15323TIP3    H267385   4.047   6.489   2.498 -0.8094  0.0241  0.6381
15324TIP3   OH267386   2.170   3.833  13.940  0.2719 -0.0376  0.0796
15324TIP3    H167387   2.199   3.745  13.963  0.4470  0.4888  2.0207
15324TIP3    H267388   2.250   3.882  13.922  0.2423  0.0099  0.0734
15325TIP3   OH267389   2.520   0.434   0.878 -0.0981  0.4981  0.0035
15325TIP3    H167390   2.431   0.468   0.875 -0.0128  0.6506 -1.5891
15325TIP3    H267391   2.556   0.466   0.961 -0.8730  2.0874 -0.2536
15326TIP3   OH267392   6.200   4.196  14.519  0.2872  0.0954 -0.1163
15326TIP3    H167393   6.268   4.259  14.542  0.8307  0.6428 -2.8517
15326TIP3    H267394   6.126   4.218  14.575  2.1242 -0.1663  2.5621
15327TIP3   OH267395   0.478   3.822  13.712  0.1692 -0.6070  0.4141
15327TIP3    H167396   0.559   3.795  13.669  0.4471  0.7100  0.0356
15327TIP3    H267397   0.478   3.776  13.795  2.2838  0.7632  1.2598
15328TIP3   OH267398   5.451   5.698  15.876  0.7386 -0.0848  0.3665
15328TIP3    H167399   5.380   5.643  15.909 -1.1203  2.9048  1.7543
15328TIP3    H267400   5.434   5.706  15.782  0.2065 -0.6837  0.4094
15329TIP3   OH267401   2.037   3.650   5.028 -0.0387 -0.4182  0.5484
15329TIP3    H167402   2.013   3.693   4.946  1.6086 -1.3497 -0.5006
15329TIP3    H267403   1.996   3.563   5.023  0.1371 -0.5089  0.6579
15330TIP3   OH267404   5.839   1.951  16.203 -0.9456  0.4223 -0.2642
15330TIP3    H167405   5.863   1.863  16.231 -1.1685  0.7159  0.8886
15330TIP3    H267406   5.837   2.003  16.283 -1.2783  1.3740 -0.8657
15331TIP3   OH267407   2.646   5.189  12.791  0.3323  0.4615 -0.2209
15331TIP3    H167408   2.617   5.280  12.787  2.3180  1.1988  0.8620
15331TIP3    H267409   2.594   5.150  12.861  1.3691  1.5500  1.2073
15332TIP3   OH267410   0.075   4.735   6.354  0.6052 -0.2913  0.7131
15332TIP3    H167411   0.005   4.798   6.339  2.2693  0.9904 -2.6707
15332TIP3    H267412   0.123   4.771   6.429  1.1295  2.2262 -0.7317
15333TIP3   OH267413   3.485   3.529   2.513 -0.0712 -0.6888 -0.0520
15333TIP3    H167414   3.389   3.528   2.510 -0.0970  0.6363 -0.0551
15333TIP3    H267415   3.510   3.609   2.468  1.1616 -2.1989 -2.2737
15334TIP3   OH267416   5.027   2.202  14.484 -0.1875 -0.4803  0.1498
15334TIP3    H167417   5.026   2.156  14.400 -1.7982  0.6686 -0.4955
15334TIP3    H267418   5.115   2.240  14.489 -0.5168  0.6725 -1.7353
15335TIP3   OH267419   6.393   1.726  15.442  0.3113  0.0489 -0.2503
15335TIP3    H167420   6.461   1.669  15.479 -0.4434 -1.3757 -0.9882
15335TIP3    H267421   6.353   1.673  15.373 -0.6250  1.3844 -0.7568
15336TIP3   OH267422   3.588   6.145   0.046  0.7228 -0.9632 -0.3737
15336TIP3    H167423   3.584   6.149  -0.049 -0.4974 -0.3072 -0.3205
15336TIP3    H267424   3.662   6.201   0.069  0.3296 -0.2101 -0.8999
15337TIP3   OH267425   3.090   2.104  16.454 -0.0439  0.0315 -0.2334
15337TIP3    H167426   3.058   2.194  16.461  1.6086  0.5397  1.5733
15337TIP3    H267427   3.024   2.051  16.499 -1.0258  0.3062 -1.3140
15338TIP3   OH267428   0.258   5.001   0.213  0.1604  0.2726  0.3358
15338TIP3    H167429   0.217   5.052   0.143 -1.0546 -0.3315  0.5762
15338TIP3    H267430   0.185   4.976   0.270  0.4191 -3.0101 -0.5949
15339TIP3   OH267431   5.795   6.459   2.190  0.5423 -0.1142 -0.2045
15339TIP3    H167432   5.764   6.393   2.128  0.7831 -1.5815  1.1585
15339TIP3    H267433   5.755   6.434   2.274  0.6369  1.4927  0.3485
15340TIP3   OH267434   0.146   0.717   1.873 -0.3601 -0.4784  0.4418
15340TIP3    H167435   0.089   0.685   1.804 -0.5329 -0.4263  0.5587
15340TIP3    H267436   0.089   0.771   1.928 -0.1925 -0.4033  0.5438
15341TIP3   OH267437   6.561   5.244  13.250  0.0327  0.4383  0.2217
15341TIP3    H167438   6.489   5.306  13.253 -0.1229  0.2248  1.1946
15341TIP3    H267439   6.636   5.292  13.286 -0.1955 -0.0592  1.3973
15342TIP3   OH267440   1.223   0.487   3.966  0.2946  0.0171  0.0133
15342TIP3    H167441   1.250   0.559   3.910 -0.4347 -0.4352 -0.9671
15342TIP3    H267442   1.287   0.418   3.950  0.2996  0.0184  0.0275
15343TIP3   OH267443   5.328   4.415   3.255 -0.0497  0.3898 -0.4568
15343TIP3    H167444   5.258   4.460   3.303 -0.3929  2.0827 -2.3929
15343TIP3    H267445   5.400   4.408   3.318 -0.5083  2.3861  0.3897
15344TIP3   OH267446   5.000   6.385   4.412  0.2000  0.6371  0.5643
15344TIP3    H167447   4.954   6.336   4.479 -0.6365  0.6980  0.0530
15344TIP3    H267448   5.087   6.344   4.407 -0.0722 -0.0064  0.9774
15345TIP3   OH267449   4.830   1.313  16.838  0.1573  0.0557  0.2734
15345TIP3    H167450   4.813   1.219  16.850  0.4412  0.1506  1.5158
15345TIP3    H267451   4.745   1.349  16.812 -0.2747 -0.3384  1.1011
15346TIP3   OH267452   5.004   5.071  11.539 -0.0957 -0.2527  0.7264
15346TIP3    H167453   5.066   5.008  11.575  0.0736 -1.9529 -2.1901
15346TIP3    H267454   5.055   5.121  11.475 -0.3218  2.7471  2.6791
15347TIP3   OH267455   4.693   0.050   1.344  0.6849  0.7480 -0.3596
15347TIP3    H167456   4.747  -0.023   1.375  1.7641  0.8780 -1.8333
15347TIP3    H267457   4.627   0.008   1.289  0.4101  0.7542 -0.0348
15348TIP3   OH267458   0.141   6.507   2.991  0.2435  0.0544 -0.3272
15348TIP3    H167459   0.163   6.478   3.079 -1.1305 -0.4724 -0.1491
15348TIP3    H267460   0.155   6.430   2.936  1.2091  0.4121 -0.6137
15349TIP3   OH267461   3.732   3.020   4.218  0.9381 -0.7811  0.0082
15349TIP3    H167462   3.712   2.930   4.246  0.0653 -0.6651 -0.2261
15349TIP3    H267463   3.727   3.017   4.122 -0.6815 -0.1370  0.0459
15350TIP3   OH267464   5.573   3.265  11.625 -0.1006 -0.3148 -0.3229
15350TIP3    H167465   5.493   3.245  11.673  0.4563 -0.3304  0.6128
15350TIP3    H267466   5.574   3.202  11.553  0.4584 -2.1743  1.2443
15351TIP3   OH267467   1.636   6.280   3.334 -0.4112  0.3855 -0.4499
15351TIP3    H167468   1.550   6.240   3.350 -1.1443  2.1768  0.2764
15351TIP3    H267469   1.618   6.352   3.274  0.0229  2.6830  1.9981
15352TIP3   OH267470   4.804   0.162  12.022  0.3537  0.1934  0.0375
15352TIP3    H167471   4.856   0.083  12.034 -0.6937 -0.4314  0.6768
15352TIP3    H267472   4.734   0.154  12.087  0.2205  1.6459  0.1049
15353TIP3   OH267473   2.409   5.103   5.261  0.2752 -0.3188 -1.0911
15353TIP3    H167474   2.406   5.150   5.178  1.1531  0.3352 -0.7613
15353TIP3    H267475   2.334   5.043   5.257  0.9527 -1.1274 -2.8466
15354TIP3   OH267476   6.502   4.268  14.992  0.3099 -0.0395 -0.1613
15354TIP3    H167477   6.463   4.286  15.077 -2.0441 -0.3286 -1.1135
15354TIP3    H267478   6.594   4.251  15.011 -0.4307 -1.5996  2.5283
15355TIP3   OH267479   4.543   1.029  15.992  0.2539  0.5708 -0.2779
15355TIP3    H167480   4.490   1.102  16.025 -2.7640 -1.8209  0.6270
15355TIP3    H267481   4.604   1.010  16.064  1.8099  2.6759 -0.9137
15356TIP3   OH267482   5.410   0.101  14.860  0.0303 -0.2065 -0.2027
15356TIP3    H167483   5.327   0.125  14.899  1.6482  2.7841  1.8386
15356TIP3    H267484   5.426   0.011  14.889 -0.8118  0.4497  2.5328
15357TIP3   OH267485   0.628   4.002  14.651  0.5670  0.0750  0.0690
15357TIP3    H167486   0.711   3.985  14.607 -0.0148 -1.5678 -0.4858
15357TIP3    H267487   0.614   3.924  14.705 -0.8494  0.0955 -0.2381
15358TIP3   OH267488   2.194   4.542  15.348 -0.3968  0.3172  0.8056
15358TIP3    H167489   2.133   4.501  15.409 -2.5291  0.1958 -1.2921
15358TIP3    H267490   2.174   4.636  15.354 -0.4716  0.3238  0.4359
15359TIP3   OH267491   4.743   5.688  10.591 -0.0517 -0.2972  0.0329
15359TIP3    H167492   4.719   5.596  10.583  1.4140 -0.9811  2.3358
15359TIP3    H267493   4.725   5.726  10.505 -4.4233 -1.7523  0.0996
15360TIP3   OH267494   5.654   5.460   1.260  0.2810  1.2568 -0.2989
15360TIP3    H167495   5.631   5.507   1.340  2.3472  0.9630  0.5331
15360TIP3    H267496   5.584   5.396   1.249 -0.1243  1.3917  1.2302
15361TIP3   OH267497   1.837   5.764  12.050 -0.4279  0.2583  0.6602
15361TIP3    H167498   1.924   5.764  12.089 -0.5284  1.2493  0.9116
15361TIP3    H267499   1.779   5.739  12.122 -0.4046  0.0492  0.6082
15362TIP3   OH267500   5.569   0.074   5.542  1.1212 -0.1366  0.3950
15362TIP3    H167501   5.566   0.003   5.606 -0.8841 -0.4739 -0.0201
15362TIP3    H267502   5.641   0.050   5.483  0.7568 -1.6171  0.5079
15363TIP3   OH267503   5.353   3.651  15.946 -0.0075 -0.3524 -0.4148
15363TIP3    H167504   5.324   3.735  15.911 -0.1520 -0.7658 -1.3088
15363TIP3    H267505   5.363   3.667  16.040 -1.0031  0.3864 -0.4148
15364TIP3   OH267506   4.662   3.561  13.834 -0.3389  0.1242  0.1173
15364TIP3    H167507   4.640   3.632  13.774  0.1178  1.2570  1.2418
15364TIP3    H267508   4.718   3.502  13.783 -0.9028  0.4451 -0.8973
15365TIP3   OH267509   1.013   1.888  14.038  0.0967  0.2018 -0.3964
15365TIP3    H167510   1.091   1.922  13.994 -0.1210  0.0025 -0.9351
15365TIP3    H267511   1.042   1.805  14.077  0.2792  0.3646 -0.1726
15366TIP3   OH267512   2.114   4.897  11.392 -0.4135 -0.7238  0.3145
15366TIP3    H167513   2.064   4.866  11.468 -0.6839 -0.5051  0.2284
15366TIP3    H267514   2.056   4.959  11.349 -0.1093 -0.5540  0.1446
15367TIP3   OH267515   2.189   2.731   3.077  0.0548  0.3624 -0.0563
15367TIP3    H167516   2.097   2.755   3.071  0.3545  1.3611 -0.8110
15367TIP3    H267517   2.236   2.804   3.038  1.2181  0.1781  0.9460
15368TIP3   OH267518   2.875   5.561  13.929 -0.1728  0.2147  0.1519
15368TIP3    H167519   2.854   5.514  14.010 -1.2859 -0.1265 -0.3187
15368TIP3    H267520   2.933   5.632  13.957 -2.2023  1.4230  1.6100
15369TIP3   OH267521   0.450   0.245   0.711 -0.4084  0.1369 -0.3591
15369TIP3    H167522   0.375   0.300   0.689 -1.3926 -1.2508 -0.6146
15369TIP3    H267523   0.412   0.164   0.745  0.9678 -0.6564 -0.6175
15370TIP3   OH267524   1.135   5.584  13.840 -0.0914 -0.1447  0.2618
15370TIP3    H167525   1.167   5.494  13.847 -0.7252 -0.4561 -0.5767
15370TIP3    H267526   1.194   5.635  13.895  1.7871 -0.6892 -1.1459
15371TIP3   OH267527   0.301   4.181   2.248  0.0673  0.5176 -0.2538
15371TIP3    H167528   0.244   4.136   2.309  0.1854  0.9809  0.2017
15371TIP3    H267529   0.292   4.274   2.270 -0.6238  0.7867 -1.5625
15372TIP3   OH267530   6.163   1.185  13.756  0.0487 -1.1255 -0.4457
15372TIP3    H167531   6.087   1.153  13.805 -0.2613 -2.4565 -1.7082
15372TIP3    H267532   6.177   1.118  13.690  2.1172 -0.7152 -0.4676
15373TIP3   OH267533   3.895   6.216  16.871 -0.8176  0.0565  0.1031
15373TIP3    H167534   3.870   6.286  16.810  1.8711  0.0959 -1.0871
15373TIP3    H267535   3.975   6.248  16.913 -0.6564 -1.4822  1.0343
15374TIP3   OH267536   2.105   0.468  15.624 -0.1138 -0.1329  0.1665
15374TIP3    H167537   2.015   0.439  15.637 -0.5925 -0.5294 -3.2634
15374TIP3    H267538   2.098   0.539  15.560  1.8978  1.0499  1.1622
15375TIP3   OH267539   5.811   1.327   5.826  0.4296  0.5234  0.0715
15375TIP3    H167540   5.774   1.334   5.738  0.9824  0.3307 -0.1836
15375TIP3    H267541   5.749   1.272   5.874  0.4363  0.1213 -0.3743
15376TIP3   OH267542   2.885   0.436   2.101 -0.4527 -0.0361 -0.0002
15376TIP3    H167543   2.849   0.365   2.154 -2.3558 -0.4947 -1.8049
15376TIP3    H267544   2.979   0.435   2.121 -0.5757 -2.3906  0.7864
15377TIP3   OH267545   5.532   1.465   5.373 -0.0103  0.3323 -0.7907
15377TIP3    H167546   5.590   1.479   5.448 -0.7366  0.4215 -0.2296
15377TIP3    H267547   5.575   1.510   5.301 -0.4367  2.3180  0.1202
15378TIP3   OH267548   5.935   1.754  11.570  0.1425 -0.0624 -0.5954
15378TIP3    H167549   5.994   1.716  11.504  0.5768 -1.6926  0.6687
15378TIP3    H267550   5.993   1.800  11.631 -0.0230 -0.4932 -0.1098
15379TIP3   OH267551   6.521   0.790   0.439  0.0882  0.1885 -0.0467
15379TIP3    H167552   6.447   0.749   0.394 -0.4417  1.3760 -0.3145
15379TIP3    H267553   6.503   0.776   0.532 -0.1077 -0.1334 -0.1299
15380TIP3   OH267554   5.986   2.767  14.736 -0.4062 -0.3521 -0.5607
15380TIP3    H167555   6.030   2.701  14.684  0.1006 -0.5794  0.1378
15380TIP3    H267556   5.903   2.726  14.763  1.2207 -2.0143  2.5097
15381TIP3   OH267557   5.184   2.903   3.238  0.2212  0.2802  0.4223
15381TIP3    H167558   5.224   2.987   3.262  1.6492 -1.0292  3.1001
15381TIP3    H267559   5.258   2.847   3.215 -0.8164  0.1506 -3.2423
15382TIP3   OH267560   1.785   3.500  11.232 -0.5967 -0.1395  0.1842
15382TIP3    H167561   1.751   3.556  11.303 -1.1324 -1.3380  0.9082
15382TIP3    H267562   1.848   3.442  11.275  0.0619 -0.0109 -0.5827
15383TIP3   OH267563   4.129   2.180   1.671 -0.5306  0.3529  0.0596
15383TIP3    H167564   4.138   2.086   1.690 -1.1142  0.2614 -0.1180
15383TIP3    H267565   4.067   2.212   1.737 -0.3954  0.6019  0.0678
15384TIP3   OH267566   5.485   1.942  13.213 -0.6882  0.0010 -0.3437
15384TIP3    H167567   5.409   1.996  13.190 -0.6306 -0.3909 -1.5231
15384TIP3    H267568   5.483   1.937  13.308 -1.7620  0.5445 -0.3248
15385TIP3   OH267569   0.832   3.873   0.236 -0.9022  0.3241 -0.5400
15385TIP3    H167570   0.766   3.827   0.288  0.2064 -1.3680 -0.5747
15385TIP3    H267571   0.828   3.833   0.149 -0.4121  0.8039 -0.7982
15386TIP3   OH267572   4.529   5.531  15.434  0.0898 -0.3897  0.4035
15386TIP3    H167573   4.608   5.479  15.418  0.9232  0.6114  1.1139
15386TIP3    H267574   4.534   5.602  15.370  0.8869  0.8508  1.7665
15387TIP3   OH267575   2.039   6.443  14.994 -0.0266 -0.0359 -0.2197
15387TIP3    H167576   2.050   6.375  15.060 -0.8115 -1.1543 -1.1764
15387TIP3    H267577   2.023   6.523  15.043  0.5488 -0.6118  0.9388
15388TIP3   OH267578   5.688   6.399   1.088  0.1896 -0.5116 -0.3975
15388TIP3    H167579   5.626   6.332   1.118  0.6720  0.0211  2.0165
15388TIP3    H267580   5.744   6.415   1.164  1.6753  0.8591 -1.7109
15389TIP3   OH267581   3.990   1.803  11.512 -0.0842 -0.4867  0.5042
15389TIP3    H167582   3.958   1.873  11.455  1.1962  0.0897  0.4721
15389TIP3    H267583   4.069   1.771  11.469  0.6534 -0.3531  1.7188
15390TIP3   OH267584   6.145   5.758  14.205 -0.3030  0.5900 -0.1171
15390TIP3    H167585   6.071   5.817  14.221  0.7935  2.1920 -0.8030
15390TIP3    H267586   6.186   5.748  14.291  0.4090  2.0926 -0.2637
15391TIP3   OH267587   1.736   1.847  17.037  0.0214 -0.4394  0.1049
15391TIP3    H167588   1.775   1.853  16.949 -1.3792 -0.9680 -0.5867
15391TIP3    H267589   1.689   1.763  17.036 -1.9648  0.6156  0.5135
15392TIP3   OH267590   3.526   2.284  16.185 -0.2224 -0.4668 -0.2982
15392TIP3    H167591   3.558   2.221  16.249  0.6867 -0.2795 -0.5549
15392TIP3    H267592   3.440   2.250  16.159  0.6860 -2.2152 -1.2311
15393TIP3   OH267593   1.587   5.589   3.812  0.5487  0.1167  0.3687
15393TIP3    H167594   1.579   5.525   3.883  0.7164  0.9105  1.1233
15393TIP3    H267595   1.673   5.571   3.773 -0.0634 -1.1330 -0.4646
15394TIP3   OH267596   0.530   0.011  15.082 -0.4849  0.2490 -0.4694
15394TIP3    H167597   0.595  -0.016  15.018 -0.0669  1.5583 -0.6366
15394TIP3    H267598   0.581   0.047  15.155 -0.9309  3.0897 -1.4032
15395TIP3   OH267599   5.884   6.595   4.465  0.4224  0.0671  0.3633
15395TIP3    H167600   5.893   6.565   4.556  0.8575  0.2121  0.3671
15395TIP3    H267601   5.956   6.656   4.452  0.5912 -0.2469 -0.2056
15396TIP3   OH267602   2.692   3.281  16.563 -0.1374 -0.2109  0.3190
15396TIP3    H167603   2.675   3.225  16.487  0.7249 -1.2871  0.8745
15396TIP3    H267604   2.788   3.284  16.569 -0.1907 -0.1774  1.3803
15397TIP3   OH267605   4.546   6.635   6.276 -0.0246  0.4202  0.2876
15397TIP3    H167606   4.495   6.716   6.289 -1.5247 -0.4613  0.0933
15397TIP3    H267607   4.608   6.657   6.206 -1.6073  0.9049 -1.0366
15398TIP3   OH267608   3.900   4.940   0.627  0.4219  0.7216  0.6496
15398TIP3    H167609   3.819   4.889   0.623  0.6524  0.4358 -1.2963
15398TIP3    H267610   3.923   4.955   0.535  2.5593  0.8173  1.1608
15399TIP3   OH267611   2.444   0.211   4.533 -0.2120  0.1567 -0.2460
15399TIP3    H167612   2.431   0.117   4.549 -0.5601  0.6207  2.6685
15399TIP3    H267613   2.366   0.237   4.484 -0.6285 -0.8673 -0.1594
15400TIP3   OH267614   6.347   0.068  13.171  0.1414 -0.4488 -0.0862
15400TIP3    H167615   6.257   0.036  13.181  0.3954 -0.6790  1.9630
15400TIP3    H267616   6.368   0.052  13.079 -2.5775  1.5110 -1.1813
15401TIP3   OH267617   1.744   1.442   2.917 -0.2573 -0.0948  0.2149
15401TIP3    H167618   1.692   1.484   2.986 -0.0189  2.3658 -1.0145
15401TIP3    H267619   1.743   1.504   2.844  1.4251 -1.5819 -1.1833
15402TIP3   OH267620   2.486   3.974   2.714  0.2667  0.3234  0.3001
15402TIP3    H167621   2.536   4.042   2.760  1.6019 -0.9595  0.8236
15402TIP3    H267622   2.437   4.022   2.647 -0.5394  2.0618  2.0289
15403TIP3   OH267623   0.118   0.314  13.700 -0.3520  0.0085  0.0590
15403TIP3    H167624   0.142   0.302  13.792  1.0264  1.0584 -0.1400
15403TIP3    H267625   0.199   0.302  13.652 -0.6840  1.3244 -0.8602
15404TIP3   OH267626   3.872   6.299   1.902 -0.2921  0.0358 -0.4962
15404TIP3    H167627   3.893   6.206   1.900  2.0922  0.5041 -1.1249
15404TIP3    H267628   3.884   6.329   1.812 -0.3044  1.0750 -0.1715
15405TIP3   OH267629   0.787   5.158   5.615 -0.1734 -0.4016  0.1050
15405TIP3    H167630   0.862   5.098   5.611  0.6699  0.6257  0.2414
15405TIP3    H267631   0.789   5.205   5.532 -2.4481 -2.3981 -1.2182
15406TIP3   OH267632   2.442   3.811   4.889  0.4524 -0.2590 -0.0330
15406TIP3    H167633   2.531   3.783   4.867 -0.0968 -2.3232  0.1125
15406TIP3    H267634   2.400   3.827   4.805  0.1898 -2.0326 -0.2885
15407TIP3   OH267635   4.485   6.026  13.396 -0.0039 -0.8814  0.4702
15407TIP3    H167636   4.407   5.990  13.438  0.2476  0.0820  1.8495
15407TIP3    H267637   4.453   6.061  13.313 -1.4797  1.0921  1.7608
15408TIP3   OH267638   3.440   6.273  12.544  0.2858 -0.3206  0.5552
15408TIP3    H167639   3.441   6.304  12.634  0.8706 -0.6147  0.6528
15408TIP3    H267640   3.503   6.329  12.499 -1.0079  0.7471  0.0084
15409TIP3   OH267641   4.540   2.162  16.850 -0.2639  0.4123 -0.3807
15409TIP3    H167642   4.586   2.092  16.803  1.1055  2.2797 -2.0136
15409TIP3    H267643   4.448   2.136  16.848  0.0248 -0.6581 -2.2462
15410TIP3   OH267644   0.894   3.747   0.552 -0.3244  0.4712  0.1261
15410TIP3    H167645   0.801   3.752   0.530 -0.6121  0.2656  1.2525
15410TIP3    H267646   0.924   3.838   0.547  0.0765  0.2775 -2.8217
15411TIP3   OH267647   4.269   2.238  12.292  0.5362 -0.5689  0.2684
15411TIP3    H167648   4.361   2.228  12.316  0.8118  1.4404  0.1768
15411TIP3    H267649   4.244   2.152  12.258  2.6327 -0.9053 -0.5630
15412TIP3   OH267650   2.014   5.234  12.032 -0.1585 -0.1759  0.1617
15412TIP3    H167651   1.939   5.270  12.078 -2.1689 -1.8244 -1.6000
15412TIP3    H267652   1.980   5.209  11.946  2.5892 -0.3606 -0.9859
15413TIP3   OH267653   5.536   5.913  14.458  0.4346 -0.1773 -0.4433
15413TIP3    H167654   5.581   5.853  14.518 -1.9116 -1.4253  0.1659
15413TIP3    H267655   5.487   5.972  14.516 -0.1647 -0.0302 -1.0963
15414TIP3   OH267656   5.570   6.564  13.376 -0.1722  0.6657  0.7303
15414TIP3    H167657   5.634   6.550  13.306  0.4230  2.3684  0.8735
15414TIP3    H267658   5.623   6.584  13.454 -0.8543  0.9836  1.1265
15415TIP3   OH267659   3.893   1.768  15.506 -0.4902 -0.0355  0.0466
15415TIP3    H167660   3.874   1.818  15.427 -0.1498 -0.2523 -0.1720
15415TIP3    H267661   3.922   1.834  15.569 -2.3351  0.3722  0.5302
15416TIP3   OH267662   2.060   3.146   1.774 -0.0180  0.1827 -0.3066
15416TIP3    H167663   2.111   3.132   1.854 -0.0743 -0.1937 -0.3344
15416TIP3    H267664   2.126   3.147   1.704 -0.1022 -1.1625 -0.4443
15417TIP3   OH267665   2.487   4.905  11.793 -0.2172 -0.3295 -0.1829
15417TIP3    H167666   2.498   4.889  11.699 -0.2919  1.0909 -0.4469
15417TIP3    H267667   2.575   4.892  11.830 -0.3528 -1.7688 -0.2767
15418TIP3   OH267668   1.109   2.110  15.628  0.5424  0.1513 -0.7887
15418TIP3    H167669   1.031   2.087  15.578  0.1405  0.6745 -0.4112
15418TIP3    H267670   1.076   2.164  15.700  0.8973 -1.6821  0.8547
15419TIP3   OH267671   2.975   4.924   1.483 -0.5166  0.1380  0.5139
15419TIP3    H167672   3.039   4.873   1.533 -0.3899 -2.3495 -1.9152
15419TIP3    H267673   2.898   4.867   1.478 -1.5017  1.4477  0.1208
15420TIP3   OH267674   1.281   0.773   5.167 -0.2140 -0.5105 -0.1244
15420TIP3    H167675   1.372   0.757   5.144 -0.2102 -0.3732 -0.2085
15420TIP3    H267676   1.234   0.698   5.131 -0.5539  0.8779 -2.8651
15421TIP3   OH267677   1.496   6.394  12.462  0.4079  0.1515 -0.4051
15421TIP3    H167678   1.487   6.489  12.471  0.1414  0.0958 -0.0327
15421TIP3    H267679   1.528   6.381  12.373  1.2612  0.6381 -0.1818
15422TIP3   OH267680   5.434   5.288  16.476 -0.1015 -0.2254  0.3495
15422TIP3    H167681   5.435   5.377  16.510 -2.5102 -0.4642  1.2503
15422TIP3    H267682   5.361   5.245  16.522  1.0754 -2.7332  0.0928
15423TIP3   OH267683   2.585   0.873  13.652  0.4094  0.1619 -0.2113
15423TIP3    H167684   2.494   0.851  13.633  0.2961  0.1911  0.3010
15423TIP3    H267685   2.583   0.919  13.736  0.9455 -0.2525  0.0393
15424TIP3   OH267686   0.205   0.512  14.838 -0.1395  0.1666 -0.6323
15424TIP3    H167687   0.155   0.433  14.817  0.0230 -0.0042 -0.3891
15424TIP3    H267688   0.289   0.479  14.870 -0.0904  0.4364 -0.4780
15425TIP3   OH267689   2.596   3.079   4.909 -0.2962  0.2804 -0.5824
15425TIP3    H167690   2.676   3.083   4.962 -0.7797  1.0102  0.1393
15425TIP3    H267691   2.542   3.151   4.943  0.2051  2.2128 -3.4604
15426TIP3   OH267692   5.241   3.926   3.519 -0.2995  0.0435  0.4877
15426TIP3    H167693   5.284   3.889   3.442 -0.0246 -1.6401  1.4234
15426TIP3    H267694   5.149   3.932   3.494 -0.0948  0.2825 -0.2446
15427TIP3   OH267695   4.589   1.086   1.580 -0.9244 -0.2727 -0.0286
15427TIP3    H167696   4.606   1.145   1.506 -0.2541 -1.9127 -1.2297
15427TIP3    H267697   4.495   1.066   1.573 -1.1320  0.5100  0.3156
15428TIP3   OH267698   4.816   4.870  11.692  0.0137  0.2952 -0.1062
15428TIP3    H167699   4.860   4.907  11.616  0.7712  0.5301  0.4417
15428TIP3    H267700   4.860   4.909  11.768 -0.7280  0.0648  0.4579
15429TIP3   OH267701   2.592   2.165  11.971 -0.4477 -0.0617 -0.7485
15429TIP3    H167702   2.567   2.174  12.063 -1.3130  2.9049 -1.1827
15429TIP3    H267703   2.670   2.219  11.962 -1.2770  0.9668 -2.0437
15430TIP3   OH267704   5.744   0.621  16.767  0.2171 -0.3770  0.0601
15430TIP3    H167705   5.762   0.714  16.756 -1.4052 -0.3202 -3.3540
15430TIP3    H267706   5.824   0.577  16.737 -0.3386 -0.0426 -2.0561
15431TIP3   OH267707   5.324   0.173  12.998  0.4333 -0.2207  0.1008
15431TIP3    H167708   5.247   0.143  12.951  0.1257 -0.0270  0.4794
15431TIP3    H267709   5.290   0.221  13.074  0.9152  0.4986 -0.1239
15432TIP3   OH267710   0.794   3.153  13.119 -0.0236  0.1402  0.2521
15432TIP3    H167711   0.810   3.060  13.134  0.3477  0.2754  0.7135
15432TIP3    H267712   0.706   3.157  13.079 -0.0024 -0.4082  0.1520
15433TIP3   OH267713   2.326   2.401   1.493 -0.5405 -0.4781  0.6158
15433TIP3    H167714   2.240   2.423   1.529  0.0342  0.4988  1.4294
15433TIP3    H267715   2.378   2.480   1.505  0.5234 -1.1099  0.2656
15434TIP3   OH267716   1.275   3.266  15.352 -0.1093  0.8883 -0.2498
15434TIP3    H167717   1.299   3.251  15.443 -1.5296  2.7289  0.4898
15434TIP3    H267718   1.339   3.330  15.321  0.0632  0.6421 -0.4117
15435TIP3   OH267719   0.511   5.316  12.078  0.1141 -0.7073  0.1353
15435TIP3    H167720   0.518   5.303  11.983  1.5239  1.0885 -0.0629
15435TIP3    H267721   0.482   5.406  12.087  0.7606 -0.6138  1.4241
15436TIP3   OH267722   4.678   5.972  13.073  0.1688  0.7247  0.2871
15436TIP3    H167723   4.728   5.926  13.006  1.0477  0.9255  0.7764
15436TIP3    H267724   4.603   5.916  13.091  0.9007 -0.2294  0.4342
15437TIP3   OH267725   5.817   1.304  13.363  0.5981  0.0009 -0.0802
15437TIP3    H167726   5.834   1.393  13.391  0.5404 -0.6891  2.3942
15437TIP3    H267727   5.794   1.257  13.443  1.0028 -2.3351 -1.2318
15438TIP3   OH267728   0.421   3.655   1.067  0.2289 -0.0883  0.3459
15438TIP3    H167729   0.473   3.608   1.132 -0.0952 -0.6549  0.1976
15438TIP3    H267730   0.333   3.618   1.075 -0.1598  0.8535  0.5870
15439TIP3   OH267731   0.567   1.828   2.948  0.4168  0.4596  0.5936
15439TIP3    H167732   0.595   1.838   2.858  1.7057  0.5378  0.9865
15439TIP3    H267733   0.575   1.916   2.986 -0.7766  0.5757  0.6196
15440TIP3   OH267734   3.503   1.895   4.141  0.0545  0.1054  0.1671
15440TIP3    H167735   3.504   1.834   4.214 -0.7530  0.8553  0.8263
15440TIP3    H267736   3.467   1.976   4.178 -0.7535  0.3737 -1.1618
15441TIP3   OH267737   3.135   2.603  10.491  0.2268 -0.4200  0.2292
15441TIP3    H167738   3.059   2.656  10.517  0.5470  0.2222 -0.1150
15441TIP3    H267739   3.192   2.664  10.444  0.8734 -0.9403  0.3175
15442TIP3   OH267740   0.328   2.395  15.451  0.2788 -0.3000 -0.1421
15442TIP3    H167741   0.259   2.378  15.515  0.5843  1.0568  0.5871
15442TIP3    H267742   0.282   2.436  15.377  0.1799 -0.1940 -0.0218
15443TIP3   OH267743   1.155   6.366   0.864 -0.1066 -0.0424  0.3441
15443TIP3    H167744   1.121   6.318   0.939  1.5473 -1.5106  0.2521
15443TIP3    H267745   1.145   6.305   0.790 -1.2347  1.1706 -0.5499
15444TIP3   OH267746   2.225   4.698   2.989  0.0540 -0.0444  0.1521
15444TIP3    H167747   2.182   4.622   3.029  1.7413 -0.0101  2.2337
15444TIP3    H267748   2.305   4.663   2.951  1.1360  0.7241  1.6429
15445TIP3   OH267749   1.620   0.298   3.453 -0.5500 -0.2708  0.1299
15445TIP3    H167750   1.597   0.341   3.536  1.1490  0.9669  0.0052
15445TIP3    H267751   1.691   0.238   3.476  0.7150  0.9124 -0.5975
15446TIP3   OH267752   1.045   1.194  11.362  0.0517 -0.1612  0.3680
15446TIP3    H167753   1.100   1.249  11.418  0.0180  0.0523  0.1931
15446TIP3    H267754   1.105   1.127  11.329  0.1001 -0.2102  0.5588
15447TIP3   OH267755   2.777   4.828  13.529 -0.3946  0.1329  0.2076
15447TIP3    H167756   2.693   4.848  13.570 -1.3229 -3.1571  0.2002
15447TIP3    H267757   2.838   4.818  13.602 -0.6600 -0.1177  0.3938
15448TIP3   OH267758   0.344   5.562   5.821 -0.9146 -0.1161  0.0216
15448TIP3    H167759   0.399   5.493   5.785 -2.6942 -0.5176 -2.1242
15448TIP3    H267760   0.397   5.642   5.814  0.0944 -0.7851 -0.1063
15449TIP3   OH267761   5.369   5.686  14.248  0.3473 -0.5274  0.3592
15449TIP3    H167762   5.440   5.735  14.292 -0.9502  0.9982  0.8424
15449TIP3    H267763   5.290   5.736  14.267 -0.8670 -2.1023 -0.3181
15450TIP3   OH267764   6.383   0.726  11.152  0.1948  0.0513  0.1399
15450TIP3    H167765   6.424   0.764  11.074  0.4223 -1.8260 -0.7104
15450TIP3    H267766   6.303   0.685  11.119  1.1178 -2.2091  0.5380
15451TIP3   OH267767   4.328   5.914  12.729 -0.2382  0.6680 -0.3937
15451TIP3    H167768   4.358   6.004  12.740 -0.1838  0.7419 -1.0727
15451TIP3    H267769   4.323   5.879  12.818  0.1433  1.2098 -0.1515
15452TIP3   OH267770   2.825   6.089   1.841  0.7369 -0.4618 -0.3685
15452TIP3    H167771   2.912   6.053   1.824  1.2293 -0.6431  2.1745
15452TIP3    H267772   2.773   6.014   1.870 -0.3960 -0.4010 -2.0840
15453TIP3   OH267773   5.839   3.024  14.332 -0.3041  0.2040  0.0515
15453TIP3    H167774   5.862   3.108  14.372  1.2663  0.2757 -0.9419
15453TIP3    H267775   5.906   2.964  14.363  0.6627  0.1555 -2.0288
15454TIP3   OH267776   6.740   5.335   4.170 -0.0265 -0.1265  0.0428
15454TIP3    H167777   6.707   5.266   4.228 -1.2356 -0.5652 -1.1174
15454TIP3    H267778   6.718   5.416   4.215 -0.8115 -0.4600  0.2849
15455TIP3   OH267779   3.052   3.110   1.379  0.5772 -0.2457  0.4291
15455TIP3    H167780   3.111   3.036   1.367  2.3108  0.9156  1.3985
15455TIP3    H267781   3.097   3.184   1.337 -0.1421  0.6939  1.2604
15456TIP3   OH267782   6.513   3.753  14.130 -0.0868 -0.0489  0.8872
15456TIP3    H167783   6.597   3.743  14.176 -0.1794 -0.2458  1.0143
15456TIP3    H267784   6.486   3.843  14.149 -0.1371 -0.1387  1.2393
15457TIP3   OH267785   6.626   4.533  11.948  0.0301 -0.6435  0.0847
15457TIP3    H167786   6.713   4.493  11.958 -0.1779 -1.4869 -1.1514
15457TIP3    H267787   6.576   4.501  12.022  0.0064 -2.3937 -0.6385
15458TIP3   OH267788   2.801   1.251  12.943 -0.0842  0.3636 -0.5179
15458TIP3    H167789   2.800   1.336  12.899  1.4941 -0.2723 -1.9083
15458TIP3    H267790   2.721   1.250  12.994  0.8261  3.5662  1.3154
15459TIP3   OH267791   3.458   3.543   6.514 -0.2443 -0.3256 -0.0435
15459TIP3    H167792   3.442   3.449   6.515 -2.0273 -0.0807 -0.9459
15459TIP3    H267793   3.502   3.561   6.597 -0.5520 -1.8481  0.4735
15460TIP3   OH267794   4.303   1.394   2.589  0.2630 -0.1573  0.4990
15460TIP3    H167795   4.286   1.324   2.525 -0.9087 -0.1040  0.7134
15460TIP3    H267796   4.216   1.413   2.626  0.7451  0.6259  1.2593
15461TIP3   OH267797   0.524   5.959   0.027 -0.2768  0.0925  1.0427
15461TIP3    H167798   0.517   5.920  -0.060 -2.7884  1.5915  0.4444
15461TIP3    H267799   0.562   6.046   0.011  0.4676 -0.1220  1.6285
15462TIP3   OH267800   2.149   2.977  11.654  0.4544 -0.3842  0.9121
15462TIP3    H167801   2.153   2.958  11.561  1.2068  1.5692  0.5078
15462TIP3    H267802   2.134   2.891  11.695  2.1032 -1.5823 -0.8257
15463TIP3   OH267803   1.763   5.680  16.255 -0.6091  0.2172  0.5510
15463TIP3    H167804   1.852   5.648  16.270 -0.9305 -0.1425  1.8658
15463TIP3    H267805   1.747   5.739  16.329 -1.9002 -0.6995  1.0383
15464TIP3   OH267806   3.566   2.163   3.216  0.6078 -0.6045 -0.8578
15464TIP3    H167807   3.611   2.088   3.256 -1.3431 -1.2999  0.1732
15464TIP3    H267808   3.514   2.124   3.145 -1.4006 -0.5050  0.4777
15465TIP3   OH267809   1.849   6.780  13.197 -0.1884 -0.1691 -0.5557
15465TIP3    H167810   1.905   6.855  13.176  1.0961 -0.7425  0.6744
15465TIP3    H267811   1.895   6.704  13.161  0.3129 -0.7553  1.2323
15466TIP3   OH267812   6.491   5.574   1.908  0.0048  0.3647  0.2003
15466TIP3    H167813   6.487   5.564   1.813 -1.4345 -0.2042  0.2937
15466TIP3    H267814   6.513   5.666   1.921 -0.4269  0.6074 -0.6950
15467TIP3   OH267815   6.208   4.398   0.164 -0.4287 -0.3804  0.2707
15467TIP3    H167816   6.277   4.333   0.173 -0.6342 -0.5342  0.7989
15467TIP3    H267817   6.129   4.346   0.147 -0.3520 -0.1863 -0.7244
15468TIP3   OH267818   1.547   0.395   3.697  0.3479  0.0154 -0.8537
15468TIP3    H167819   1.469   0.401   3.753 -0.1425 -0.2190 -1.4950
15468TIP3    H267820   1.612   0.351   3.752  0.1788  0.6057 -0.1592
15469TIP3   OH267821   0.132   5.600  11.215 -0.1345 -0.0320 -0.1835
15469TIP3    H167822   0.043   5.578  11.188  0.1483  0.6374 -1.8041
15469TIP3    H267823   0.183   5.596  11.134  1.1813  0.2526  0.5974
15470TIP3   OH267824   6.063   4.069  10.681 -0.2084 -0.0103 -0.1248
15470TIP3    H167825   6.010   4.017  10.742 -1.1520  1.5147  0.3984
15470TIP3    H267826   6.106   4.003  10.625  1.4129 -1.5352  2.7029
15471TIP3   OH267827   2.902   1.698  13.170  0.2774 -0.6239  0.1866
15471TIP3    H167828   2.837   1.628  13.170 -1.5127  0.9628  1.1533
15471TIP3    H267829   2.910   1.723  13.078 -1.3322 -0.1176  0.1591
15472TIP3   OH267830   5.934   2.888  15.158  0.3655  0.2845 -0.3227
15472TIP3    H167831   6.019   2.844  15.158 -1.3829 -3.5345  0.3649
15472TIP3    H267832   5.912   2.899  15.066  0.2206 -1.9353 -0.6094
15473TIP3   OH267833   5.579   4.279  11.770 -0.7616  0.1566 -0.2033
15473TIP3    H167834   5.557   4.187  11.754 -0.4602  0.0736 -0.1288
15473TIP3    H267835   5.626   4.307  11.692  2.4303 -0.7798  1.2186
15474TIP3   OH267836   1.665   3.223  13.253 -0.2197 -0.1238 -0.7233
15474TIP3    H167837   1.618   3.182  13.326  1.7134  0.0453  0.6694
15474TIP3    H267838   1.634   3.175  13.175 -2.7536  0.0750  0.0512
15475TIP3   OH267839   4.322   2.899  10.546  0.2880 -0.5866 -0.0844
15475TIP3    H167840   4.289   2.870  10.631  2.8153 -0.7094  0.9455
15475TIP3    H267841   4.275   2.980  10.528  1.0274  0.4781  2.3964
15476TIP3   OH267842   1.292   6.239  14.231 -0.0971  0.5834 -0.3125
15476TIP3    H167843   1.318   6.148  14.246  1.0239  1.0603  0.8368
15476TIP3    H267844   1.197   6.239  14.241 -0.1708 -0.5580 -0.8892
15477TIP3   OH267845   2.557   5.395   5.053  0.1114  0.0026 -0.1778
15477TIP3    H167846   2.553   5.455   4.978  0.0203 -1.3659 -1.2985
15477TIP3    H267847   2.465   5.378   5.076  0.1183 -0.5440 -0.5505
15478TIP3   OH267848   1.849   2.273   5.249  0.4655 -0.0802  0.0296
15478TIP3    H167849   1.773   2.267   5.306 -0.0155 -0.0955 -0.6112
15478TIP3    H267850   1.878   2.365   5.256 -0.5218  0.3176 -0.8840
15479TIP3   OH267851   6.281   1.049  13.564  0.1480  0.6146  0.2767
15479TIP3    H167852   6.350   1.115  13.578  1.3416 -0.4664 -0.2660
15479TIP3    H267853   6.274   1.041  13.469 -1.5563  1.4973  0.2901
15480TIP3   OH267854   1.906   6.019  11.975  1.0969  0.1392 -0.4694
15480TIP3    H167855   1.877   6.070  12.051  2.0831  0.8470 -0.5428
15480TIP3    H267856   1.898   5.928  12.002  1.7122  0.3916  0.5998
15481TIP3   OH267857   5.168   0.232   2.760  0.2193  0.2846  0.0525
15481TIP3    H167858   5.131   0.273   2.838 -0.9766  2.0893 -1.3870
15481TIP3    H267859   5.208   0.304   2.711  0.8535 -0.7857 -1.0696
15482TIP3   OH267860   2.151   1.843  16.045 -0.0850  0.2962  0.6209
15482TIP3    H167861   2.080   1.836  15.982  0.8474 -3.2891 -0.2450
15482TIP3    H267862   2.189   1.930  16.030 -1.9890  0.8485 -1.3799
15483TIP3   OH267863   6.276   0.045  14.095 -0.1446 -0.3189 -0.4117
15483TIP3    H167864   6.238   0.078  14.176  1.8705  0.4886  0.2635
15483TIP3    H267865   6.306  -0.044  14.117  1.9391  0.5050  0.3092
15484TIP3   OH267866   2.770   4.396  14.061  0.0773 -0.3273  0.0408
15484TIP3    H167867   2.739   4.378  14.150  0.0929 -1.5380 -0.1768
15484TIP3    H267868   2.721   4.473  14.033 -0.8264 -0.6625  0.6646
15485TIP3   OH267869   6.525   5.843   4.387  0.0492  0.1099  0.0098
15485TIP3    H167870   6.597   5.884   4.339  0.5527  2.0260  2.1525
15485TIP3    H267871   6.568   5.792   4.456 -0.6131  0.4217  0.6751
15486TIP3   OH267872   3.596   0.740  14.398  0.2556  0.1542 -0.0963
15486TIP3    H167873   3.580   0.653  14.362 -0.0161 -0.0360  0.4807
15486TIP3    H267874   3.532   0.796  14.354  0.6628  0.1349 -0.7282
15487TIP3   OH267875   3.504   5.612  14.719  0.1464 -0.0782  0.0732
15487TIP3    H167876   3.562   5.609  14.643 -1.0127 -0.7731 -0.8092
15487TIP3    H267877   3.417   5.626  14.683 -0.1635  1.9670  1.4493
15488TIP3   OH267878   2.059   6.482  11.318  0.3912 -0.4805 -0.3317
15488TIP3    H167879   2.079   6.473  11.412 -0.0969  0.8880 -0.0735
15488TIP3    H267880   2.041   6.393  11.289 -1.1153 -0.7582  1.2784
15489TIP3   OH267881   6.027   5.751   0.386  0.7363 -0.8355 -0.7253
15489TIP3    H167882   6.070   5.815   0.329 -1.5750  2.6003  0.9794
15489TIP3    H267883   5.944   5.732   0.342  0.0790 -0.1962  0.1997
15490TIP3   OH267884   3.286   4.450   5.562 -0.0830  0.2623  0.0480
15490TIP3    H167885   3.285   4.466   5.656 -1.0963  0.3650  0.0250
15490TIP3    H267886   3.371   4.484   5.533  0.6333 -0.6068  1.0586
15491TIP3   OH267887   5.801   6.330   0.191 -0.3634  0.2526  0.3433
15491TIP3    H167888   5.763   6.337   0.278  0.6116 -0.0803  0.8146
15491TIP3    H267889   5.829   6.239   0.184  1.0668  0.6686  0.3432
15492TIP3   OH267890   5.901   1.247   1.223 -0.1758  0.8098 -0.5174
15492TIP3    H167891   5.869   1.172   1.272  0.1520  1.3054  0.4844
15492TIP3    H267892   5.856   1.242   1.139 -0.8452  0.0094 -0.1233
15493TIP3   OH267893   1.559   5.583   4.230 -0.3734  0.2152 -0.1490
15493TIP3    H167894   1.563   5.667   4.185  0.2241  1.2147  1.6575
15493TIP3    H267895   1.649   5.565   4.258 -0.3252 -1.4971 -1.2625
15494TIP3   OH267896   3.419   1.931  15.074 -0.0296 -0.4804 -0.0955
15494TIP3    H167897   3.363   1.929  15.152  0.2040 -0.1400  0.0803
15494TIP3    H267898   3.499   1.973  15.103 -0.5435  1.1478 -0.9294
15495TIP3   OH267899   2.921   5.872   0.797 -0.5985 -0.2373  0.3807
15495TIP3    H167900   2.853   5.898   0.735 -1.3380 -1.1834  0.7786
15495TIP3    H267901   2.881   5.804   0.851  0.0773  0.4224  1.7821
15496TIP3   OH267902   3.463   1.459   0.751 -0.6623 -0.6097 -0.1487
15496TIP3    H167903   3.442   1.426   0.664 -1.9127  0.6755 -0.3648
15496TIP3    H267904   3.425   1.547   0.754  2.4137  0.8538  0.4244
15497TIP3   OH267905   5.689   4.238   3.365  0.0254 -0.0340  0.0783
15497TIP3    H167906   5.719   4.167   3.308  2.2815 -0.0123  1.1300
15497TIP3    H267907   5.602   4.210   3.394  0.5838 -2.0563 -0.0435
15498TIP3   OH267908   1.931   1.988  15.203  0.3540 -0.2542  0.1646
15498TIP3    H167909   2.024   1.975  15.225  0.4802  0.0922 -0.1672
15498TIP3    H267910   1.894   2.030  15.280  0.7287  0.6672 -0.1473
15499TIP3   OH267911   6.001   6.143   6.076 -0.1069 -0.1813  0.3878
15499TIP3    H167912   6.037   6.093   6.002 -1.6221 -1.2093  0.2912
15499TIP3    H267913   6.071   6.143   6.141 -0.2317 -3.1371  0.6839
15500TIP3   OH267914   1.927   4.814  12.898 -0.3248 -0.2263  0.6412
15500TIP3    H167915   1.988   4.798  12.969  0.2991 -1.9779 -0.2359
15500TIP3    H267916   1.961   4.764  12.824 -0.8113  1.7071 -1.0114
15501TIP3   OH267917   4.089   3.058  11.475 -0.4222 -0.2302  0.0195
15501TIP3    H167918   4.104   3.053  11.380  0.8470  0.7015  0.1352
15501TIP3    H267919   4.008   3.010  11.489 -0.5896 -0.4671 -1.5315
15502TIP3   OH267920   0.434   3.500   4.693  0.3050  0.1451  0.1326
15502TIP3    H167921   0.470   3.542   4.771 -0.2718  0.3924  0.2677
15502TIP3    H267922   0.510   3.487   4.636  0.7007  0.1331  0.6536
15503TIP3   OH267923   6.176   3.005  12.019 -0.2201 -0.1023 -0.1658
15503TIP3    H167924   6.210   2.924  11.980 -0.2064 -0.3066  0.2701
15503TIP3    H267925   6.227   3.016  12.100 -0.5997  0.0506  0.0533
15504TIP3   OH267926   0.984   3.399   1.286 -0.3004 -0.0348 -0.0728
15504TIP3    H167927   0.950   3.334   1.225 -1.5811  0.0049  0.5659
15504TIP3    H267928   1.029   3.463   1.231 -1.5862  0.0958 -0.9960
15505TIP3   OH267929   2.329   2.527  14.486 -0.1620  0.1256 -0.1197
15505TIP3    H167930   2.308   2.471  14.410  0.2595 -2.0780  1.2856
15505TIP3    H267931   2.364   2.607  14.448  1.0084 -1.3009 -2.2711
15506TIP3   OH267932   5.231   5.835  11.987  0.3201  0.1528  0.3345
15506TIP3    H167933   5.277   5.889  11.923 -1.0081  0.6908 -0.1841
15506TIP3    H267934   5.167   5.786  11.936 -0.7082  0.5316  1.2274
15507TIP3   OH267935   4.967   3.422  11.310 -0.1786  0.0384 -0.6405
15507TIP3    H167936   5.043   3.403  11.255  0.3055 -0.4643  0.1686
15507TIP3    H267937   4.895   3.375  11.269  0.2222 -0.5168 -0.7116
15508TIP3   OH267938   4.342   0.069   1.615 -0.3170  0.0324  0.0758
15508TIP3    H167939   4.373   0.024   1.694 -0.4319  0.5349  0.4087
15508TIP3    H267940   4.420   0.110   1.579 -0.4079  0.4737  0.3730
15509TIP3   OH267941   1.592   4.184  14.890  0.9247  0.1939 -0.4690
15509TIP3    H167942   1.599   4.247  14.962 -3.0252 -0.5223  0.8106
15509TIP3    H267943   1.617   4.100  14.928 -0.2476 -0.0243 -0.1222
15510TIP3   OH267944   0.435   6.737  16.027  0.6738  0.2714  0.0124
15510TIP3    H167945   0.495   6.805  16.058  0.4286  0.3129  0.3949
15510TIP3    H267946   0.477   6.703  15.948  0.7198  0.9773 -0.2735
15511TIP3   OH267947   3.265   3.871  15.349  0.3583  0.2124  1.2572
15511TIP3    H167948   3.230   3.960  15.352  2.3430  1.1755 -1.0884
15511TIP3    H267949   3.188   3.814  15.350 -1.2733  2.1369 -1.6278
15512TIP3   OH267950   2.917   5.190  11.485 -0.2446  0.0017 -0.5262
15512TIP3    H167951   2.997   5.198  11.434 -0.1509  1.7735 -0.1751
15512TIP3    H267952   2.928   5.251  11.557 -1.3705 -0.6989  0.2800
15513TIP3   OH267953   3.970   2.600   3.346  0.3562 -0.4822 -0.0870
15513TIP3    H167954   3.995   2.660   3.416 -0.3194  0.2579 -0.4540
15513TIP3    H267955   4.017   2.519   3.364  0.0391 -0.3652  1.3328
15514TIP3   OH267956   4.074   3.412   1.472 -0.2521 -0.1991 -0.2127
15514TIP3    H167957   4.005   3.478   1.487 -0.4053 -0.3326 -0.3292
15514TIP3    H267958   4.100   3.425   1.381 -0.0827 -0.1113 -0.1522
15515TIP3   OH267959   0.184   0.149   5.196  0.3007  0.2257  0.5732
15515TIP3    H167960   0.234   0.069   5.178 -1.6061 -0.5919 -1.6325
15515TIP3    H267961   0.092   0.122   5.186 -0.3881  2.7162 -0.3911
15516TIP3   OH267962   0.288   1.528  15.514 -0.0098  0.1641 -0.0606
15516TIP3    H167963   0.376   1.492  15.522  0.8344  2.1451  0.2103
15516TIP3    H267964   0.261   1.505  15.425  0.1376 -1.7462  0.3541
15517TIP3   OH267965   1.635   5.300   3.019 -0.2259 -0.0206 -0.5936
15517TIP3    H167966   1.716   5.338   2.987  0.7903 -1.7955 -0.2738
15517TIP3    H267967   1.653   5.276   3.110 -0.4854 -1.9452 -0.9905
15518TIP3   OH267968   4.898   2.619   1.224  0.2486 -0.0592  0.4253
15518TIP3    H167969   4.822   2.565   1.202  0.0060  0.1632  0.7201
15518TIP3    H267970   4.952   2.618   1.145 -1.4510  2.2007 -0.8860
15519TIP3   OH267971   0.515   2.873   4.758 -0.0498  0.2111 -0.0849
15519TIP3    H167972   0.610   2.862   4.760 -0.2686 -3.2910 -1.1759
15519TIP3    H267973   0.499   2.934   4.686  1.3532  0.0887 -0.5269
15520TIP3   OH267974   6.732   0.420  14.935  0.2494  0.0651 -0.8514
15520TIP3    H167975   6.792   0.471  14.989  2.0074 -2.6165 -0.0814
15520TIP3    H267976   6.645   0.443  14.969  1.1597  0.1893  1.6471
15521TIP3   OH267977   4.133   0.857   1.620  0.2932  0.1793  0.6108
15521TIP3    H167978   4.078   0.829   1.694 -4.0263  1.6728 -1.6592
15521TIP3    H267979   4.111   0.795   1.550  0.7591  1.3902 -0.6550
15522TIP3   OH267980   0.666   2.192   1.609  0.7212  0.0378  0.0806
15522TIP3    H167981   0.722   2.146   1.671  1.6956 -0.4085 -1.0792
15522TIP3    H267982   0.624   2.260   1.660  2.5166  0.5436  0.9791
15523TIP3   OH267983   6.223   1.854   5.813 -0.2281 -0.0468  0.6020
15523TIP3    H167984   6.137   1.880   5.780  0.1105  2.1605  1.2969
15523TIP3    H267985   6.244   1.920   5.880  2.5557  0.3023 -0.4689
15524TIP3   OH267986   1.910   2.228   4.174 -0.1117  0.0954 -0.1953
15524TIP3    H167987   1.856   2.306   4.169 -0.1915 -0.0367 -1.5715
15524TIP3    H267988   1.960   2.239   4.255 -0.4297  1.3595 -0.1558
15525TIP3   OH267989   1.407   5.132   4.203 -0.2641 -0.0409 -0.0358
15525TIP3    H167990   1.473   5.079   4.158 -0.4033  0.3463 -0.7127
15525TIP3    H267991   1.384   5.200   4.139 -0.4744  0.5144  0.6228
15526TIP3   OH267992   5.808   3.324  16.642  0.4617 -0.4703  0.6477
15526TIP3    H167993   5.900   3.350  16.634  0.4564 -0.7136 -0.2459
15526TIP3    H267994   5.807   3.265  16.717  1.0826 -0.6691  0.5075
15527TIP3   OH267995   4.758   3.160   3.353  0.5964 -0.2200 -0.5762
15527TIP3    H167996   4.670   3.130   3.330 -0.3746  1.7922  0.2529
15527TIP3    H267997   4.814   3.124   3.285 -1.0106 -0.7800 -1.6663
15528TIP3   OH267998   1.303   5.059  16.143  0.4727 -0.5841  0.2761
15528TIP3    H167999   1.377   5.087  16.197  1.0461 -0.5896 -0.4964
15528TIP3    H268000   1.337   4.986  16.092  0.7312  0.9593 -1.9033
15529TIP3   OH268001   1.144   2.589  12.658 -0.0552  0.4815  0.4343
15529TIP3    H168002   1.145   2.684  12.673  1.6360  0.9382 -1.9283
15529TIP3    H268003   1.113   2.580  12.568 -1.2327 -1.3311  0.9788
15530TIP3   OH268004   0.764   6.255  13.036 -0.0541  0.0457  0.1282
15530TIP3    H168005   0.849   6.230  13.073  0.2572 -1.5327 -1.4935
15530TIP3    H268006   0.779   6.256  12.942 -1.5571  0.9349 -0.1279
15531TIP3   OH268007   5.336   3.565   4.028  0.7127  0.5786 -0.4162
15531TIP3    H168008   5.298   3.647   3.996  0.2224  1.0015  1.1555
15531TIP3    H268009   5.261   3.515   4.061  0.9923 -0.5823 -1.4456
15532TIP3   OH268010   0.860   2.158  14.967 -0.0274 -0.0346 -0.0172
15532TIP3    H168011   0.935   2.161  15.027 -1.2249  0.8962  1.4825
15532TIP3    H268012   0.839   2.250  14.951  2.3230  0.0073 -4.6670
15533TIP3   OH268013   6.367   0.590   4.565  0.1016 -0.6562  0.0252
15533TIP3    H168014   6.421   0.666   4.546 -0.2564  0.0809  1.8177
15533TIP3    H268015   6.399   0.523   4.504 -0.3211  1.1811 -2.3982
15534TIP3   OH268016   6.141   5.860  12.549 -0.3147  0.8908 -0.1678
15534TIP3    H168017   6.196   5.785  12.524 -0.2600  0.6744  0.5796
15534TIP3    H268018   6.158   5.872  12.642  1.5532  3.3483 -0.7047
15535TIP3   OH268019   4.564   6.712  13.919  0.3814  0.0647  0.1206
15535TIP3    H168020   4.655   6.725  13.891  0.2205 -0.2732 -0.5630
15535TIP3    H268021   4.572   6.676  14.008  0.9275 -0.2641 -0.0531
15536TIP3   OH268022   0.819   1.289  14.779  0.3097  0.5618  0.2377
15536TIP3    H168023   0.856   1.331  14.701  0.9705  1.4554  1.0154
15536TIP3    H268024   0.725   1.292  14.765  0.3895  1.4586 -0.1419
15537TIP3   OH268025   3.660   3.517   1.115  0.0181 -0.5228  0.0462
15537TIP3    H168026   3.606   3.455   1.165  1.0420  0.3302  2.3399
15537TIP3    H268027   3.733   3.463   1.083 -0.1056 -0.8994  0.3788
15538TIP3   OH268028   4.016   6.375  12.054 -0.2113  0.3039 -0.0523
15538TIP3    H168029   3.995   6.347  11.965  0.5127  1.5680 -0.6562
15538TIP3    H268030   4.049   6.297  12.097 -1.4741 -0.5461 -0.5881
15539TIP3   OH268031   5.954   2.362  12.845  0.1287  0.2516 -0.1767
15539TIP3    H168032   5.949   2.338  12.752 -1.1530  0.0669 -0.0853
15539TIP3    H268033   5.882   2.312  12.886 -0.3515  1.5575  0.6355
15540TIP3   OH268034   5.632   0.617  11.350  0.0554 -0.2281  0.2181
15540TIP3    H168035   5.710   0.668  11.371  0.9111 -1.3014 -0.2182
15540TIP3    H268036   5.589   0.602  11.434  0.7886 -0.3418  0.5785
15541TIP3   OH268037   3.062   4.446   4.182 -0.5667  0.2307 -0.0682
15541TIP3    H168038   3.004   4.429   4.256 -0.3057 -1.3954 -0.1975
15541TIP3    H268039   3.143   4.478   4.222 -0.1540 -1.3642  0.4592
15542TIP3   OH268040   3.097   3.010  16.109  0.1183  0.0551 -0.1518
15542TIP3    H168041   3.013   2.974  16.138  0.0717  1.4499  1.6302
15542TIP3    H268042   3.141   2.937  16.066 -0.2807 -1.9489  2.5606
15543TIP3   OH268043   4.455   6.766  11.590 -0.0685 -0.0035 -0.1239
15543TIP3    H168044   4.363   6.789  11.576 -0.3175 -0.8974 -0.0760
15543TIP3    H268045   4.492   6.839  11.639 -1.2826 -0.5303  1.6602
15544TIP3   OH268046   4.787   1.756   0.772  0.0248  0.0919 -0.1094
15544TIP3    H168047   4.840   1.821   0.726 -0.3172  0.3851 -0.0877
15544TIP3    H268048   4.708   1.747   0.719 -0.4892  0.6227  0.5583
15545TIP3   OH268049   4.733   2.402   2.147 -0.8066 -0.1446  0.9151
15545TIP3    H168050   4.722   2.357   2.063 -2.5222 -0.0734  1.0747
15545TIP3    H268051   4.734   2.495   2.125 -1.7654 -0.1042  1.0014
15546TIP3   OH268052   6.350   2.992  15.990  0.6318  0.1581 -0.0492
15546TIP3    H168053   6.358   3.072  15.937 -1.9134 -0.0494 -0.9150
15546TIP3    H268054   6.281   3.013  16.053  0.8208 -0.9366  0.5326
15547TIP3   OH268055   0.300   3.109  15.402 -0.1344  0.1316  0.3578
15547TIP3    H168056   0.268   3.081  15.488 -0.6569  0.6129  0.3292
15547TIP3    H268057   0.238   3.176  15.374 -1.5628 -1.8310 -1.5788
15548TIP3   OH268058   3.309   3.999   4.408  0.1299  0.0054 -0.3635
15548TIP3    H168059   3.369   4.058   4.453  0.9538 -1.4141  0.4843
15548TIP3    H268060   3.318   3.915   4.454 -1.6456 -0.5658 -0.9556
15549TIP3   OH268061   6.311   3.249   5.326 -0.2688 -0.1936 -0.2351
15549TIP3    H168062   6.365   3.179   5.363  1.9261  0.6931 -1.5932
15549TIP3    H268063   6.225   3.235   5.365  0.6260 -2.3506  1.1770
15550TIP3   OH268064   3.469   4.281   2.226  0.3621 -0.3774 -0.0984
15550TIP3    H168065   3.431   4.200   2.191 -0.4964  0.5780 -1.4633
15550TIP3    H268066   3.426   4.351   2.176  0.8065  0.9451  1.3071
15551TIP3   OH268067   3.201   5.511   2.829 -0.3362  0.2987 -0.2844
15551TIP3    H168068   3.128   5.464   2.789 -0.0300 -0.8777  0.5030
15551TIP3    H268069   3.229   5.573   2.762 -1.7779  0.4754 -0.7484
15552TIP3   OH268070   2.412   4.563   5.677  1.1036  0.3362  0.0037
15552TIP3    H168071   2.465   4.527   5.748 -0.6461 -0.2794  1.0695
15552TIP3    H268072   2.375   4.643   5.713 -2.1843 -1.4655  1.0238
15553TIP3   OH268073   1.056   2.070   3.098 -0.1554 -0.0846 -0.3279
15553TIP3    H168074   1.092   2.159   3.099 -0.3371  0.0475  2.1586
15553TIP3    H268075   0.964   2.081   3.122 -0.0102 -0.9451  0.7389
15554TIP3   OH268076   0.285   4.750   6.641 -0.2809  0.2015  0.1225
15554TIP3    H168077   0.269   4.655   6.637 -3.0819  0.6192 -2.3765
15554TIP3    H268078   0.336   4.769   6.562 -0.6958  0.8947  0.0127
15555TIP3   OH268079   0.509   2.267  14.946 -0.1143 -0.6653 -0.4342
15555TIP3    H168080   0.500   2.234  15.035 -0.8772  0.0182 -0.2528
15555TIP3    H268081   0.561   2.200  14.901  0.4900 -0.8966  0.5786
15556TIP3   OH268082   4.371   4.417   3.091 -0.4503  0.4618 -0.7882
15556TIP3    H168083   4.450   4.444   3.138 -0.4227  1.1626 -1.2210
15556TIP3    H268084   4.403   4.376   3.011 -0.5205  0.5351 -0.8541
15557TIP3   OH268085   0.110   2.294   4.127 -0.0226 -0.2954  0.3767
15557TIP3    H168086   0.075   2.274   4.041  1.0028  1.8167 -0.5815
15557TIP3    H268087   0.195   2.249   4.130  0.5961  0.7773 -0.3231
15558TIP3   OH268088   2.351   0.178  12.417 -0.1480 -0.0594 -0.1894
15558TIP3    H168089   2.280   0.225  12.373  1.0377 -0.2333 -2.4232
15558TIP3    H268090   2.343   0.088  12.387  0.6415 -0.2213  0.0582
15559TIP3   OH268091   2.992   5.594   4.981 -0.3480  0.4351  0.2830
15559TIP3    H168092   3.022   5.519   5.032 -0.7199  1.4649  2.1022
15559TIP3    H268093   3.057   5.663   4.999 -0.9515  1.0705  0.0620
15560TIP3   OH268094   3.514   2.383   1.986  0.1854  0.1940  0.2104
15560TIP3    H168095   3.430   2.386   2.032 -0.4827  1.2016 -1.0342
15560TIP3    H268096   3.577   2.364   2.055 -1.0665 -0.8565  1.1438
15561TIP3   OH268097   6.648   5.154   0.249 -0.1204 -0.2891 -0.3178
15561TIP3    H168098   6.553   5.143   0.240 -0.2042  0.8944 -1.1066
15561TIP3    H268099   6.660   5.187   0.338 -0.5473  0.4688 -0.5345
15562TIP3   OH268100   3.172   6.093   0.424 -0.3655 -0.1151 -0.4328
15562TIP3    H168101   3.198   6.178   0.460 -1.9907 -0.6309  2.2495
15562TIP3    H268102   3.221   6.086   0.342  3.9078  1.1107  1.6935
15563TIP3   OH268103   1.572   3.058  14.913  0.0159  0.5390 -0.0591
15563TIP3    H168104   1.519   3.132  14.943  0.7626  0.6800  0.9569
15563TIP3    H268105   1.595   3.080  14.822 -1.9035  0.3224 -0.6422
15564TIP3   OH268106   6.649   6.281  12.253 -0.5345 -0.4037  0.1718
15564TIP3    H168107   6.608   6.252  12.334 -0.3021  1.5392  1.0503
15564TIP3    H268108   6.606   6.365  12.234 -1.2510 -1.2293 -2.2479
15565TIP3   OH268109   3.546   1.478  15.772 -0.1271 -0.0990 -0.4277
15565TIP3    H168110   3.558   1.502  15.680  1.1387  0.6012 -0.0998
15565TIP3    H268111   3.565   1.384  15.775  0.4480  0.0046 -0.7765
15566TIP3   OH268112   0.456   4.716  15.029 -0.0068  0.2855 -0.2012
15566TIP3    H168113   0.549   4.720  15.051  0.2024 -0.1520 -0.9735
15566TIP3    H268114   0.411   4.743  15.110  0.8011  1.1815 -0.0332
15567TIP3   OH268115   2.972   2.628  13.048  0.0124  0.6517  0.1204
15567TIP3    H168116   2.950   2.626  12.955 -0.9676 -0.0088  0.3488
15567TIP3    H268117   2.917   2.698  13.084  0.4196  0.9336  0.2007
15568TIP3   OH268118   2.844   6.205   4.920  0.1383  0.3423  0.2555
15568TIP3    H168119   2.756   6.221   4.886  1.0103  0.7234 -2.0450
15568TIP3    H268120   2.849   6.110   4.929 -0.1298  0.2085 -0.8401
15569TIP3   OH268121   4.232   1.824  15.526 -0.2036 -0.1673  0.3126
15569TIP3    H168122   4.290   1.830  15.602 -0.5659  0.5612  0.5383
15569TIP3    H268123   4.220   1.914  15.498 -1.5859 -0.2538  0.5559
15570TIP3   OH268124   4.106   6.719   0.009  0.3083  0.0445 -0.0959
15570TIP3    H168125   4.027   6.676  -0.023  0.4833 -0.5785  0.2928
15570TIP3    H268126   4.123   6.789  -0.055 -0.9845  0.6972  0.2463
15571TIP3   OH268127   5.584   2.035  17.109  0.3476 -0.2585  0.1914
15571TIP3    H168128   5.493   2.020  17.083  0.9845  0.2107 -2.6657
15571TIP3    H268129   5.633   2.036  17.026  2.3547  3.7221  1.1768
15572TIP3   OH268130   3.664   5.777  12.254  0.1679  0.2445 -0.8279
15572TIP3    H168131   3.666   5.852  12.314  1.2608 -1.6829  1.6985
15572TIP3    H268132   3.754   5.769  12.221  0.3410 -0.6208 -0.1733
15573TIP3   OH268133   6.418   2.515  12.524 -0.2507 -0.5187 -0.2142
15573TIP3    H168134   6.368   2.448  12.478 -1.5705 -0.1541  0.6342
15573TIP3    H268135   6.375   2.522  12.609 -0.4959  1.8099 -0.4879
15574TIP3   OH268136   4.414   6.652  11.022 -0.0073 -0.0745 -0.1758
15574TIP3    H168137   4.415   6.746  11.003 -2.7711 -0.0064 -0.4558
15574TIP3    H268138   4.410   6.647  11.118 -2.1785  0.2467 -0.2048
15575TIP3   OH268139   6.316   0.774  16.013  0.0939  0.5805  0.5414
15575TIP3    H168140   6.390   0.775  15.952  0.2822 -0.6115  0.7187
15575TIP3    H268141   6.337   0.704  16.075 -1.4496 -0.1592  0.2711
15576TIP3   OH268142   4.585   4.772   3.405  0.1631 -0.7856  0.3108
15576TIP3    H168143   4.541   4.833   3.345 -1.0918  1.2722  3.0816
15576TIP3    H268144   4.678   4.795   3.398 -0.0240 -0.1799 -0.4054
15577TIP3   OH268145   2.815   6.707   3.121 -0.8625  0.2316  0.4266
15577TIP3    H168146   2.750   6.756   3.071 -0.2496 -0.9576 -1.6329
15577TIP3    H268147   2.775   6.621   3.136 -0.8173  0.3893  1.5285
15578TIP3   OH268148   1.517   3.926  12.384  0.3804 -0.5394 -0.2488
15578TIP3    H168149   1.599   3.895  12.423  0.0580 -1.3965 -0.2355
15578TIP3    H268150   1.545   3.982  12.311  0.9736 -0.5141 -0.0078
15579TIP3   OH268151   1.634   2.012  16.776 -0.1913  0.2789  0.2671
15579TIP3    H168152   1.630   2.018  16.681  0.5856  0.1421  0.2216
15579TIP3    H268153   1.595   1.927  16.796 -1.1823  0.6949  0.1439
15580TIP3   OH268154   6.076   3.597   3.408  0.0882  0.2020  0.2508
15580TIP3    H168155   6.166   3.584   3.379  0.3219 -0.6869  1.3123
15580TIP3    H268156   6.075   3.686   3.443  0.4527  0.3413 -0.0796
15581TIP3   OH268157   3.609   4.979  13.614  0.2363 -0.1040 -0.3308
15581TIP3    H168158   3.598   4.959  13.521  2.2654 -1.0640 -0.4096
15581TIP3    H268159   3.567   4.906  13.660  0.0398 -0.1041 -0.5109
15582TIP3   OH268160   5.245   6.488   1.207 -0.3934  0.0223  0.0301
15582TIP3    H168161   5.183   6.455   1.142 -1.3129  1.5959  0.0786
15582TIP3    H268162   5.316   6.526   1.155 -0.7839  0.6382 -0.0602
15583TIP3   OH268163   1.551   6.244  13.926  0.2011 -0.7669  0.3433
15583TIP3    H168164   1.459   6.270  13.925  0.3120 -0.3034  1.3246
15583TIP3    H268165   1.600   6.325  13.914  0.4892 -1.1641 -1.4694
15584TIP3   OH268166   1.133   4.475   3.209  0.2270 -0.3710 -0.2193
15584TIP3    H168167   1.101   4.422   3.136  0.7980 -0.2354 -0.5694
15584TIP3    H268168   1.099   4.563   3.192 -0.5843 -0.5775  0.2763
15585TIP3   OH268169   1.353   2.672  15.899  0.0117 -0.1716 -0.2595
15585TIP3    H168170   1.428   2.732  15.898  0.7465 -1.0467  0.3008
15585TIP3    H268171   1.277   2.729  15.907  0.6719  0.7097 -0.0828
15586TIP3   OH268172   6.533   1.855   5.543  0.1219  0.0840  0.4524
15586TIP3    H168173   6.517   1.798   5.618 -0.1807  1.2583  1.3158
15586TIP3    H268174   6.522   1.799   5.466  0.6106 -1.1813  1.2877
15587TIP3   OH268175   4.319   2.216  15.884 -0.0905  0.4241  0.2749
15587TIP3    H168176   4.368   2.294  15.858 -1.2636  1.1322  0.1438
15587TIP3    H268177   4.227   2.241  15.878 -0.5655 -1.4096 -1.2074
15588TIP3   OH268178   4.166   2.544   0.439  0.6713 -0.5936 -0.4186
15588TIP3    H168179   4.133   2.546   0.529 -0.5481 -0.3033 -0.8562
15588TIP3    H268180   4.109   2.605   0.391  1.5986 -0.3906 -1.2931
15589TIP3   OH268181   1.610   5.799  17.111 -0.2806  0.8312 -0.7371
15589TIP3    H168182   1.679   5.768  17.169  0.6819  3.1636 -0.5510
15589TIP3    H268183   1.529   5.767  17.151  0.5100  0.2905  0.5039
15590TIP3   OH268184   2.680   5.853   4.023 -0.0155 -0.0063 -0.0345
15590TIP3    H168185   2.711   5.877   3.936 -0.5887  0.9825  0.0161
15590TIP3    H268186   2.700   5.930   4.077 -2.9086  0.8992 -0.1051
15591TIP3   OH268187   3.899   3.320  12.856  0.3492 -0.1022  0.1763
15591TIP3    H168188   3.826   3.307  12.796  1.0266 -2.4956 -0.2140
15591TIP3    H268189   3.858   3.338  12.940 -0.6212  2.9369 -0.8031
15592TIP3   OH268190   1.346   2.573  16.682  0.7564  0.0103 -0.4187
15592TIP3    H168191   1.347   2.480  16.661  0.3711  0.3533 -2.1055
15592TIP3    H268192   1.300   2.578  16.766  1.2445 -1.3545 -0.0469
15593TIP3   OH268193   1.461   6.763   1.971 -0.2986 -0.2240 -0.0363
15593TIP3    H168194   1.496   6.674   1.970  0.1287 -0.0589  0.1316
15593TIP3    H268195   1.490   6.802   1.889 -0.0778 -0.0825  0.1081
15594TIP3   OH268196   0.550   1.773  12.506  0.1327  0.3944 -0.1377
15594TIP3    H168197   0.629   1.781  12.452 -1.2724  2.9451 -2.0409
15594TIP3    H268198   0.565   1.695  12.559  2.8294 -0.6523 -2.2218
15595TIP3   OH268199   4.472   1.298   5.784 -0.0624 -0.0175 -0.2027
15595TIP3    H168200   4.509   1.320   5.870 -1.2471 -0.1175  0.3525
15595TIP3    H268201   4.463   1.203   5.786  1.4966 -0.2254 -1.1312
15596TIP3   OH268202   1.049   4.287   3.652  0.1825 -0.4948 -0.1644
15596TIP3    H168203   0.970   4.331   3.619 -0.2010 -0.5836  0.6106
15596TIP3    H268204   1.065   4.216   3.590 -0.2902 -0.4093 -0.3876
15597TIP3   OH268205   1.559   2.693  11.533  0.1224  0.5692  0.5504
15597TIP3    H168206   1.517   2.743  11.463 -0.1734  0.5098  0.6824
15597TIP3    H268207   1.653   2.701  11.516  0.1250  1.8737  1.0365
15598TIP3   OH268208   0.638   5.244   4.515 -0.2605 -0.3330 -0.1594
15598TIP3    H168209   0.712   5.274   4.463 -0.6219  1.4080  0.2637
15598TIP3    H268210   0.678   5.197   4.588  0.5077  1.1700  0.4376
15599TIP3   OH268211   5.129   0.527  12.449 -0.1420 -0.0907 -0.3022
15599TIP3    H168212   5.203   0.584  12.468 -0.1888 -0.1969  0.2153
15599TIP3    H268213   5.168   0.445  12.420 -0.0699  0.6031 -2.3714
15600TIP3   OH268214   4.965   2.953   3.855 -0.3400  0.0553  1.1187
15600TIP3    H168215   4.871   2.968   3.852 -0.3645 -0.1981 -0.0364
15600TIP3    H268216   4.975   2.872   3.904 -0.9509 -1.2859 -0.8309
15601TIP3   OH268217   1.389   6.623  13.283 -0.1471  0.0511  0.1201
15601TIP3    H168218   1.396   6.647  13.375 -0.8618  1.3991 -0.1524
15601TIP3    H268219   1.300   6.648  13.258  0.9167  2.5356 -1.6612
15602TIP3   OH268220   5.802   1.241  11.524 -0.0675  0.1673 -0.3758
15602TIP3    H168221   5.716   1.200  11.520  0.0282 -0.0693 -0.0662
15602TIP3    H268222   5.784   1.334  11.536 -0.2817  0.1507 -0.5636
15603TIP3   OH268223   0.113   2.845  12.780  0.7608 -0.9922 -0.1947
15603TIP3    H168224   0.152   2.840  12.867  0.1224 -4.1098  0.0537
15603TIP3    H268225   0.173   2.898  12.729  2.0649 -0.5493  1.6986
15604TIP3   OH268226   5.949   1.909  15.373 -0.4394  0.1251 -0.3267
15604TIP3    H168227   5.919   1.999  15.378 -0.1435  0.2037  0.0672
15604TIP3    H268228   5.997   1.895  15.455  0.1355 -0.1640 -0.7072
15605TIP3   OH268229   4.045   0.720  11.182  0.0752 -0.6980 -0.3269
15605TIP3    H168230   4.118   0.766  11.141  0.0316 -0.8784 -0.6117
15605TIP3    H268231   4.033   0.641  11.128  0.5166 -1.3360  0.4849
15606TIP3   OH268232   2.187   0.797   5.401 -0.6310 -0.1198 -0.0531
15606TIP3    H168233   2.124   0.741   5.358 -0.8373 -0.1197  0.2498
15606TIP3    H268234   2.240   0.833   5.329  0.3592 -1.7105 -0.1713
15607TIP3   OH268235   1.542   6.182  10.304  0.4154 -0.0120 -0.0270
15607TIP3    H168236   1.540   6.278  10.303 -0.3144 -0.0139  0.2760
15607TIP3    H268237   1.619   6.159  10.253  1.8357  0.7605  1.6756
15608TIP3   OH268238   4.931   4.515   5.388  0.4343  0.2416  0.2735
15608TIP3    H168239   4.880   4.436   5.374  1.5648 -0.1151 -2.3530
15608TIP3    H268240   4.989   4.493   5.461  0.6347 -1.3120 -0.3166
15609TIP3   OH268241   1.120   3.575   1.702  0.8033 -0.4501 -0.3704
15609TIP3    H168242   1.077   3.658   1.723  1.6199  0.1678 -1.0331
15609TIP3    H268243   1.112   3.522   1.781 -0.6881 -0.1624 -0.3033
15610TIP3   OH268244   6.470   0.421   0.373 -1.2366  0.2180 -0.1059
15610TIP3    H168245   6.536   0.431   0.441  0.2588  0.0101 -1.4552
15610TIP3    H268246   6.451   0.510   0.344  1.2548  0.1992 -2.1881
15611TIP3   OH268247   6.479   3.216  16.689  0.3530  0.7938  0.2656
15611TIP3    H168248   6.464   3.246  16.779  0.3479 -1.4747  1.0731
15611TIP3    H268249   6.405   3.159  16.669  2.3651 -2.0912  0.4312
15612TIP3   OH268250   6.648   4.878  10.922  0.6317 -0.2820 -0.4379
15612TIP3    H168251   6.590   4.946  10.955  0.2179 -1.2142  0.8238
15612TIP3    H268252   6.589   4.809  10.891  1.0211  0.2788 -2.5869
15613TIP3   OH268253   4.532   2.874  12.278  0.3863 -0.0278 -0.0098
15613TIP3    H168254   4.538   2.930  12.200  0.8650 -0.8939 -0.6051
15613TIP3    H268255   4.622   2.847  12.295 -0.0440 -2.1830 -0.9010
15614TIP3   OH268256   0.413   1.972  13.587  0.5936  0.1233 -0.1661
15614TIP3    H168257   0.462   1.911  13.642 -0.3131 -0.1153  0.4036
15614TIP3    H268258   0.472   2.046  13.575  2.0663 -1.2102 -1.6300
15615TIP3   OH268259   0.765   1.987   3.859 -0.1925  0.8589  0.3378
15615TIP3    H168260   0.820   1.991   3.781  1.5270 -3.2568  1.0822
15615TIP3    H268261   0.678   2.011   3.828  0.8809  1.7252 -2.2744
15616TIP3   OH268262   4.154   0.484  10.955  0.3673 -0.1203  0.0745
15616TIP3    H168263   4.212   0.448  11.022 -0.5261 -0.3800  0.7225
15616TIP3    H268264   4.120   0.407  10.909  0.5632  0.0311 -0.3285
15617TIP3   OH268265   3.664   3.456  13.693  0.2074 -0.6070 -0.2996
15617TIP3    H168266   3.578   3.425  13.666  0.4192 -0.9167 -0.6214
15617TIP3    H268267   3.660   3.459  13.789 -0.4752  0.2944 -0.3415
15618TIP3   OH268268   4.756   3.927  15.916  0.9155  0.2296 -0.2200
15618TIP3    H168269   4.834   3.980  15.930  2.4296 -2.4645  3.0492
15618TIP3    H268270   4.687   3.975  15.963  1.2827  1.1725 -0.6104
15619TIP3   OH268271   2.508   6.627   1.973  0.7266  0.8520  0.0714
15619TIP3    H168272   2.455   6.600   2.048 -0.5231 -0.3685 -1.2015
15619TIP3    H268273   2.576   6.560   1.966  0.3211  0.4954 -0.4137
15620TIP3   OH268274   4.743   0.463   1.529  0.0725 -0.1165  0.0768
15620TIP3    H168275   4.747   0.525   1.602 -2.1466 -0.2095  0.3540
15620TIP3    H268276   4.674   0.497   1.473  1.2037 -0.4839 -1.5952
15621TIP3   OH268277   4.704   3.301  14.650  0.1049 -0.1743 -0.0444
15621TIP3    H168278   4.743   3.214  14.641  0.1449 -0.1815  0.1816
15621TIP3    H268279   4.613   3.283  14.676  0.3545 -0.1431  0.9021
15622TIP3   OH268280   5.197   3.324  13.661  0.4762  0.1720  0.3905
15622TIP3    H168281   5.126   3.266  13.634  0.8906 -0.8505  1.4198
15622TIP3    H268282   5.154   3.407  13.682 -0.0218  0.5659 -1.9503
15623TIP3   OH268283   3.906   0.549   1.023  0.1695 -0.2643  0.1886
15623TIP3    H168284   3.917   0.461   0.987  0.3314  0.1188 -0.7483
15623TIP3    H268285   3.889   0.604   0.946 -3.4817  0.0232  1.0206
15624TIP3   OH268286   4.430   5.951   0.545  0.4035  0.2349  0.3666
15624TIP3    H168287   4.450   5.896   0.620  1.7551  0.0270 -0.1282
15624TIP3    H268288   4.432   5.891   0.470  1.5227  0.8641 -0.1333
15625TIP3   OH268289   2.005   3.885  14.153  0.0626 -0.0335 -0.1236
15625TIP3    H168290   2.028   3.833  14.230  1.1161  0.2718 -0.2105
15625TIP3    H268291   2.053   3.844  14.081 -1.2383 -0.5637 -0.7095
15626TIP3   OH268292   3.775   4.120  16.501 -0.5264  0.1056  0.3997
15626TIP3    H168293   3.754   4.175  16.426  0.1641  0.5769  0.5363
15626TIP3    H268294   3.858   4.079  16.477 -0.9712 -0.7887  0.3525
15627TIP3   OH268295   4.533   5.066  12.352  0.5045  0.4635 -0.2817
15627TIP3    H168296   4.579   5.022  12.281  1.1203  1.3065 -0.4198
15627TIP3    H268297   4.531   5.158  12.326  1.2164  0.8806  1.0205
15628TIP3   OH268298   3.433   4.833   5.820 -0.3561 -0.1927  0.3389
15628TIP3    H168299   3.376   4.910   5.821 -0.7895 -0.4987 -0.3422
15628TIP3    H268300   3.497   4.851   5.751  1.1879  0.7105  1.9337
15629TIP3   OH268301   6.015   1.937  16.654 -0.6555 -0.6903  0.1366
15629TIP3    H168302   6.105   1.950  16.624 -0.6636 -0.0752  0.3698
15629TIP3    H268303   6.020   1.947  16.749 -1.3185  1.5276 -0.0184
15630TIP3   OH268304   2.702   5.788  11.771 -0.2696  0.4747 -0.4685
15630TIP3    H168305   2.662   5.815  11.854 -0.2994 -0.9664  0.0167
15630TIP3    H268306   2.628   5.760  11.717 -0.1249 -0.1034 -0.3776
15631TIP3   OH268307   3.041   1.073  13.198  0.5876  0.7545  0.4151
15631TIP3    H168308   3.018   1.166  13.194 -1.0085  0.3391 -1.0111
15631TIP3    H268309   3.044   1.045  13.107  1.0644 -0.6162  0.8255
15632TIP3   OH268310   2.916   1.239  14.053 -0.8577 -0.2614  0.1483
15632TIP3    H168311   2.989   1.299  14.068 -2.0532  1.8360 -1.7033
15632TIP3    H268312   2.927   1.169  14.117  2.7915 -0.0845 -0.1122
15633TIP3   OH268313   0.190   0.723   5.129 -0.0613  0.0652  0.0337
15633TIP3    H168314   0.247   0.731   5.206 -0.1251 -0.8041  0.1850
15633TIP3    H268315   0.123   0.659   5.156 -0.2115 -0.0809 -0.6713
15634TIP3   OH268316   6.331   6.271   3.948  0.4286 -0.1176 -0.5502
15634TIP3    H168317   6.263   6.204   3.952 -0.2199  0.5471 -0.1737
15634TIP3    H268318   6.406   6.232   3.992  0.2685 -0.8260 -0.8858
15635TIP3   OH268319   6.476   4.275   3.694  0.0583 -0.2399 -0.0275
15635TIP3    H168320   6.416   4.207   3.665 -0.5926  0.4994 -0.4559
15635TIP3    H268321   6.445   4.354   3.650 -0.6077  0.8312  2.2476
15636TIP3   OH268322   2.890   6.727   4.809  0.4051  0.2784 -0.0401
15636TIP3    H168323   2.931   6.642   4.795  1.2930  0.8233 -0.8806
15636TIP3    H268324   2.803   6.707   4.845 -0.2525 -1.0804 -2.2075
15637TIP3   OH268325   2.044   0.860  11.944  0.0077  0.2542 -0.0853
15637TIP3    H168326   2.024   0.789  12.005  1.1273  0.2911  0.3443
15637TIP3    H268327   1.959   0.900  11.925 -0.4714 -0.3796  0.6793
15638TIP3   OH268328   0.165   3.245   1.161  0.3308 -0.1288  0.1879
15638TIP3    H168329   0.222   3.177   1.196 -0.0183 -1.0459 -0.9307
15638TIP3    H268330   0.164   3.229   1.066 -0.1937  1.1104 -0.0429
15639TIP3   OH268331   0.097   2.372   0.234 -0.7814 -0.4438 -0.6015
15639TIP3    H168332   0.164   2.306   0.215 -0.6482 -0.5459  0.1866
15639TIP3    H268333   0.044   2.375   0.155 -0.5929 -1.2587 -0.7744
15640TIP3   OH268334   6.483   5.909   3.646  0.0503  0.2906  0.0522
15640TIP3    H168335   6.501   5.912   3.740  0.8398  0.4695 -0.0944
15640TIP3    H268336   6.563   5.943   3.605 -0.7865  1.5039 -0.6381
15641TIP3   OH268337   1.326   4.031   2.692  0.0526  0.1789  0.6815
15641TIP3    H168338   1.304   4.121   2.670  0.6956 -0.1787 -1.6434
15641TIP3    H268339   1.349   4.034   2.785 -0.7588  2.2286  0.8568
15642TIP3   OH268340   2.140   2.778   5.053 -0.3169 -0.1783  0.8979
15642TIP3    H168341   2.180   2.799   5.137  1.5877 -1.3542  0.3263
15642TIP3    H268342   2.157   2.855   4.998  0.4221 -0.3187  0.9242
15643TIP3   OH268343   5.379   6.061  14.643  0.0328 -0.8395 -0.4117
15643TIP3    H168344   5.284   6.063  14.635  0.0261 -1.1774 -0.4235
15643TIP3    H268345   5.396   6.002  14.717  0.2569 -1.3394 -0.8574
15644TIP3   OH268346   4.546   1.318  16.691 -0.3791 -0.5122  0.1126
15644TIP3    H168347   4.465   1.309  16.641  0.1394 -1.7230 -0.5543
15644TIP3    H268348   4.574   1.228  16.708  0.0202 -0.1292  1.6846
15645TIP3   OH268349   1.471   6.306   2.227 -0.2748 -0.1830 -0.7128
15645TIP3    H168350   1.440   6.217   2.209 -0.1182 -0.0346 -1.7895
15645TIP3    H268351   1.560   6.308   2.191 -0.0546  0.2367 -0.1609
15646TIP3   OH268352   3.870   6.343   2.768 -0.5275  0.2945  0.4428
15646TIP3    H168353   3.960   6.367   2.787 -0.4423 -0.8645  1.6403
15646TIP3    H268354   3.877   6.263   2.715 -0.7860 -1.5387  2.9705
15647TIP3   OH268355   0.476   5.869  15.193  0.3812 -0.3829 -0.2382
15647TIP3    H168356   0.381   5.881  15.188  0.4582  2.0933  1.9855
15647TIP3    H268357   0.488   5.808  15.265  0.4722 -0.4129 -0.2802
15648TIP3   OH268358   1.836   3.299  11.007  0.2050 -0.0736 -0.1356
15648TIP3    H168359   1.824   3.320  10.914 -1.1790  0.7162  0.1905
15648TIP3    H268360   1.808   3.378  11.053  0.4117 -0.6243  0.9726
15649TIP3   OH268361   3.459   0.922  16.307 -0.0405 -0.6015 -0.5275
15649TIP3    H168362   3.553   0.938  16.308 -0.1950  0.3388 -0.3430
15649TIP3    H268363   3.439   0.895  16.397 -0.2402  1.0969 -0.0223
15650TIP3   OH268364   6.703   4.901   2.248  0.6143 -0.0343 -0.4641
15650TIP3    H168365   6.696   4.995   2.264 -1.1711 -0.3986  1.2786
15650TIP3    H268366   6.663   4.888   2.162  0.7600  0.7803 -0.6606
15651TIP3   OH268367   2.844   0.323   0.308  0.1606 -0.3743 -0.0180
15651TIP3    H168368   2.853   0.277   0.225  0.9986  2.4701 -1.6374
15651TIP3    H268369   2.926   0.307   0.354  1.2266  0.8942 -1.3822
15652TIP3   OH268370   6.617   0.833   5.249  0.2550  0.0470  0.1298
15652TIP3    H168371   6.643   0.918   5.284 -2.1319  1.2839 -0.8359
15652TIP3    H268372   6.571   0.791   5.321  1.2027 -0.3227  0.5262
15653TIP3   OH268373   5.512   4.913   3.267 -0.0001 -0.4667 -0.1643
15653TIP3    H168374   5.564   4.993   3.276  1.0419 -1.1354 -0.0459
15653TIP3    H268375   5.469   4.922   3.183  1.5534 -0.5780 -1.0037
15654TIP3   OH268376   4.068   1.285   5.591 -0.5541  0.4720  0.1593
15654TIP3    H168377   4.140   1.346   5.605  0.3315 -0.5380  0.1291
15654TIP3    H268378   4.008   1.301   5.664 -1.4699  2.8890 -1.0244
15655TIP3   OH268379   6.438   0.464  15.861 -0.3146 -0.4429 -0.3638
15655TIP3    H168380   6.380   0.533  15.830  0.9407  0.4583 -0.8017
15655TIP3    H268381   6.380   0.401  15.904 -1.8589 -0.5282 -2.3809
15656TIP3   OH268382   1.197   6.772  17.136 -0.0502  0.1678  0.4010
15656TIP3    H168383   1.273   6.770  17.077 -1.1669 -0.7319 -1.0800
15656TIP3    H268384   1.206   6.854  17.183  2.2465 -0.2552  0.8364
15657TIP3   OH268385   3.239   6.300   0.825  0.3094  0.0722  0.2974
15657TIP3    H168386   3.200   6.213   0.823 -3.4621  1.5639  1.1217
15657TIP3    H268387   3.251   6.319   0.918  1.8919  0.1959  0.1033
15658TIP3   OH268388   0.295   0.480   1.579 -0.3536 -0.2680  0.1627
15658TIP3    H168389   0.320   0.563   1.540 -3.0370  1.3187  1.5443
15658TIP3    H268390   0.201   0.473   1.562 -0.3246 -2.7221  0.6451
15659TIP3   OH268391   1.779   3.583  11.652 -0.3490 -0.2059  0.1934
15659TIP3    H168392   1.733   3.662  11.681 -0.3398  0.7431 -2.1372
15659TIP3    H268393   1.710   3.529  11.612 -0.2588 -1.1520  1.2783
15660TIP3   OH268394   3.590   6.051   5.411  0.4149 -0.8631 -0.2487
15660TIP3    H168395   3.657   6.077   5.347 -0.5893  1.8379 -0.3385
15660TIP3    H268396   3.637   6.047   5.494  0.9293 -0.1989 -0.5020
15661TIP3   OH268397   4.477   3.409   5.619  0.2950 -0.0380 -0.1397
15661TIP3    H168398   4.550   3.467   5.597  1.1680 -0.1352  2.1997
15661TIP3    H268399   4.518   3.324   5.634 -0.0183  0.1867  2.4697
15662TIP3   OH268400   3.377   5.135   0.596  0.3483 -0.0750  0.1359
15662TIP3    H168401   3.453   5.105   0.646  0.5557  0.8140  0.3802
15662TIP3    H268402   3.400   5.224   0.569 -1.2712  0.8876  1.6645
15663TIP3   OH268403   6.252   5.640   0.600  0.1395 -0.1217  0.3116
15663TIP3    H168404   6.257   5.621   0.693  0.1245  2.0508  0.8016
15663TIP3    H268405   6.168   5.686   0.589  1.0407  1.4366 -0.3833
15664TIP3   OH268406   5.779   0.718  11.737  0.0374 -0.2883 -0.5984
15664TIP3    H168407   5.862   0.750  11.774  1.4860 -2.7940 -1.4049
15664TIP3    H268408   5.747   0.654  11.801 -0.3358 -0.6148 -1.1004
15665TIP3   OH268409   5.232   4.107  16.358 -0.3014  0.4114 -0.6375
15665TIP3    H168410   5.199   4.143  16.275 -1.8258 -0.9961 -0.7090
15665TIP3    H268411   5.246   4.184  16.413 -3.1139  1.2441 -0.8820
15666TIP3   OH268412   0.161   5.727   4.139  0.1923  0.3093  0.0503
15666TIP3    H168413   0.207   5.655   4.095  0.2385  1.6720 -2.3435
15666TIP3    H268414   0.087   5.684   4.184  0.0831 -1.2403 -1.4679
15667TIP3   OH268415   3.139   5.394   3.945  0.5269 -0.2230 -0.2358
15667TIP3    H168416   3.053   5.352   3.946  0.6698 -0.5656  1.4809
15667TIP3    H268417   3.121   5.488   3.945  0.1994 -0.2362 -2.3503
15668TIP3   OH268418   1.089   1.911   3.432  0.0703  0.1047  0.0207
15668TIP3    H168419   1.164   1.911   3.491 -0.8577 -2.5406  1.3727
15668TIP3    H268420   1.112   1.848   3.364  0.3673  1.7653 -1.5037
15669TIP3   OH268421   4.922   5.165   2.016 -0.1276  0.7315 -0.3191
15669TIP3    H168422   4.875   5.135   2.094  0.3842  1.4902  0.2936
15669TIP3    H268423   5.008   5.125   2.023  0.3132  1.7238  0.1286
15670TIP3   OH268424   5.832   1.450   0.339  0.1363 -0.3286  1.0562
15670TIP3    H168425   5.767   1.512   0.308 -0.2267 -0.9757  0.4769
15670TIP3    H268426   5.876   1.494   0.412  0.8952  1.1703 -0.2673
15671TIP3   OH268427   4.431   0.297  16.553  0.2199 -0.0832 -0.0680
15671TIP3    H168428   4.342   0.288  16.519  0.7535 -0.1662 -1.5255
15671TIP3    H268429   4.431   0.249  16.635 -1.5135  1.2913  0.7848
15672TIP3   OH268430   4.117   6.538  16.074 -0.5648 -0.1375 -0.3769
15672TIP3    H168431   4.033   6.558  16.115 -0.5710 -0.7581 -0.0716
15672TIP3    H268432   4.153   6.467  16.128  0.7325  0.9629  0.2689
15673TIP3   OH268433   3.363   5.491   6.102  0.0328  0.2288  0.2450
15673TIP3    H168434   3.276   5.457   6.082 -0.0368  0.4833  0.1177
15673TIP3    H268435   3.349   5.551   6.175  0.3959 -1.3258  1.6669
15674TIP3   OH268436   2.392   6.687   2.864 -0.0015  0.0813  0.5340
15674TIP3    H168437   2.358   6.692   2.954  0.2134 -3.1353  0.9252
15674TIP3    H268438   2.452   6.761   2.857  1.8880 -0.8973  3.9499
15675TIP3   OH268439   6.632   3.483  17.066  0.5171  0.1820  0.2013
15675TIP3    H168440   6.629   3.541  16.989 -0.0898  0.3414  0.3412
15675TIP3    H268441   6.540   3.472  17.091  0.6787 -0.2755  0.6040
15676TIP3   OH268442   0.732   1.852   0.086  0.0048 -0.3976 -0.0377
15676TIP3    H168443   0.661   1.913   0.064 -0.6556 -1.1287  0.0363
15676TIP3    H268444   0.736   1.854   0.182  1.8926  1.6617 -0.0816
15677TIP3   OH268445   5.985   5.832   2.085  0.1928  0.0565 -0.0785
15677TIP3    H168446   5.977   5.798   1.996 -1.3641 -1.7176  0.6743
15677TIP3    H268447   6.067   5.794   2.118  1.7437  2.1718 -1.2774
15678TIP3   OH268448   4.619   2.350  14.940 -0.1954 -0.4043  0.1089
15678TIP3    H168449   4.653   2.347  15.029  1.1048 -1.9239 -0.3926
15678TIP3    H268450   4.685   2.398  14.890 -0.9041  0.4183 -0.0806
15679TIP3   OH268451   3.706   6.717  15.546 -0.1640  0.5005  0.2382
15679TIP3    H168452   3.754   6.794  15.576 -0.0744  0.4135  0.3227
15679TIP3    H268453   3.775   6.653  15.527 -0.2030  0.6798 -0.5190
15680TIP3   OH268454   3.653   4.809   2.975  0.6506 -0.3199 -0.6591
15680TIP3    H168455   3.601   4.832   2.898  0.6989  1.2061 -0.2627
15680TIP3    H268456   3.601   4.840   3.050  0.0414 -2.8035  0.0604
15681TIP3   OH268457   5.504   1.479   0.037  0.1315  0.1910  0.0033
15681TIP3    H168458   5.528   1.389   0.015 -2.3809 -0.7432  0.7098
15681TIP3    H268459   5.437   1.502  -0.028 -1.3293  0.4529  1.5402
15682TIP3   OH268460   2.853   3.161   4.436  0.8651 -0.5581  0.4757
15682TIP3    H168461   2.904   3.241   4.446  0.6462 -0.0857 -1.7707
15682TIP3    H268462   2.764   3.185   4.462  0.7181  0.0566 -0.5610
15683TIP3   OH268463   3.363   5.657   0.091  0.4347 -0.1972 -0.0402
15683TIP3    H168464   3.405   5.741   0.073  0.3864 -0.0839  0.3616
15683TIP3    H268465   3.322   5.632   0.008 -0.3201  0.6260  0.0626
15684TIP3   OH268466   2.555   2.778   6.569  0.4743  0.3417 -0.0191
15684TIP3    H168467   2.624   2.712   6.559  0.6647  0.5976 -0.4561
15684TIP3    H268468   2.565   2.834   6.492  0.6750  1.2123  0.6271
15685TIP3   OH268469   5.401   2.407  15.154 -0.4353 -0.2572  0.6466
15685TIP3    H168470   5.490   2.389  15.125 -0.6419 -0.9736  0.4244
15685TIP3    H268471   5.368   2.322  15.182 -1.8533 -0.5143 -1.5318
15686TIP3   OH268472   3.074   1.167  15.025 -0.4745 -0.1578 -0.0841
15686TIP3    H168473   3.040   1.204  14.943  2.1836 -0.0976 -1.2846
15686TIP3    H268474   3.098   1.243  15.078 -1.7239 -0.1998  0.5654
15687TIP3   OH268475   4.535   3.925   0.479 -0.1958  0.2069  0.3939
15687TIP3    H168476   4.466   3.987   0.453  0.1703  0.6759  0.5260
15687TIP3    H268477   4.492   3.866   0.540 -0.7272 -0.0946 -0.2550
15688TIP3   OH268478   2.048   4.605   4.985  0.6323  0.1331 -0.1281
15688TIP3    H168479   2.056   4.701   4.984 -0.6323  0.3591  2.0996
15688TIP3    H268480   1.968   4.588   4.935  0.9784  0.2189 -0.7135
15689TIP3   OH268481   1.485   1.842  16.321 -0.0019  0.3656  0.1635
15689TIP3    H168482   1.448   1.817  16.236 -3.3065  3.3415  0.4649
15689TIP3    H268483   1.424   1.804  16.384 -0.5979  2.4149  0.8840
15690TIP3   OH268484   0.527   0.371   4.755  0.3991  0.7265 -0.3033
15690TIP3    H168485   0.468   0.441   4.727  0.7248  0.4712 -1.7339
15690TIP3    H268486   0.535   0.314   4.678  0.4283 -0.6893  0.7037
15691TIP3   OH268487   6.543   4.469   6.237 -0.0158  0.1745  0.4071
15691TIP3    H168488   6.575   4.439   6.322 -0.3124  0.6714  0.6994
15691TIP3    H268489   6.518   4.560   6.252 -0.8094  0.0307 -0.0107
15692TIP3   OH268490   6.409   0.899  14.312 -0.0640 -0.2568  0.4020
15692TIP3    H168491   6.424   0.966  14.378  1.2796 -0.2178  0.0865
15692TIP3    H268492   6.480   0.836  14.325  0.5399  0.0231 -1.3096
15693TIP3   OH268493   3.240   3.681  14.673 -0.0090 -0.2559 -0.0516
15693TIP3    H168494   3.255   3.739  14.599  0.4873  0.0174  0.2604
15693TIP3    H268495   3.186   3.732  14.733  0.4554 -0.0982  0.2375
15694TIP3   OH268496   0.288   1.998  15.790 -0.1519  0.4240  0.1125
15694TIP3    H168497   0.237   2.009  15.710 -2.6733 -0.3597  1.5143
15694TIP3    H268498   0.300   2.087  15.823  1.0870  0.7777 -1.1582
15695TIP3   OH268499   1.703   1.384  13.672 -0.1772 -0.4847 -0.2439
15695TIP3    H168500   1.689   1.290  13.668  2.5207 -0.9517 -2.1022
15695TIP3    H268501   1.797   1.395  13.656  0.2231  2.3952  2.9204
15696TIP3   OH268502   5.955   1.789   3.176  0.9450  0.0732  0.4076
15696TIP3    H168503   5.951   1.864   3.235  1.7071  0.0324  0.5138
15696TIP3    H268504   5.897   1.814   3.103  0.0015  0.1169  1.1509
15697TIP3   OH268505   5.901   0.829   4.187  0.3789  0.2108 -0.5086
15697TIP3    H168506   5.814   0.820   4.147 -0.3195  0.1348  0.9524
15697TIP3    H268507   5.958   0.773   4.134 -0.6190 -0.3105 -1.0601
15698TIP3   OH268508   5.972   3.819  15.010 -0.0624  0.2769 -0.1401
15698TIP3    H168509   5.885   3.850  14.985 -1.0149 -2.5686 -0.7962
15698TIP3    H268510   5.971   3.822  15.106 -1.6934 -1.4585 -0.0369
15699TIP3   OH268511   4.812   4.026   6.485  0.8050 -0.1411  0.1589
15699TIP3    H168512   4.890   4.007   6.538  0.2722  1.8590  1.8039
15699TIP3    H268513   4.745   4.050   6.549 -0.8622 -0.7567 -1.2916
15700TIP3   OH268514   4.742   6.169   4.262 -0.1392 -0.2220 -0.2758
15700TIP3    H168515   4.773   6.188   4.351  1.0012  0.1625 -0.7473
15700TIP3    H268516   4.821   6.161   4.210 -0.8290  0.5085 -1.4669
15701TIP3   OH268517   3.969   3.462   5.641  0.3159 -0.5905  0.2546
15701TIP3    H168518   4.062   3.480   5.636  0.6346 -1.7219  1.5744
15701TIP3    H268519   3.955   3.388   5.582  0.1345 -0.0725 -0.3667
15702TIP3   OH268520   0.858   6.562   2.042 -0.4621  0.1745  0.1653
15702TIP3    H168521   0.887   6.650   2.066  1.3169 -0.0989 -0.7565
15702TIP3    H268522   0.775   6.575   1.997 -0.6087  1.2959  0.7271
15703TIP3   OH268523   5.795   5.427  11.193  0.1854 -0.0794 -0.4813
15703TIP3    H168524   5.798   5.447  11.100 -0.7692  0.9497 -0.3105
15703TIP3    H268525   5.712   5.465  11.223  1.9955  2.7060  1.5021
15704TIP3   OH268526   1.704   0.027   6.380 -0.2774 -0.3432 -0.0473
15704TIP3    H168527   1.696   0.120   6.402  0.2673 -0.6891  1.7406
15704TIP3    H268528   1.794   0.004   6.405 -0.0969 -1.1636 -1.3302
15705TIP3   OH268529   2.073   5.977  10.261 -1.0305 -0.2516  0.3033
15705TIP3    H168530   2.152   6.026  10.235 -1.1093 -0.1218  0.3047
15705TIP3    H268531   2.023   6.040  10.314 -1.0240 -0.4103  0.4977
15706TIP3   OH268532   4.411   3.580   6.008 -0.3371  0.1362 -0.2092
15706TIP3    H168533   4.469   3.505   5.993 -1.7279 -1.3571  1.3735
15706TIP3    H268534   4.387   3.609   5.920  0.6954 -0.8980 -0.8676
15707TIP3   OH268535   3.574   0.198  13.915 -0.3200  0.3611 -0.0606
15707TIP3    H168536   3.578   0.103  13.905 -1.1298  0.2248  0.8079
15707TIP3    H268537   3.547   0.212  14.006 -0.0966  1.4274 -0.1447
15708TIP3   OH268538   5.306   3.652  13.525 -0.3550  0.0540  0.3193
15708TIP3    H168539   5.392   3.673  13.488 -1.3477 -1.1417 -3.1149
15708TIP3    H268540   5.318   3.657  13.619  2.9882  1.6930 -0.0519
15709TIP3   OH268541   6.067   4.046  14.320  0.1550  0.3134 -0.0816
15709TIP3    H168542   6.136   4.067  14.256  0.5922  0.1677  0.3318
15709TIP3    H268543   6.108   4.064  14.405  0.1852 -1.1618  0.2506
15710TIP3   OH268544   2.569   2.422   2.278 -1.1378  0.0379  0.2248
15710TIP3    H168545   2.516   2.372   2.216  0.6912 -0.6166 -0.8931
15710TIP3    H268546   2.614   2.355   2.331 -0.0661  0.4988 -0.0680
15711TIP3   OH268547   0.401   4.802  14.526  0.7008  0.4938  0.3235
15711TIP3    H168548   0.358   4.749  14.459  0.9792  0.6855 -0.0137
15711TIP3    H268549   0.446   4.738  14.582  1.1491  0.3693 -0.1624
15712TIP3   OH268550   1.142   4.154  16.870  0.2164 -0.9644 -0.4458
15712TIP3    H168551   1.047   4.146  16.860  0.2310 -0.2334 -1.3398
15712TIP3    H268552   1.165   4.229  16.815  1.1792 -0.4806  0.5961
15713TIP3   OH268553   2.438   5.399  14.103  0.2162  0.0937  0.0241
15713TIP3    H168554   2.385   5.388  14.024  2.4385 -0.9411 -1.4645
15713TIP3    H268555   2.454   5.493  14.109  0.5234  0.1305 -1.1588
15714TIP3   OH268556   2.981   2.714   4.978 -0.0854 -0.4117 -0.2660
15714TIP3    H168557   3.000   2.765   4.899 -1.1681 -0.7390 -0.7528
15714TIP3    H268558   2.985   2.779   5.049  0.7096 -0.0813 -0.5906
15715TIP3   OH268559   2.429   3.946  10.456 -0.0730 -0.5646 -0.7228
15715TIP3    H168560   2.388   4.026  10.488  0.9058 -0.1988 -0.3486
15715TIP3    H268561   2.363   3.878  10.472  1.0687 -0.9100  4.5000
15716TIP3   OH268562   6.077   0.925   3.929  0.1820  0.3132  0.0893
15716TIP3    H168563   6.146   0.866   3.898  1.1600  0.8257  1.1930
15716TIP3    H268564   6.121   1.010   3.938 -0.7710  0.8112  0.1603
15717TIP3   OH268565   6.578   2.383  10.779  0.3240 -0.1788  0.2193
15717TIP3    H168566   6.660   2.339  10.800  1.5130  1.7249 -0.1841
15717TIP3    H268567   6.593   2.475  10.801 -1.1306  0.4992 -1.3439
15718TIP3   OH268568   1.379   3.161   0.274 -0.0315 -0.0859 -0.0064
15718TIP3    H168569   1.363   3.077   0.317 -0.0492  0.2447  0.6607
15718TIP3    H268570   1.471   3.181   0.293 -0.2697  0.4630  0.6133
15719TIP3   OH268571   5.625   2.639   3.997  0.4172 -0.2128 -0.0291
15719TIP3    H168572   5.581   2.555   4.009 -0.8856  0.5109  0.3573
15719TIP3    H268573   5.563   2.692   3.947  0.5553  1.0522  1.1008
15720TIP3   OH268574   5.396   2.306   0.592  0.1028  0.0686 -0.1666
15720TIP3    H168575   5.351   2.298   0.508 -1.2804 -1.2757  0.6487
15720TIP3    H268576   5.455   2.231   0.596 -1.6877 -1.3645  1.0688
15721TIP3   OH268577   0.864   6.223   3.386  0.0344  0.2305 -0.0988
15721TIP3    H168578   0.866   6.128   3.384 -0.1673  0.1777  1.0900
15721TIP3    H268579   0.781   6.247   3.345 -1.4066 -0.2821  2.3228
15722TIP3   OH268580   2.367   2.337   5.200 -0.0768  0.5723 -0.1213
15722TIP3    H168581   2.317   2.358   5.279 -0.4800 -0.7462  0.0025
15722TIP3    H268582   2.419   2.260   5.224 -0.9805 -0.5050 -1.4140
15723TIP3   OH268583   3.387   2.494   5.106  0.2119 -0.3995  0.4967
15723TIP3    H168584   3.323   2.508   5.037  0.1423 -1.6415  0.2860
15723TIP3    H268585   3.338   2.505   5.187 -0.5104 -2.1696  0.3445
15724TIP3   OH268586   0.570   0.934  16.583  0.0190 -0.2940  0.2395
15724TIP3    H168587   0.614   1.014  16.614  0.7115  0.5061 -2.5462
15724TIP3    H268588   0.560   0.947  16.489 -1.9650 -2.5448  0.0544
15725TIP3   OH268589   3.088   5.879  16.066  0.2670 -0.2206 -0.6980
15725TIP3    H168590   3.002   5.918  16.082 -0.0358 -1.0488 -0.2663
15725TIP3    H268591   3.076   5.785  16.082  1.6079 -0.1589  0.8761
15726TIP3   OH268592   2.060   0.279   5.126 -0.2751 -0.3629  0.1269
15726TIP3    H168593   2.103   0.197   5.100 -0.8460 -1.5307  2.5702
15726TIP3    H268594   2.028   0.262   5.215 -0.2763  2.5879  0.7796
15727TIP3   OH268595   2.458   3.771  13.038  0.5905 -0.1540  0.3230
15727TIP3    H168596   2.494   3.747  12.952  1.4861  0.0919  0.6204
15727TIP3    H268597   2.373   3.810  13.018  0.4693 -0.7597 -0.3971
15728TIP3   OH268598   0.795   0.182   2.672 -0.2584 -0.0529  0.1878
15728TIP3    H168599   0.759   0.196   2.584 -1.1762  0.7252  0.6719
15728TIP3    H268600   0.859   0.112   2.660 -1.9668 -1.5667 -0.7148
15729TIP3   OH268601   5.184   6.021   5.738 -0.3292  0.2371  0.4206
15729TIP3    H168602   5.093   6.001   5.762  0.1909 -0.9220  1.5683
15729TIP3    H268603   5.232   6.015   5.821  0.7389  1.1999 -0.1117
15730TIP3   OH268604   5.937   5.255  12.884  0.2996  0.2279 -0.6271
15730TIP3    H168605   5.955   5.339  12.927 -2.1599  0.9075 -0.7978
15730TIP3    H268606   5.843   5.241  12.897  0.8090 -3.0680  0.3417
15731TIP3   OH268607   4.482   4.438   1.837 -0.0065 -0.0632  0.0832
15731TIP3    H168608   4.492   4.355   1.882 -1.6962 -0.5320 -0.3096
15731TIP3    H268609   4.481   4.415   1.744  1.4236  0.6513 -0.1390
15732TIP3   OH268610   3.073   3.833   2.882 -0.4299  0.4218 -0.4738
15732TIP3    H168611   2.996   3.886   2.860 -0.9811 -0.9652 -2.1273
15732TIP3    H268612   3.140   3.861   2.819  0.0426  0.7440  0.1549
15733TIP3   OH268613   0.817   1.295  15.204  0.4949  0.5594 -0.0981
15733TIP3    H168614   0.739   1.329  15.159 -0.4657 -0.1365  0.9561
15733TIP3    H268615   0.852   1.229  15.144  1.5077  2.2992 -1.4949
15734TIP3   OH268616   0.851   5.482  11.222 -0.4334 -0.2589  0.2222
15734TIP3    H168617   0.867   5.469  11.128  0.6833  1.2321  0.1586
15734TIP3    H268618   0.865   5.576  11.235  0.1434 -0.5651  2.0128
15735TIP3   OH268619   3.606   5.357   4.540 -0.5356  0.2293 -0.0183
15735TIP3    H168620   3.574   5.280   4.586  0.7391  0.3088  1.0679
15735TIP3    H268621   3.691   5.376   4.581 -0.9260  2.3706 -0.0579
15736TIP3   OH268622   6.528   4.576   1.048 -0.7614 -0.1250 -0.4777
15736TIP3    H168623   6.483   4.518   0.987  0.5010 -0.8629 -0.7340
15736TIP3    H268624   6.513   4.537   1.134 -1.2373  0.0426 -0.4867
15737TIP3   OH268625   2.136   6.765  16.531 -0.5310  0.4611 -0.0314
15737TIP3    H168626   2.083   6.758  16.452  2.3149 -1.2282 -2.0085
15737TIP3    H268627   2.129   6.679  16.573  1.3746 -0.2262 -0.9727
15738TIP3   OH268628   5.155   5.662   2.693 -0.2168 -0.0850  0.2807
15738TIP3    H168629   5.173   5.692   2.603  0.2473  2.0073  1.0104
15738TIP3    H268630   5.179   5.737   2.748  0.0521 -1.5165  2.2096
15739TIP3   OH268631   1.615   4.949   2.085  0.0593 -0.1739  0.4329
15739TIP3    H168632   1.635   5.035   2.048  3.2365 -0.7489  0.5054
15739TIP3    H268633   1.634   4.887   2.015 -0.0196 -0.9381  1.0625
15740TIP3   OH268634   2.412   2.273  14.897 -0.4886 -0.7098 -0.0596
15740TIP3    H168635   2.432   2.349  14.842 -1.2044  0.6575  1.4864
15740TIP3    H268636   2.494   2.254  14.942  0.0942 -1.8193 -1.4854
15741TIP3   OH268637   3.799   0.335  12.472 -0.1124  0.5005  0.1097
15741TIP3    H168638   3.717   0.353  12.425 -0.7021  0.6505  1.1612
15741TIP3    H268639   3.838   0.421  12.486 -0.2008  0.5021  0.3494
15742TIP3   OH268640   1.255   0.790   0.796  0.0956 -0.5421 -0.0089
15742TIP3    H168641   1.193   0.863   0.787  0.0224 -0.7152 -0.9613
15742TIP3    H268642   1.322   0.806   0.730  0.1518 -1.2636 -0.1388
15743TIP3   OH268643   4.052   1.222  14.269  0.0540  0.0210  0.1418
15743TIP3    H168644   3.987   1.273  14.220  0.9640  0.6565 -0.4312
15743TIP3    H268645   4.112   1.287  14.304  0.9056 -0.6170 -0.1121
15744TIP3   OH268646   2.036   5.608  14.921 -0.1196  0.2088 -0.2115
15744TIP3    H168647   2.000   5.524  14.949 -0.5196  0.9561  1.6701
15744TIP3    H268648   2.128   5.590  14.902 -0.2448 -0.6909  0.0239
15745TIP3   OH268649   0.580   3.556  16.920  0.7602  0.3130 -0.2481
15745TIP3    H168650   0.614   3.645  16.924 -0.8641  1.0682 -1.9186
15745TIP3    H268651   0.486   3.566  16.912  0.4792 -1.5974  0.1911
15746TIP3   OH268652   5.190   2.480   4.911  0.0382  0.0922  0.0635
15746TIP3    H168653   5.202   2.573   4.895 -2.1015  0.4823  0.4834
15746TIP3    H268654   5.218   2.467   5.002 -1.0195  0.6133  0.4681
15747TIP3   OH268655   4.764   0.265   4.367 -0.1506  0.5612 -0.3361
15747TIP3    H168656   4.673   0.243   4.386 -0.1791  0.6653 -0.3484
15747TIP3    H268657   4.811   0.183   4.378 -0.4952  0.1061 -1.9190
15748TIP3   OH268658   1.457   2.374   4.796  0.2876  0.0354  0.1781
15748TIP3    H168659   1.524   2.331   4.849 -1.3559 -1.0533  1.4920
15748TIP3    H268660   1.439   2.456   4.842 -0.6718 -0.6089  1.0076
15749TIP3   OH268661   3.573   2.872  12.350  0.4282 -0.4448  0.0225
15749TIP3    H168662   3.562   2.962  12.381  0.6995 -0.0677 -0.9191
15749TIP3    H268663   3.563   2.878  12.255  0.1638 -1.4627 -0.0303
15750TIP3   OH268664   5.861   5.242  13.597  0.0877  0.1326  0.0086
15750TIP3    H168665   5.810   5.191  13.659  0.4396  1.3515  1.3510
15750TIP3    H268666   5.837   5.207  13.511 -1.1407 -0.9363  0.7594
15751TIP3   OH268667   2.062   3.695   3.080  0.1620  0.3780  0.0016
15751TIP3    H168668   2.100   3.613   3.048 -1.3175 -0.5004  0.4190
15751TIP3    H268669   2.041   3.743   3.000 -1.7146 -0.9690 -0.3914
15752TIP3   OH268670   1.417   1.911  14.566 -0.2397  0.1638  0.0781
15752TIP3    H168671   1.443   1.947  14.650 -2.7883 -0.1337  1.1027
15752TIP3    H268672   1.373   1.983  14.521 -3.7477 -0.9373  1.3895
15753TIP3   OH268673   1.240   5.218  17.066  0.8108 -0.2068 -0.1416
15753TIP3    H168674   1.157   5.177  17.091 -0.6243  3.0495  1.0159
15753TIP3    H268675   1.292   5.218  17.146  0.4271  0.9593  0.1246
15754TIP3   OH268676   3.787   1.369   3.010 -0.2882 -0.2617  0.1407
15754TIP3    H168677   3.784   1.427   2.934  1.3985  2.5945  2.0882
15754TIP3    H268678   3.770   1.282   2.973 -2.2256  1.2590 -3.0496
15755TIP3   OH268679   2.298   0.749   3.927  0.1430 -0.5507  0.1593
15755TIP3    H168680   2.368   0.705   3.974 -0.4695 -1.2237  0.4594
15755TIP3    H268681   2.273   0.688   3.858 -0.1306 -0.3039  0.0340
15756TIP3   OH268682   0.568   0.891  12.566 -0.3482 -0.3842 -0.2825
15756TIP3    H168683   0.642   0.831  12.580 -0.8286 -0.8731  0.2014
15756TIP3    H268684   0.596   0.973  12.607  0.4442 -0.1618 -1.2277
15757TIP3   OH268685   5.397   1.738   0.143 -0.5382  0.2466  0.1422
15757TIP3    H168686   5.302   1.738   0.131 -0.5988 -0.2158  0.5718
15757TIP3    H268687   5.422   1.647   0.129 -0.0469  0.4982 -0.7326
15758TIP3   OH268688   2.550   3.849  12.147  0.0445  0.1611 -0.2868
15758TIP3    H168689   2.564   3.942  12.127  0.7516  0.2269  0.4424
15758TIP3    H268690   2.475   3.824  12.093  1.1590  0.5853 -2.1447
15759TIP3   OH268691   0.717   0.025   5.691 -0.1819  0.1228  0.2487
15759TIP3    H168692   0.623   0.026   5.673  0.1959 -2.4300 -2.5372
15759TIP3    H268693   0.734  -0.062   5.728  1.0422  0.7875  1.3545
15760TIP3   OH268694   1.715   1.718  16.090 -0.0405  0.1018 -0.5756
15760TIP3    H168695   1.750   1.783  16.152  1.0894  1.2952 -2.3363
15760TIP3    H268696   1.645   1.764  16.045 -1.3472 -1.0004  0.2719
15761TIP3   OH268697   5.009   0.121   6.568 -0.9343  0.1217 -0.4068
15761TIP3    H168698   5.100   0.139   6.592 -0.2565 -0.5622 -2.2752
15761TIP3    H268699   4.958   0.146   6.645  0.8316  0.5121  0.6819
15762TIP3   OH268700   3.404   4.960  16.566 -0.8532 -0.1428 -0.3107
15762TIP3    H168701   3.446   4.957  16.480 -1.9337 -4.1689 -0.8595
15762TIP3    H268702   3.476   4.950  16.628 -0.3219  0.1471 -0.8721
15763TIP3   OH268703   1.641   4.360  12.627 -0.0381  0.0932 -0.1338
15763TIP3    H168704   1.554   4.322  12.638 -0.8412  0.6092 -3.7202
15763TIP3    H268705   1.700   4.285  12.632 -0.8945 -0.5832  0.0782
15764TIP3   OH268706   2.902   2.206   4.607 -0.5998 -0.0394 -0.3332
15764TIP3    H168707   2.943   2.170   4.686  0.8627 -0.1140 -1.1058
15764TIP3    H268708   2.874   2.294   4.633 -0.8924 -0.3633  0.4981
15765TIP3   OH268709   2.307   3.652   3.225  0.3144 -0.1279 -0.3328
15765TIP3    H168710   2.222   3.676   3.188  0.4208 -0.2784 -0.6741
15765TIP3    H268711   2.352   3.735   3.238 -0.4619  0.0903  1.2712
15766TIP3   OH268712   4.482   3.111  15.476  0.4001 -0.2282 -0.3584
15766TIP3    H168713   4.422   3.111  15.550 -0.5921 -2.0230 -1.1098
15766TIP3    H268714   4.476   3.023  15.439  1.1293  0.4866 -2.3520
15767TIP3   OH268715   4.009   3.377   1.155  0.0736  0.3442  0.1131
15767TIP3    H168716   4.012   3.333   1.070  2.0977  1.0643 -0.2499
15767TIP3    H268717   3.932   3.341   1.198  0.4075 -1.9201 -1.0152
15768TIP3   OH268718   4.292   4.077  11.752  0.0326 -0.2429  0.1453
15768TIP3    H168719   4.380   4.053  11.780 -0.6850 -2.4201  0.7433
15768TIP3    H268720   4.244   3.994  11.749 -1.4313  0.5795 -2.2910
15769TIP3   OH268721   0.177   1.317   2.930  0.4877 -0.4899  0.2017
15769TIP3    H168722   0.127   1.349   2.854 -0.9149 -0.5836  1.0441
15769TIP3    H268723   0.116   1.326   3.003  1.0884 -2.3339  0.9688
15770TIP3   OH268724   3.318   1.781   0.142  0.0461 -0.5332 -0.4977
15770TIP3    H168725   3.245   1.774   0.080 -1.5600 -0.3283  1.2619
15770TIP3    H268726   3.372   1.705   0.124 -1.3802 -1.4968 -0.9366
15771TIP3   OH268727   1.050   5.577   2.680  0.3236  0.0012  0.1548
15771TIP3    H168728   1.145   5.573   2.694  0.5084  1.6120 -0.4742
15771TIP3    H268729   1.040   5.580   2.585 -0.4830 -2.0228  0.1174
15772TIP3   OH268730   5.651   2.193  12.448  0.1598 -0.0741 -0.2039
15772TIP3    H168731   5.602   2.180  12.529 -0.7307  1.1446 -0.5031
15772TIP3    H268732   5.741   2.206  12.475 -0.2280  0.9067  0.6559
15773TIP3   OH268733   3.644   3.616  17.151  0.5102  0.3305 -0.3535
15773TIP3    H168734   3.605   3.703  17.156 -1.1881 -0.3833 -0.6870
15773TIP3    H268735   3.612   3.580  17.068  0.9017 -0.7465 -0.0531
15774TIP3   OH268736   3.623   2.238   0.825 -0.0111  0.4469 -0.1807
15774TIP3    H168737   3.684   2.253   0.753 -0.4519  1.1002 -0.4205
15774TIP3    H268738   3.629   2.144   0.842  1.2175  0.5355 -0.0576
15775TIP3   OH268739   1.910   1.822   0.750 -0.0945 -0.0323  0.5071
15775TIP3    H168740   1.916   1.910   0.789  0.5740  0.8811 -1.4999
15775TIP3    H268741   2.001   1.797   0.732 -0.2704 -1.2256  1.1787
15776TIP3   OH268742   4.939   1.419  15.447 -0.3301 -0.3186  0.0387
15776TIP3    H168743   5.017   1.474  15.461  0.2220 -0.9176 -0.6472
15776TIP3    H268744   4.972   1.340  15.405 -1.1838 -1.0105  0.6373
15777TIP3   OH268745   4.869   0.874   2.127  0.1969  0.4133 -0.0328
15777TIP3    H168746   4.891   0.813   2.198 -0.7365  0.7168  0.5287
15777TIP3    H268747   4.943   0.867   2.066 -0.8112 -2.8394 -1.0629
15778TIP3   OH268748   1.540   0.352   4.666 -0.2725 -0.5502  0.1722
15778TIP3    H168749   1.613   0.315   4.715  0.2050 -0.0606 -0.1635
15778TIP3    H268750   1.533   0.442   4.698  1.4899  0.5284 -2.1863
15779TIP3   OH268751   4.810   3.704   3.650  0.1181  0.6018  0.4510
15779TIP3    H168752   4.786   3.671   3.737  0.1004  0.8546  0.5426
15779TIP3    H268753   4.899   3.739   3.662  0.2977  0.2161  0.2570
15780TIP3   OH268754   4.855   1.453  13.818  0.5822  1.0013  0.5961
15780TIP3    H168755   4.832   1.486  13.731  0.6079 -0.0167  0.1932
15780TIP3    H268756   4.942   1.491  13.835  0.5599  1.2386  0.2028
15781TIP3   OH268757   0.282   5.999   1.584  0.2245  0.1078  0.7974
15781TIP3    H168758   0.277   5.926   1.646  0.8273 -0.0228  0.6943
15781TIP3    H268759   0.204   6.051   1.602  0.0096 -0.3343  1.1588
15782TIP3   OH268760   0.635   3.457  12.490 -0.9914  0.4566 -0.1395
15782TIP3    H168761   0.579   3.493  12.422 -1.1479  0.2510 -0.1203
15782TIP3    H268762   0.722   3.457  12.452 -1.4249 -1.9062 -1.2444
15783TIP3   OH268763   1.503   3.697   4.727 -0.6361  0.2449 -0.0760
15783TIP3    H168764   1.496   3.628   4.793 -0.4398  0.2964  0.0006
15783TIP3    H268765   1.591   3.733   4.739 -0.6669  0.3797 -0.2428
15784TIP3   OH268766   3.830   4.426   1.227  0.1708 -0.1390 -0.2650
15784TIP3    H168767   3.875   4.409   1.310  1.1174  1.6295 -0.3740
15784TIP3    H268768   3.801   4.517   1.233 -1.4527 -0.5512 -1.1227
15785TIP3   OH268769   1.959   5.356  13.641 -0.1046 -0.1699  0.5665
15785TIP3    H168770   2.027   5.370  13.575 -0.8663  0.7580 -0.0532
15785TIP3    H268771   1.885   5.408  13.611  0.0352  1.6174  2.9532
15786TIP3   OH268772   0.142   0.912  13.151  0.0966  0.6600  0.0946
15786TIP3    H168773   0.091   0.832  13.133  1.7955 -1.1769  2.7445
15786TIP3    H268774   0.149   0.915  13.246  1.6175  3.0310 -0.0195
15787TIP3   OH268775   0.265   3.310  16.480 -0.2577 -0.0579 -0.3741
15787TIP3    H168776   0.290   3.377  16.415  0.7025  1.1953  1.2025
15787TIP3    H268777   0.256   3.230  16.429 -0.3661  1.0416 -2.1844
15788TIP3   OH268778   4.948   2.882   2.326 -0.5351 -0.8127  0.2269
15788TIP3    H168779   4.856   2.872   2.350 -0.9046  1.5328  0.0157
15788TIP3    H268780   4.954   2.845   2.238 -0.7535 -2.9403  1.0590
15789TIP3   OH268781   1.250   0.315  12.836 -0.0676 -0.8559  0.0359
15789TIP3    H168782   1.258   0.251  12.907 -0.6884 -1.5972 -0.5574
15789TIP3    H268783   1.200   0.270  12.768  1.2248 -0.4473 -1.2256
15790TIP3   OH268784   4.449   1.316   3.707  0.0190 -0.4444 -0.3041
15790TIP3    H168785   4.477   1.289   3.795  0.1556 -0.8250 -0.4645
15790TIP3    H268786   4.506   1.267   3.647 -0.3100 -0.4556 -0.6118
15791TIP3   OH268787   5.743   2.385   0.906 -0.0539 -0.0186 -0.2068
15791TIP3    H168788   5.783   2.411   0.989  0.6355  0.1555 -0.5878
15791TIP3    H268789   5.736   2.290   0.912  0.5074 -0.0622 -0.1730
15792TIP3   OH268790   3.142   5.021   2.310 -0.2561 -0.5548 -0.1257
15792TIP3    H168791   3.091   5.018   2.229  0.4508 -0.3432 -0.5891
15792TIP3    H268792   3.158   4.930   2.331 -0.4545 -0.6129 -0.2200
15793TIP3   OH268793   4.727   0.334  14.208  0.4313 -0.4672 -0.1761
15793TIP3    H168794   4.637   0.304  14.214  0.4639 -0.6094 -0.3870
15793TIP3    H268795   4.773   0.284  14.276 -0.1908  1.7111  1.9994
15794TIP3   OH268796   6.429   6.570   0.921  0.1960  0.1010  0.0515
15794TIP3    H168797   6.397   6.542   0.836  0.8795  0.2335 -0.2525
15794TIP3    H268798   6.353   6.612   0.962 -0.2508 -0.3421 -0.3153
15795TIP3   OH268799   6.161   6.545   5.989 -0.1419 -0.2546 -0.4042
15795TIP3    H168800   6.090   6.506   6.040  0.3455 -0.0623  0.4199
15795TIP3    H268801   6.236   6.487   6.003  0.0124 -0.1667 -0.8525
15796TIP3   OH268802   0.989   5.527   1.564  0.1474 -0.0885  0.0509
15796TIP3    H168803   0.913   5.496   1.613 -0.0614 -0.0333 -0.2377
15796TIP3    H268804   1.001   5.461   1.496  2.0984 -1.6677  1.8030
15797TIP3   OH268805   4.106   6.243  15.809  0.0598 -0.3044  0.6337
15797TIP3    H168806   4.188   6.227  15.856  1.2477  1.0235 -0.8629
15797TIP3    H268807   4.064   6.157  15.803  0.3123 -0.6863  3.1855
15798TIP3   OH268808   0.831   1.162   1.285 -0.0111 -0.3326 -0.1717
15798TIP3    H168809   0.886   1.084   1.280 -2.3846 -2.0730 -1.4554
15798TIP3    H268810   0.805   1.167   1.377  2.5692  0.8227  0.5630
15799TIP3   OH268811   5.617   5.372  14.263  0.0125  0.1797  0.0376
15799TIP3    H168812   5.636   5.280  14.248 -0.0849  0.2718 -0.6759
15799TIP3    H268813   5.627   5.384  14.358 -1.6605 -0.9414  0.3982
15800TIP3   OH268814   0.610   1.082   2.777  0.4547 -0.1006 -0.2115
15800TIP3    H168815   0.545   1.152   2.772  1.6902  1.3473  1.9317
15800TIP3    H268816   0.576   1.023   2.844  1.4130  0.8406  1.1629
15801TIP3   OH268817   0.594   2.993  13.327 -0.2783  0.5636  0.1391
15801TIP3    H168818   0.522   2.934  13.350 -0.5205  0.6334 -0.4438
15801TIP3    H268819   0.559   3.049  13.258  0.5237  0.1823 -0.6028
15802TIP3   OH268820   1.229   4.118  12.857  0.1712  0.3050 -0.3660
15802TIP3    H168821   1.221   4.025  12.838 -3.6314  0.5103 -0.4926
15802TIP3    H268822   1.237   4.123  12.953  1.5564 -0.1155 -0.4342
15803TIP3   OH268823   0.083   3.982   0.701 -0.3175  0.0872  0.2206
15803TIP3    H168824   0.085   3.919   0.628  1.1760  1.5123 -1.0628
15803TIP3    H268825   0.172   4.017   0.703 -0.9888  1.8249  1.1872
15804TIP3   OH268826   2.901   6.159  15.005  0.0804 -0.6713 -0.0453
15804TIP3    H168827   2.994   6.140  15.020 -0.3977 -1.9124  1.6174
15804TIP3    H268828   2.861   6.155  15.092 -1.5873 -0.3913 -0.7617
15805TIP3   OH268829   5.305   4.651   5.713 -0.3296  0.6330  0.2649
15805TIP3    H168830   5.332   4.719   5.651  0.7939  1.1571  1.3022
15805TIP3    H268831   5.309   4.693   5.799 -0.6490 -0.4463  0.8279
15806TIP3   OH268832   4.145   4.741   1.071  0.1485  0.1937  0.2154
15806TIP3    H168833   4.174   4.681   1.140 -1.3240 -0.3076  0.4327
15806TIP3    H268834   4.050   4.741   1.078 -0.1279 -0.5804 -2.3753
15807TIP3   OH268835   5.600   6.352  16.356 -0.9502  0.1661 -0.1084
15807TIP3    H168836   5.593   6.347  16.451 -0.5856 -0.6606 -0.1232
15807TIP3    H268837   5.663   6.284  16.332  0.7973  1.8989 -0.7333
15808TIP3   OH268838   0.881   4.405   3.467  0.5695 -0.0100  0.2676
15808TIP3    H168839   0.824   4.381   3.395  0.4153 -0.9681  0.6905
15808TIP3    H268840   0.957   4.446   3.425  0.2034  0.0073 -0.3873
15809TIP3   OH268841   2.461   4.863   0.692  0.9002 -0.6449  1.2141
15809TIP3    H168842   2.549   4.848   0.729  0.7987 -2.0859  0.9476
15809TIP3    H268843   2.469   4.836   0.600  0.6854  1.1979  0.6060
15810TIP3   OH268844   0.076   4.401  11.841 -0.1611  0.3068  0.4484
15810TIP3    H168845   0.069   4.427  11.749 -0.2332  1.1293  0.6718
15810TIP3    H268846   0.164   4.430  11.867  0.2724 -0.8945  0.3542
15811TIP3   OH268847   1.880   4.767   1.179  0.1345  0.1443 -0.0790
15811TIP3    H168848   1.929   4.760   1.260 -0.5099  0.8132  0.3861
15811TIP3    H268849   1.890   4.682   1.137  0.5206 -0.1920  0.6752
15812TIP3   OH268850   1.367   5.801  15.523 -0.4756 -0.2720 -0.2691
15812TIP3    H168851   1.438   5.848  15.480  0.2149 -0.8032  0.2543
15812TIP3    H268852   1.344   5.856  15.598 -1.1171  0.2508 -0.8397
15813TIP3   OH268853   0.247   0.607   2.811  0.0891 -0.4936  0.4991
15813TIP3    H168854   0.324   0.551   2.801  0.7506  0.2281  1.3779
15813TIP3    H268855   0.282   0.692   2.834 -0.9449  0.0952 -0.0233
15814TIP3   OH268856   1.740   5.014  12.884  0.6496  0.4795 -0.7265
15814TIP3    H168857   1.814   4.958  12.860  0.1735 -0.8495  0.7917
15814TIP3    H268858   1.760   5.044  12.973 -0.7638 -0.1734 -0.1561
15815TIP3   OH268859   6.551   6.237  15.515  0.3292  0.0232 -0.1542
15815TIP3    H168860   6.603   6.221  15.593  0.6963  1.9544  0.0287
15815TIP3    H268861   6.511   6.322  15.529  0.0316  0.2048 -1.8727
15816TIP3   OH268862   4.018   0.548   4.967 -0.3880 -0.1946 -0.0127
15816TIP3    H168863   4.006   0.486   5.039 -0.4495 -0.1018  0.0576
15816TIP3    H268864   4.014   0.634   5.008 -0.1008 -0.1470 -0.0819
15817TIP3   OH268865   1.915   5.872   1.556  0.2590  0.3156 -0.0803
15817TIP3    H168866   1.882   5.782   1.556 -1.7522  0.9990 -0.4171
15817TIP3    H268867   1.851   5.921   1.609  0.7504  1.7265 -0.7379
15818TIP3   OH268868   4.181   1.527   4.658  0.1507 -0.3326 -0.2769
15818TIP3    H168869   4.101   1.519   4.710 -1.2926  0.8716 -2.1645
15818TIP3    H268870   4.215   1.613   4.681  1.8097 -1.4243  1.6245
15819TIP3   OH268871   3.973   0.847  12.600  0.1884 -0.3551 -0.4664
15819TIP3    H168872   3.952   0.890  12.683  0.1030 -0.4112 -0.4578
15819TIP3    H268873   4.062   0.875  12.579  0.0701 -0.0379 -0.5493
15820TIP3   OH268874   5.802   6.079   4.482  0.1676  0.4785 -0.7155
15820TIP3    H168875   5.793   6.155   4.425 -0.4982  0.0911 -1.1436
15820TIP3    H268876   5.756   6.008   4.436 -0.7589  0.2606  0.4840
15821TIP3   OH268877   3.530   1.743   2.830  0.0006  0.0385 -0.3129
15821TIP3    H168878   3.583   1.788   2.896 -0.4113 -1.5349  1.1856
15821TIP3    H268879   3.546   1.791   2.749  2.6620  0.4281  0.3451
15822TIP3   OH268880   2.703   6.338   4.608 -0.1814  0.1014 -0.5690
15822TIP3    H168881   2.667   6.337   4.696  1.1586  0.0926 -0.0003
15822TIP3    H268882   2.705   6.246   4.581 -0.9618  0.1413 -0.7713
15823TIP3   OH268883   0.498   5.845   2.375  0.2284 -0.1082 -0.3728
15823TIP3    H168884   0.549   5.772   2.410  0.1708 -0.8091 -1.6860
15823TIP3    H268885   0.455   5.883   2.452  0.3810 -1.3603  0.3608
15824TIP3   OH268886   0.276   1.623   6.663 -0.6258 -0.3873  0.0671
15824TIP3    H168887   0.220   1.696   6.689  0.2057 -0.1804  1.3885
15824TIP3    H268888   0.365   1.657   6.670 -0.2812 -0.9829 -1.1110
15825TIP3   OH268889   6.286   2.446  16.741 -0.1137 -0.0455  0.2765
15825TIP3    H168890   6.294   2.541  16.733  2.7699 -0.2264 -0.1221
15825TIP3    H268891   6.376   2.414  16.731 -1.0854 -2.8694 -0.1444
15826TIP3   OH268892   1.190   2.408  15.165 -0.2233 -0.2589 -0.2890
15826TIP3    H168893   1.174   2.503  15.166  1.8854  0.1377  0.2231
15826TIP3    H268894   1.199   2.384  15.257  2.1893 -0.3537 -0.4945
15827TIP3   OH268895   4.820   6.376  13.066  0.0848 -0.3782  0.1513
15827TIP3    H168896   4.867   6.423  12.997 -1.4537  1.2095  0.1272
15827TIP3    H268897   4.829   6.283  13.042 -0.7468  0.1328 -2.4342
15828TIP3   OH268898   3.852   1.661  14.047 -0.2239 -0.7210 -0.2869
15828TIP3    H168899   3.926   1.717  14.072 -0.9624  0.3651 -0.4678
15828TIP3    H268900   3.863   1.647  13.954 -1.2972  1.1241 -0.7471
15829TIP3   OH268901   5.033   6.472   2.477 -0.0295  0.3619  0.0562
15829TIP3    H168902   5.041   6.381   2.505  1.6150  0.1755 -0.8816
15829TIP3    H268903   5.006   6.466   2.385 -1.1384  0.8747  0.3246
15830TIP3   OH268904   0.467   4.987  14.730  0.0734 -0.0766  0.3283
15830TIP3    H168905   0.443   4.898  14.706 -0.2050 -0.0115  0.3554
15830TIP3    H268906   0.563   4.989  14.725  0.0876 -0.4071  0.4357
15831TIP3   OH268907   1.278   3.979  17.015 -0.1944 -0.2296 -0.1445
15831TIP3    H168908   1.228   3.904  17.045 -1.2219  0.4231 -0.1847
15831TIP3    H268909   1.215   4.032  16.966  0.4815  0.6988 -0.0345
15832TIP3   OH268910   4.138   0.086   3.234 -0.1834  0.0775 -0.6671
15832TIP3    H168911   4.045   0.099   3.220  0.2087  0.9948 -2.7816
15832TIP3    H268912   4.181   0.140   3.168  1.9286  1.3162  1.5320
15833TIP3   OH268913   6.253   0.778  16.646  0.3676  0.0300 -0.3690
15833TIP3    H168914   6.206   0.771  16.563  0.9278  1.4944 -0.8530
15833TIP3    H268915   6.188   0.755  16.713 -0.2326 -0.6862 -1.1819
15834TIP3   OH268916   2.172   4.532   2.018  0.0752  0.3217  0.3164
15834TIP3    H168917   2.253   4.581   2.028 -0.5610  1.5011 -0.0759
15834TIP3    H268918   2.141   4.518   2.108  0.7157 -0.1774  0.4700
15835TIP3   OH268919   4.777   2.634   2.036  0.5453 -0.2974  0.1207
15835TIP3    H168920   4.709   2.699   2.051 -0.7582 -1.5312 -0.2727
15835TIP3    H268921   4.761   2.602   1.947  0.1866 -2.2289  0.8268
15836TIP3   OH268922   0.752   1.907  12.685 -0.2279 -0.5491 -0.9531
15836TIP3    H168923   0.718   1.829  12.729 -0.9231  0.6640  0.8206
15836TIP3    H268924   0.807   1.949  12.751 -2.8392  2.3759 -0.3683
15837TIP3   OH268925   3.037   5.718   0.226  0.3330 -0.6374 -0.0394
15837TIP3    H168926   3.118   5.684   0.263  1.3133 -0.2083 -1.6757
15837TIP3    H268927   3.064   5.762   0.145 -1.6248 -1.1966 -1.0700
15838TIP3   OH268928   1.239   4.598  10.839  0.2466 -0.2483  0.0140
15838TIP3    H168929   1.291   4.650  10.901 -1.2016  1.4757 -0.1439
15838TIP3    H268930   1.210   4.523  10.890  0.2348  0.4299  1.0382
15839TIP3   OH268931   1.844   6.162  14.904 -0.0501 -0.1692 -0.5759
15839TIP3    H168932   1.931   6.123  14.903  0.6386  1.3192 -1.8567
15839TIP3    H268933   1.793   6.109  14.843  0.7656  0.6226 -1.9939
15840TIP3   OH268934   3.530   3.073   0.534 -0.4534 -0.0284  0.0339
15840TIP3    H168935   3.590   3.146   0.520 -1.5447  0.7804 -0.6009
15840TIP3    H268936   3.445   3.115   0.550 -0.5861 -1.0782  2.5071
15841TIP3   OH268937   6.755   2.091  14.519 -0.0519 -0.1058  0.5514
15841TIP3    H168938   6.781   2.181  14.537  0.2370 -0.3872  1.6370
15841TIP3    H268939   6.728   2.091  14.427  1.1952  0.7895  0.1658
15842TIP3   OH268940   4.200   5.521   6.668  0.3458  0.4184 -0.3530
15842TIP3    H168941   4.183   5.604   6.624  0.1716  0.7929  0.4171
15842TIP3    H268942   4.149   5.457   6.618  0.5075  0.7639 -0.9685
15843TIP3   OH268943   5.376   3.111  14.217  0.0753  0.0262  0.2035
15843TIP3    H168944   5.356   3.039  14.278  2.0940 -2.8486 -2.2068
15843TIP3    H268945   5.463   3.141  14.243  1.3201 -1.7900 -1.5611
15844TIP3   OH268946   1.654   1.675  12.530 -0.7700 -0.1173  0.4227
15844TIP3    H168947   1.634   1.682  12.437 -1.1165 -0.1784  0.4892
15844TIP3    H268948   1.664   1.765  12.560  1.6554 -0.1465 -0.1464
15845TIP3   OH268949   5.258   5.536   5.567 -0.0076  0.7330  0.0369
15845TIP3    H168950   5.226   5.504   5.482  1.1850 -0.6162  0.0619
15845TIP3    H268951   5.307   5.463   5.603 -1.2145  0.9620  2.3223
15846TIP3   OH268952   1.245   0.267   0.852  0.4299 -0.5168  0.2622
15846TIP3    H168953   1.181   0.314   0.906 -0.2822  1.2961 -2.0180
15846TIP3    H268954   1.273   0.193   0.907 -2.7893 -0.7702  1.7603
15847TIP3   OH268955   6.677   1.438  13.221 -0.7439 -0.0628 -0.1266
15847TIP3    H168956   6.661   1.371  13.288 -0.5090  1.8038  1.9075
15847TIP3    H268957   6.772   1.441  13.214 -0.7691 -0.2417 -0.5441
15848TIP3   OH268958   0.436   4.641   6.185 -0.1938 -0.5147 -0.2724
15848TIP3    H168959   0.438   4.655   6.280  0.1322 -2.0884 -0.0212
15848TIP3    H268960   0.509   4.692   6.151  0.5981 -1.1115  0.5069
15849TIP3   OH268961   0.582   2.812  11.822 -0.4658  0.6310 -0.2338
15849TIP3    H168962   0.533   2.767  11.892 -0.2239 -0.0900 -0.5205
15849TIP3    H268963   0.563   2.905  11.837  0.5765  0.6095  1.5563
15850TIP3   OH268964   6.651   2.855   3.813 -0.1759 -0.5075 -0.5839
15850TIP3    H168965   6.672   2.852   3.719 -0.3795 -0.4261 -0.6330
15850TIP3    H268966   6.565   2.897   3.817  0.8457  1.6786 -0.1867
15851TIP3   OH268967   6.102   6.080  15.460 -0.1078 -0.4649  0.3850
15851TIP3    H168968   6.030   6.140  15.480  0.1459 -0.4539  1.3355
15851TIP3    H268969   6.058   5.999  15.432 -0.5120 -0.5070  1.0936
15852TIP3   OH268970   4.001   3.068   1.974  0.0306  0.1570  0.0181
15852TIP3    H168971   3.931   3.099   1.918  0.0377 -0.0403 -0.1006
15852TIP3    H268972   3.966   3.075   2.063 -1.2359 -2.6121 -0.1691
15853TIP3   OH268973   3.400   5.873   1.348 -0.0201  0.3922 -0.5273
15853TIP3    H168974   3.477   5.834   1.390 -1.6694 -0.1777  2.2127
15853TIP3    H268975   3.391   5.824   1.266 -0.6656 -3.6836  1.6907
15854TIP3   OH268976   3.904   1.174   4.106  0.6891 -0.1447 -0.7493
15854TIP3    H168977   3.961   1.240   4.146  0.2378 -0.0274 -0.2980
15854TIP3    H268978   3.874   1.215   4.025 -0.7410  0.7970  0.2152
15855TIP3   OH268979   2.751   0.329  13.322  0.2492 -0.2763  0.1665
15855TIP3    H168980   2.769   0.346  13.229 -1.7550  0.4261 -0.1305
15855TIP3    H268981   2.827   0.366  13.368  1.5392 -1.1210 -1.1934
15856TIP3   OH268982   6.192   5.849   3.101 -0.4138  0.5915 -0.5497
15856TIP3    H168983   6.237   5.900   3.168 -1.5073  1.7477 -0.6714
15856TIP3    H268984   6.254   5.843   3.029  1.4701 -2.0791  1.0766
15857TIP3   OH268985   6.083   4.958   4.681 -0.7856 -0.6433  0.0439
15857TIP3    H168986   6.094   5.053   4.675  1.4074 -0.9249 -1.5609
15857TIP3    H268987   6.130   4.933   4.760  0.9450 -0.6330 -0.9401
15858TIP3   OH268988   6.704   4.331   3.535 -0.2639  0.3080  0.3350
15858TIP3    H168989   6.786   4.322   3.583  0.8162  0.4714 -1.3810
15858TIP3    H268990   6.637   4.293   3.593  1.1965 -0.9336  1.2631
15859TIP3   OH268991   6.671   1.771  14.149  0.8099  0.2741  0.0714
15859TIP3    H168992   6.643   1.747  14.061 -0.3980 -0.8339  0.7252
15859TIP3    H268993   6.602   1.830  14.181  0.3408 -0.6640  0.8619
15860TIP3   OH268994   3.274   2.670   0.326  0.3343 -0.1587  0.1231
15860TIP3    H168995   3.239   2.650   0.413  0.4837  1.6513  0.6521
15860TIP3    H268996   3.341   2.736   0.342  1.1619 -0.6194 -1.2769
15861TIP3   OH268997   0.566   2.197  11.178  0.8416 -0.3436 -0.1119
15861TIP3    H168998   0.508   2.268  11.152  1.7815  0.1594 -0.8904
15861TIP3    H268999   0.608   2.228  11.258  2.2877  0.6055 -1.1942
15862TIP3   OH269000   0.181   4.792   2.940 -0.1173  0.2266  0.1422
15862TIP3    H169001   0.233   4.730   2.990  1.1515  1.4476  0.3968
15862TIP3    H269002   0.241   4.828   2.875 -1.5011 -0.6598 -1.7201
15863TIP3   OH269003   2.462   6.583  13.978 -0.2233 -0.0962 -1.1230
15863TIP3    H169004   2.442   6.672  14.007  0.0700 -1.0232  2.4405
15863TIP3    H269005   2.388   6.530  14.009  0.5121 -1.3495 -1.4291
15864TIP3   OH269006   3.058   6.277  11.660  0.8986 -0.5857  0.3693
15864TIP3    H169007   3.039   6.306  11.571  1.5560  2.0214  0.9766
15864TIP3    H269008   3.153   6.262  11.661  1.0123  0.0869  0.7629
15865TIP3   OH269009   6.266   5.066   3.215  0.1061 -0.0255 -0.6045
15865TIP3    H169010   6.318   4.991   3.244 -3.3362 -1.7641  1.7790
15865TIP3    H269011   6.245   5.046   3.123 -0.4155 -1.8386 -0.1336
15866TIP3   OH269012   4.296   5.769  14.145  0.1147  0.2532  0.2723
15866TIP3    H169013   4.370   5.806  14.193  0.5705  0.3780 -0.5088
15866TIP3    H269014   4.334   5.733  14.065 -0.4533 -1.0677  0.5624
15867TIP3   OH269015   3.817   4.861   2.104 -0.2595  0.0671 -0.0141
15867TIP3    H169016   3.778   4.897   2.025 -0.1221 -2.1436 -1.1661
15867TIP3    H269017   3.830   4.769   2.085 -0.1899 -0.5584  2.6040
15868TIP3   OH269018   0.353   4.162  11.823 -0.0489 -0.2986 -0.4824
15868TIP3    H169019   0.317   4.143  11.737 -2.8865  0.5489  0.4170
15868TIP3    H269020   0.328   4.088  11.878 -1.1127  0.6192  0.3268
15869TIP3   OH269021   0.460   0.318  14.328 -1.0397  0.3788 -0.1466
15869TIP3    H169022   0.443   0.412  14.321  0.6373  0.7701  0.4508
15869TIP3    H269023   0.471   0.288  14.237 -0.6121  0.9662 -0.2925
15870TIP3   OH269024   2.142   5.028  17.193 -0.0927 -0.3118 -0.2707
15870TIP3    H169025   2.143   5.077  17.111  1.2811  0.5831  0.2318
15870TIP3    H269026   2.231   5.039  17.228 -0.7128 -0.4489  1.4411
15871TIP3   OH269027   0.935   3.547   5.474 -0.7674  0.3110 -0.2134
15871TIP3    H169028   1.012   3.522   5.422 -1.9822  0.4254 -2.1401
15871TIP3    H269029   0.930   3.480   5.542  0.5803 -0.1335 -0.5112
15872TIP3   OH269030   5.728   4.223  12.554  0.0483  0.2914 -0.7247
15872TIP3    H169031   5.727   4.149  12.494 -0.0397 -0.4984  0.2130
15872TIP3    H269032   5.648   4.213  12.606 -0.0140  1.1075 -0.6401
15873TIP3   OH269033   2.468   1.931   5.446 -0.2104 -0.0334 -0.4154
15873TIP3    H169034   2.563   1.928   5.445 -0.1699  0.8784 -1.4166
15873TIP3    H269035   2.447   2.001   5.508 -0.3207 -1.4556  1.2470
15874TIP3   OH269036   4.504   2.978  16.148  0.4158  0.0830  0.1006
15874TIP3    H169037   4.444   3.033  16.198  0.5819  0.1631  0.2122
15874TIP3    H269038   4.492   2.890  16.184  0.6355  0.1645  0.3774
15875TIP3   OH269039   6.370   4.836   0.504  0.1544  0.0523 -0.1818
15875TIP3    H169040   6.456   4.804   0.531  0.8862  0.1360 -2.2407
15875TIP3    H269041   6.308   4.777   0.548  1.3556 -1.9657 -1.0541
15876TIP3   OH269042   0.010   5.093   5.578  0.0268 -0.0428  0.0829
15876TIP3    H169043  -0.013   5.036   5.652 -1.8813 -0.2751 -0.6311
15876TIP3    H269044   0.049   5.034   5.514 -0.5991 -0.3188 -0.0608
15877TIP3   OH269045   5.880   6.720   2.821  0.1904  0.8085  0.2380
15877TIP3    H169046   5.843   6.751   2.738 -0.3190 -0.4693 -0.0380
15877TIP3    H269047   5.804   6.692   2.872  0.4350  2.1901  1.4311
15878TIP3   OH269048   1.412   3.585   2.138  0.3092 -0.5000 -0.5325
15878TIP3    H169049   1.500   3.602   2.173  0.2565  1.2621 -1.1931
15878TIP3    H269050   1.426   3.562   2.047  0.3264 -3.7936  0.1698
15879TIP3   OH269051   1.827   4.540  15.988  0.4315  0.1287  0.0029
15879TIP3    H169052   1.904   4.488  15.962  0.8189 -1.0325  3.0660
15879TIP3    H269053   1.861   4.602  16.052 -1.0277  0.1765  0.7557
15880TIP3   OH269054   0.601   3.549  12.226  0.0444 -0.6193  0.4036
15880TIP3    H169055   0.543   3.616  12.191  1.4120  1.1580  1.3400
15880TIP3    H269056   0.615   3.488  12.154 -2.8565 -1.1085  0.1317
15881TIP3   OH269057   1.465   1.464  12.142  0.0386 -0.0345 -0.0176
15881TIP3    H169058   1.384   1.484  12.096 -0.7777  1.2895  1.8991
15881TIP3    H269059   1.448   1.380  12.185  0.3020 -0.5652 -0.9109
15882TIP3   OH269060   6.372   6.139  15.240  0.7184 -0.1064  0.2051
15882TIP3    H169061   6.380   6.045  15.259  0.6037  0.0714  1.1758
15882TIP3    H269062   6.459   6.164  15.210  0.7458 -0.5256 -0.0850
15883TIP3   OH269063   3.023   6.558  14.631  0.0535  0.1118 -0.7662
15883TIP3    H169064   2.949   6.503  14.657  0.4938 -0.7042 -1.2003
15883TIP3    H269065   2.992   6.648  14.645 -1.1965 -0.1923 -1.4179
15884TIP3   OH269066   5.922   1.069   3.563  0.1056 -0.1315 -0.1628
15884TIP3    H169067   6.016   1.065   3.579 -0.2557 -1.4350  2.0764
15884TIP3    H269068   5.895   1.155   3.597  0.5632  0.6359 -1.6438
15885TIP3   OH269069   1.898   6.430   5.445  0.6419  0.4633 -0.6846
15885TIP3    H169070   1.981   6.463   5.479 -0.0149  2.1629 -0.6262
15885TIP3    H269071   1.869   6.498   5.384 -1.4392  0.6786  0.4612
15886TIP3   OH269072   0.144   2.509  11.274  0.5396  0.1147 -0.2608
15886TIP3    H169073   0.139   2.474  11.185 -0.7135 -1.1110  0.2520
15886TIP3    H269074   0.195   2.590  11.265  2.1419 -0.9905 -1.7482
15887TIP3   OH269075   1.437   2.908  16.635 -0.5256 -0.2892  0.2064
15887TIP3    H169076   1.489   2.921  16.715 -1.0966  0.4378  0.4732
15887TIP3    H269077   1.399   2.995  16.617 -1.1570 -0.6659 -0.3138
15888TIP3   OH269078   5.297   6.552   5.364 -0.5808 -0.8644  0.2092
15888TIP3    H169079   5.241   6.532   5.438 -1.3716  1.1459  0.2280
15888TIP3    H269080   5.379   6.584   5.402 -1.0911  0.4450  0.2787
15889TIP3   OH269081   2.111   3.630  12.712 -0.0499 -0.0248 -0.5843
15889TIP3    H169082   2.042   3.672  12.660  1.1966  0.1255 -2.1872
15889TIP3    H269083   2.096   3.537  12.700 -0.6948 -0.0127  0.0760
15890TIP3   OH269084   3.948   1.046  16.872  0.3448  0.1632 -0.2256
15890TIP3    H169085   4.027   1.000  16.841 -0.3700 -1.8523  0.7400
15890TIP3    H269086   3.875   0.998  16.832 -0.4453  2.1561 -1.3291
15891TIP3   OH269087   1.792   4.167  17.085  0.1054 -0.3297 -0.5376
15891TIP3    H169088   1.847   4.095  17.056 -0.6645 -0.3238 -2.1447
15891TIP3    H269089   1.838   4.246  17.057 -0.7128 -0.3279 -1.9913
15892TIP3   OH269090   1.466   5.586  14.909 -0.7274  0.9240  0.2582
15892TIP3    H169091   1.467   5.653  14.841 -0.7557  0.4360 -0.2399
15892TIP3    H269092   1.377   5.589  14.944 -0.7361  1.1299  0.2204
15893TIP3   OH269093   4.980   6.511   0.857  0.1165  0.1483 -0.2697
15893TIP3    H169094   4.938   6.569   0.921  1.7562  0.3156  0.6951
15893TIP3    H269095   5.049   6.563   0.818  0.7936 -0.7526 -0.3159
15894TIP3   OH269096   5.880   3.369   1.627 -0.0485 -0.2844 -0.5744
15894TIP3    H169097   5.953   3.373   1.688  0.3750 -2.6180 -0.8165
15894TIP3    H269098   5.916   3.399   1.543 -0.1219  1.1299 -0.1103
15895TIP3   OH269099   0.329   0.446   0.295 -0.1159 -0.4992 -0.3861
15895TIP3    H169100   0.378   0.456   0.377 -0.7347 -0.1344 -0.0537
15895TIP3    H269101   0.239   0.471   0.318 -0.7544 -2.3711 -0.6568
15896TIP3   OH269102   3.088   2.119  15.358 -0.6824  0.1806 -0.4250
15896TIP3    H169103   3.109   2.201  15.403 -0.1784  0.7058 -1.5554
15896TIP3    H269104   2.995   2.106  15.373 -0.5646  0.4484  0.5747
15897TIP3   OH269105   6.500   5.300   2.090  0.0745 -0.5752 -0.5409
15897TIP3    H169106   6.436   5.343   2.147 -0.1182 -1.3841 -0.1422
15897TIP3    H269107   6.501   5.354   2.011  1.1176  1.1962  0.5954
15898TIP3   OH269108   4.420   3.580  17.040  0.1176 -0.0361 -0.8472
15898TIP3    H169109   4.336   3.625  17.025  0.3079  0.9255  0.7261
15898TIP3    H269110   4.400   3.487  17.027 -1.8342 -0.1073  1.7280
15899TIP3   OH269111   3.715   3.882  13.416 -0.1641 -0.8901  0.0187
15899TIP3    H169112   3.647   3.832  13.371 -0.9978 -0.1557  0.4407
15899TIP3    H269113   3.756   3.934  13.346 -0.6793 -0.6155 -0.0819
15900TIP3   OH269114   6.108   5.258   5.025 -1.1125  0.3566  0.7398
15900TIP3    H169115   6.175   5.316   5.062 -0.1640  1.1077 -1.8751
15900TIP3    H269116   6.157   5.202   4.965 -2.4369 -1.2791  1.1322
15901TIP3   OH269117   5.193   0.463  11.053  0.2790 -0.2347  0.3738
15901TIP3    H169118   5.178   0.519  10.977 -0.8273 -1.6865 -0.5202
15901TIP3    H269119   5.280   0.488  11.084  0.1086  1.4571 -0.4194
15902TIP3   OH269120   6.601   2.555   5.627 -0.1962 -0.4287  0.1250
15902TIP3    H169121   6.642   2.509   5.700  1.0237  0.9022  0.3225
15902TIP3    H269122   6.649   2.525   5.550  0.1580 -0.0120  0.1769
15903TIP3   OH269123   2.171   0.718   2.857 -0.1308 -0.0960  0.2561
15903TIP3    H169124   2.162   0.710   2.952 -1.1484 -2.0613  0.0361
15903TIP3    H269125   2.216   0.638   2.831  1.5033  1.0971 -0.8086
15904TIP3   OH269126   4.106   3.368   6.228  0.3579 -0.2253 -0.2195
15904TIP3    H169127   4.123   3.327   6.144  1.4615 -2.1465  0.8749
15904TIP3    H269128   4.019   3.335   6.253  0.3785 -0.2976 -0.2429
15905TIP3   OH269129   2.955   5.539  10.920  0.3851 -0.1922 -0.4884
15905TIP3    H169130   2.917   5.550  10.833 -1.4899 -0.3147  0.2742
15905TIP3    H269131   3.042   5.502  10.903  0.2214  0.1455 -2.3093
15906TIP3   OH269132   5.057   4.669  12.902  0.7911  0.2730  0.4431
15906TIP3    H169133   4.980   4.612  12.898 -0.5350  1.9812  0.5445
15906TIP3    H269134   5.125   4.614  12.941 -1.4466 -0.2499  4.1064
15907TIP3   OH269135   5.710   1.529  11.607 -0.5492 -0.3026  0.7217
15907TIP3    H169136   5.660   1.547  11.527  0.5823  1.5000  0.3517
15907TIP3    H269137   5.739   1.616  11.636  1.6499 -1.2103  1.3853
15908TIP3   OH269138   4.769   2.156   2.229  0.2646  0.0817  0.4900
15908TIP3    H169139   4.748   2.244   2.198  0.2021  0.7496  2.3352
15908TIP3    H269140   4.705   2.100   2.186  0.5284  0.8629 -0.9871
15909TIP3   OH269141   5.508   6.538   2.144 -0.0089  0.2726  0.1750
15909TIP3    H169142   5.534   6.462   2.196  1.0014 -0.0596 -0.7708
15909TIP3    H269143   5.562   6.610   2.178  0.2286  0.1894 -0.0258
15910TIP3   OH269144   6.553   5.158  12.575 -0.0786  0.4823  0.0177
15910TIP3    H169145   6.582   5.248  12.586  0.4149  0.3818 -0.4192
15910TIP3    H269146   6.464   5.165  12.542 -0.4483  0.7977  1.0413
15911TIP3   OH269147   1.827   4.831   3.459 -0.2248  0.1106 -0.0626
15911TIP3    H169148   1.867   4.757   3.414 -0.2157 -0.9083  1.5270
15911TIP3    H269149   1.794   4.794   3.541 -2.0568  1.4612 -0.1335
15912TIP3   OH269150   4.834   1.400   2.289  0.0341 -0.3561  0.3161
15912TIP3    H169151   4.795   1.330   2.236 -0.7658  0.8407 -0.7249
15912TIP3    H269152   4.869   1.462   2.226 -2.4308  1.9620  1.0476
15913TIP3   OH269153   5.143   6.623   3.211  0.0834 -0.7269  0.4838
15913TIP3    H169154   5.072   6.559   3.216  0.0404 -0.6090  1.5640
15913TIP3    H269155   5.202   6.599   3.282  0.8663 -0.5067 -0.0814
15914TIP3   OH269156   5.870   5.658   6.338  0.7091 -0.7940  0.5500
15914TIP3    H169157   5.804   5.591   6.354 -0.6778  0.4543  0.3193
15914TIP3    H269158   5.842   5.733   6.390 -0.8161  1.4359 -3.0631
15915TIP3   OH269159   2.670   3.859  13.229 -0.4068  0.1155 -0.9000
15915TIP3    H169160   2.724   3.876  13.152 -1.1807 -0.8038 -1.6685
15915TIP3    H269161   2.581   3.881  13.201 -0.9244 -1.6708 -0.8074
15916TIP3   OH269162   4.518   5.217  14.414  0.5582  0.1581  0.0170
15916TIP3    H169163   4.547   5.219  14.323 -0.0510  1.2499 -0.1783
15916TIP3    H269164   4.422   5.217  14.409  0.5185 -0.5638  0.6545
15917TIP3   OH269165   3.999   4.206   3.387 -0.3276  0.1949  0.0303
15917TIP3    H169166   3.935   4.273   3.360 -1.5938 -0.3495  1.4910
15917TIP3    H269167   3.990   4.137   3.322  1.7432  1.7944 -2.1048
15918TIP3   OH269168   5.271   0.088   1.825  0.0913  0.3932 -0.0386
15918TIP3    H169169   5.339   0.028   1.795 -0.5804 -0.7970  0.7306
15918TIP3    H269170   5.193   0.033   1.835 -1.3634  1.9297 -2.0763
15919TIP3   OH269171   4.578   4.326  11.725 -0.2752  0.6677  0.0149
15919TIP3    H169172   4.613   4.367  11.805  0.3033  2.0361 -0.9048
15919TIP3    H269173   4.654   4.316  11.668 -0.3304 -2.0698  0.3143
15920TIP3   OH269174   5.701   5.254  12.580  0.3670  0.2663 -0.0344
15920TIP3    H169175   5.618   5.211  12.561  1.1805 -1.7781  0.6787
15920TIP3    H269176   5.742   5.266  12.494 -1.0835  2.3516 -0.5060
15921TIP3   OH269177   0.433   0.264   5.088 -0.6453 -0.3208 -0.4526
15921TIP3    H169178   0.343   0.234   5.094 -1.5173  2.1100 -0.3544
15921TIP3    H269179   0.433   0.324   5.014  1.1485 -1.0254 -1.0720
15922TIP3   OH269180   4.434   4.422   5.856  0.3783 -0.4236  0.2265
15922TIP3    H169181   4.351   4.471   5.856  0.1622 -0.7656 -0.5123
15922TIP3    H269182   4.418   4.349   5.796  0.7907 -1.2524  1.1047
15923TIP3   OH269183   6.042   3.563   4.463  0.2722 -0.5082 -0.0228
15923TIP3    H169184   5.975   3.575   4.396  0.3002  1.3150  0.2349
15923TIP3    H269185   6.018   3.482   4.507 -0.6677 -0.8716 -1.1687
15924TIP3   OH269186   6.006   0.684  16.089 -0.0542 -0.2765  0.5052
15924TIP3    H169187   6.047   0.603  16.058  0.8580  0.6129 -0.7218
15924TIP3    H269188   6.069   0.753  16.067 -1.8958  1.0756 -0.8505
15925TIP3   OH269189   3.273   1.882   2.712 -0.2085  0.0462  0.2199
15925TIP3    H169190   3.270   1.787   2.724  0.6887 -0.0185  0.0059
15925TIP3    H269191   3.189   1.913   2.745 -0.5032 -0.8203  0.3097
15926TIP3   OH269192   4.438   5.367  11.534  0.5052 -0.5836  0.5468
15926TIP3    H169193   4.506   5.428  11.562  1.8003 -1.4276 -0.6569
15926TIP3    H269194   4.438   5.373  11.438  0.3013 -2.0568  0.4310
15927TIP3   OH269195   3.723   4.597  15.331  0.1957 -0.3422 -0.6983
15927TIP3    H169196   3.750   4.632  15.416  0.5339 -1.1619 -0.4578
15927TIP3    H269197   3.776   4.645  15.267  2.1028 -1.7043 -0.2577
15928TIP3   OH269198   6.512   2.274   0.326 -0.2709 -0.7709 -0.9263
15928TIP3    H169199   6.523   2.229   0.242  0.3786  1.1631 -1.9331
15928TIP3    H269200   6.601   2.285   0.359 -0.4061 -0.1244 -0.7625
15929TIP3   OH269201   1.093   5.155  16.022  0.6486  0.0687  0.1625
15929TIP3    H169202   1.085   5.234  16.075  0.0962  0.9178 -1.1299
15929TIP3    H269203   1.176   5.115  16.050  1.7579  1.9572 -0.2828
15930TIP3   OH269204   4.356   3.366  14.650 -0.0797 -0.1820 -0.1818
15930TIP3    H169205   4.283   3.326  14.697 -0.3352 -0.8446 -1.0927
15930TIP3    H269206   4.314   3.419  14.582  0.2719  1.0718  0.5586
15931TIP3   OH269207   1.825   5.199  15.194  0.1585 -0.0275  0.1676
15931TIP3    H169208   1.740   5.238  15.174  0.5347  0.8769  0.2781
15931TIP3    H269209   1.842   5.226  15.284  1.0089  0.6289 -0.1840
15932TIP3   OH269210   4.088   5.555  12.407  0.1579  0.0578  0.1704
15932TIP3    H169211   4.133   5.596  12.333  0.5683  0.8919  0.8686
15932TIP3    H269212   4.088   5.461  12.386  1.0585  0.1887 -0.4633
15933TIP3   OH269213   0.567   0.224  13.270 -0.0642 -0.5018  0.1847
15933TIP3    H169214   0.611   0.236  13.354 -1.7297  0.1375  0.9878
15933TIP3    H269215   0.504   0.154  13.285  0.6755 -1.4844 -0.9961
15934TIP3   OH269216   3.976   5.122   2.056 -0.1909  0.4123  0.2512
15934TIP3    H169217   4.070   5.115   2.075 -0.5206  0.1869  1.9389
15934TIP3    H269218   3.939   5.041   2.091 -0.9207  0.0813 -1.2111
15935TIP3   OH269219   5.025   4.735  13.385  0.3555  0.9244 -0.1777
15935TIP3    H169220   5.085   4.733  13.310  1.5915  0.6518  0.7806
15935TIP3    H269221   5.036   4.649  13.426 -1.2366  0.6067 -0.3716
15936TIP3   OH269222   6.009   6.305   0.387 -0.1591  0.2739  0.1771
15936TIP3    H169223   5.954   6.236   0.424 -1.0763 -0.4066 -2.2569
15936TIP3    H269224   5.950   6.379   0.375  0.0720  0.4229 -0.0613
15937TIP3   OH269225   5.675   4.632   0.367 -0.9007 -0.4673 -0.4921
15937TIP3    H169226   5.718   4.690   0.429  0.8680 -1.9380 -0.2587
15937TIP3    H269227   5.586   4.622   0.401 -0.0570 -1.0466  1.7148
15938TIP3   OH269228   6.403   4.402  16.770 -0.0566 -0.0451 -0.1415
15938TIP3    H169229   6.453   4.374  16.846 -0.2307  1.6498  0.6499
15938TIP3    H269230   6.469   4.420  16.702  0.2459  0.1404  0.1998
15939TIP3   OH269231   1.945   5.627   4.816 -0.0833  0.4293 -0.3408
15939TIP3    H169232   1.864   5.677   4.820 -0.7011 -0.5665 -0.0826
15939TIP3    H269233   1.929   5.561   4.748  0.0574 -0.5214  0.5202
15940TIP3   OH269234   6.056   2.458  14.791 -0.1038  0.0157  0.4136
15940TIP3    H169235   6.085   2.487  14.705  0.2726 -0.4213  0.3917
15940TIP3    H269236   5.992   2.390  14.773  0.2760 -0.3615  0.4836
15941TIP3   OH269237   1.892   5.793  15.492  0.0970  0.0321  0.1705
15941TIP3    H169238   1.945   5.763  15.566  0.5533  0.8180  0.1777
15941TIP3    H269239   1.922   5.740  15.418 -0.5180 -0.9119  0.5870
15942TIP3   OH269240   2.044   3.213   4.124  0.0380  0.3784  0.3250
15942TIP3    H169241   2.101   3.159   4.179 -0.8947 -0.5117  0.4571
15942TIP3    H269242   2.044   3.299   4.166  1.6537  0.5466  0.0463
15943TIP3   OH269243   4.302   5.978   5.124 -0.3566  0.5493 -0.3585
15943TIP3    H169244   4.276   5.913   5.190  3.2904 -1.1572 -0.3727
15943TIP3    H269245   4.287   5.934   5.041  1.9213 -0.3290 -0.3733
15944TIP3   OH269246   5.163   1.802   3.654  0.4003  0.1065  0.3821
15944TIP3    H169247   5.154   1.791   3.749 -2.9737  0.6280  0.2532
15944TIP3    H269248   5.144   1.715   3.619  3.1117 -0.4587  0.1465
15945TIP3   OH269249   0.859   4.578  12.380 -0.2000  0.2145 -0.2061
15945TIP3    H169250   0.838   4.626  12.300  1.4511  2.2969  0.5226
15945TIP3    H269251   0.812   4.494  12.371 -1.5856  1.1421 -2.4428
15946TIP3   OH269252   0.850   4.757   6.126 -0.0916 -0.4256  0.1125
15946TIP3    H169253   0.881   4.819   6.061 -1.1416 -0.3939 -0.3757
15946TIP3    H269254   0.890   4.674   6.101 -0.5160 -0.4211 -0.6021
15947TIP3   OH269255   6.409   2.168   5.819 -0.1460 -0.4375  0.6346
15947TIP3    H169256   6.328   2.189   5.865 -0.1968 -2.3380  1.4980
15947TIP3    H269257   6.382   2.141   5.732 -0.4462 -0.9621  0.8860
15948TIP3   OH269258   5.311   1.440  12.205 -0.2861  0.4986  0.2008
15948TIP3    H169259   5.261   1.358  12.206  0.1047  0.2485 -0.0949
15948TIP3    H269260   5.319   1.465  12.297 -1.7558  1.0524  0.2053
15949TIP3   OH269261   4.901   0.412   6.477  0.3848 -0.5675  0.2710
15949TIP3    H169262   4.985   0.382   6.511  0.5013  0.0698  0.5791
15949TIP3    H269263   4.869   0.473   6.544  0.1110 -0.1058 -0.2671
15950TIP3   OH269264   3.266   6.643  12.731 -0.5965 -0.0122 -0.2093
15950TIP3    H169265   3.237   6.721  12.777 -1.4613 -1.2045  1.3411
15950TIP3    H269266   3.213   6.641  12.651  0.1213  1.4559 -0.7770
15951TIP3   OH269267   5.173   0.944   3.125  0.2543  0.3260 -0.3538
15951TIP3    H169268   5.202   1.006   3.057 -1.3773  0.3449 -1.0688
15951TIP3    H269269   5.137   1.000   3.194  0.1490  0.2280 -0.3302
15952TIP3   OH269270   1.611   3.541  14.842 -0.2584 -0.0130 -0.1525
15952TIP3    H169271   1.546   3.569  14.906 -0.2961 -2.2414  0.8789
15952TIP3    H269272   1.658   3.622  14.819 -0.5403  0.9720  2.3524
15953TIP3   OH269273   6.334   2.556  17.032 -0.3092  0.4645 -0.0673
15953TIP3    H169274   6.347   2.481  16.975 -2.1813 -1.4229  1.8261
15953TIP3    H269275   6.240   2.574  17.027 -0.3281  0.9659  1.5225
15954TIP3   OH269276   1.470   1.216   3.525  0.3258  0.2443  0.4003
15954TIP3    H169277   1.477   1.214   3.430  0.4068 -0.3419  0.4103
15954TIP3    H269278   1.432   1.130   3.547  1.7605 -0.2709  1.0045
15955TIP3   OH269279   6.167   2.596  11.069 -0.0934  0.5015  0.3543
15955TIP3    H169280   6.126   2.608  10.983 -0.7608  0.0178  0.6034
15955TIP3    H269281   6.248   2.647  11.063  1.7667 -2.3844 -1.8843
15956TIP3   OH269282   0.005   6.306  14.534  0.1205 -0.6137  0.1772
15956TIP3    H169283  -0.033   6.331  14.450  2.6991  0.9333 -0.6586
15956TIP3    H269284   0.093   6.275  14.512  0.3192 -1.6924  2.1858
15957TIP3   OH269285   1.963   2.905   3.116 -0.2475  0.2111 -0.7612
15957TIP3    H169286   1.985   2.990   3.154 -0.6707 -0.2740  0.6215
15957TIP3    H269287   1.960   2.845   3.190 -2.8671 -0.4349 -1.2804
15958TIP3   OH269288   3.795   4.793  10.502  0.5059 -0.0062 -0.1330
15958TIP3    H169289   3.878   4.760  10.537  0.3017 -0.9517 -0.5141
15958TIP3    H269290   3.729   4.732  10.534 -0.1754  1.2082  0.8678
15959TIP3   OH269291   6.579   2.418  13.462  0.6295 -0.4608  0.7236
15959TIP3    H169292   6.497   2.440  13.417  1.4034  0.9399 -0.0670
15959TIP3    H269293   6.581   2.476  13.538  1.4319  0.3658  0.0890
15960TIP3   OH269294   2.992   0.850  15.899  0.3302 -0.3699  0.0720
15960TIP3    H169295   2.923   0.905  15.862 -1.7455 -2.8959 -0.0821
15960TIP3    H269296   3.007   0.887  15.987 -0.6657  0.6918 -0.1831
15961TIP3   OH269297   0.326   1.462  11.914  0.6122 -0.0749 -0.3299
15961TIP3    H169298   0.371   1.390  11.869 -0.3402 -0.4685 -0.6647
15961TIP3    H269299   0.270   1.419  11.978  1.3719  0.4522  0.7248
15962TIP3   OH269300   0.453   0.059  12.494  0.2790 -0.4633 -0.5375
15962TIP3    H169301   0.525   0.016  12.447 -0.6112 -1.9508 -0.6110
15962TIP3    H269302   0.496   0.126  12.548  1.7425 -1.4132 -0.4548
15963TIP3   OH269303   3.964   1.333  16.913  0.0049  0.6397 -0.1184
15963TIP3    H169304   3.893   1.398  16.915  0.1365  0.8788 -1.5612
15963TIP3    H269305   3.924   1.256  16.872  0.2742  0.3708  0.1217
15964TIP3   OH269306   4.572   3.757  15.732 -0.1002  0.6210 -0.4208
15964TIP3    H169307   4.618   3.802  15.802  0.8127 -1.7576  0.6202
15964TIP3    H269308   4.535   3.827  15.678 -0.4963  2.5478  2.1684
15965TIP3   OH269309   4.875   2.745  11.674  0.3562  0.6478  0.4952
15965TIP3    H169310   4.824   2.825  11.662  1.0300  1.2480  1.4960
15965TIP3    H269311   4.885   2.736  11.769  0.4472 -0.5273  0.3951
15966TIP3   OH269312   0.623   3.916   2.622 -0.0265  0.3774  0.2189
15966TIP3    H169313   0.596   3.834   2.581  0.9867  0.4629 -0.6722
15966TIP3    H269314   0.715   3.902   2.646 -0.5562  0.3464  2.4684
15967TIP3   OH269315   2.766   2.263   3.079  0.0985  0.2281 -0.0881
15967TIP3    H169316   2.839   2.323   3.064  1.3886 -0.9421  1.2607
15967TIP3    H269317   2.718   2.300   3.153 -0.9378  1.1616 -1.1626
15968TIP3   OH269318   2.289   0.984  13.001 -0.0226  0.5147  0.0416
15968TIP3    H169319   2.317   1.045  13.070  1.7349 -0.4289  0.2152
15968TIP3    H269320   2.361   0.984  12.938 -1.3014  0.8277 -1.4840
15969TIP3   OH269321   5.909   5.496  16.759 -0.2265 -0.1052 -0.0306
15969TIP3    H169322   5.918   5.426  16.694  0.1419 -0.6278  0.5633
15969TIP3    H269323   5.859   5.455  16.830  1.8360 -0.4771  1.2851
15970TIP3   OH269324   5.959   6.448   4.202 -0.2690 -0.1400 -0.4554
15970TIP3    H169325   5.911   6.490   4.131 -0.6146  1.9886  0.9427
15970TIP3    H269326   5.926   6.490   4.281  1.5335 -0.9839  0.8122
15971TIP3   OH269327   3.508   4.027  13.537 -0.0826 -0.5157  0.5358
15971TIP3    H169328   3.466   3.967  13.598 -0.3879 -1.2298 -0.3609
15971TIP3    H269329   3.585   3.979  13.505  0.6381  0.2350  1.0893
15972TIP3   OH269330   5.027   0.423   3.325 -0.6267 -0.3053  0.4269
15972TIP3    H169331   5.086   0.437   3.251 -1.7711 -0.0567 -0.4615
15972TIP3    H269332   4.962   0.362   3.292 -0.8151 -0.6545  1.4294
15973TIP3   OH269333   6.034   2.122  12.357 -0.7055 -0.1948  0.1339
15973TIP3    H169334   5.964   2.081  12.306 -0.0457 -1.0857 -0.0700
15973TIP3    H269335   6.105   2.058  12.356 -0.3348  0.1769  1.3792
15974TIP3   OH269336   4.087   4.387   5.182  0.6310 -0.1336  0.0078
15974TIP3    H169337   4.061   4.312   5.128 -1.5404  1.2785 -1.0619
15974TIP3    H269338   4.008   4.409   5.232  0.7130  2.3110 -0.8197
15975TIP3   OH269339   3.112   2.891  15.205 -0.0526  0.9740 -0.0809
15975TIP3    H169340   3.188   2.917  15.257 -0.6328  0.1784  1.2193
15975TIP3    H269341   3.072   2.974  15.178  0.4087  1.3986  0.5193
15976TIP3   OH269342   5.952   2.065   5.365 -0.2915  0.0722 -0.4154
15976TIP3    H169343   6.003   2.137   5.401  0.4224 -1.2398  1.3119
15976TIP3    H269344   5.861   2.093   5.374 -0.0309  2.3074 -3.2490
15977TIP3   OH269345   4.648   2.284   3.460 -0.6676  0.2453 -0.5624
15977TIP3    H169346   4.715   2.245   3.516 -0.5163  1.3193  0.0285
15977TIP3    H269347   4.686   2.280   3.372  0.5539  1.5547 -0.1399
15978TIP3   OH269348   0.849   2.981  11.966 -0.1723  0.1161  0.2070
15978TIP3    H169349   0.755   3.001  11.969  0.0816  1.4437 -0.2253
15978TIP3    H269350   0.867   2.965  11.873 -0.3089 -1.9936  0.4959
15979TIP3   OH269351   6.331   3.413   4.170 -0.2187  0.3325 -0.0916
15979TIP3    H169352   6.353   3.428   4.262  1.8318 -0.4889 -0.3813
15979TIP3    H269353   6.408   3.444   4.122 -0.9794  0.1390 -1.4791
15980TIP3   OH269354   5.786   0.771   5.655 -0.7309 -0.4409  0.8614
15980TIP3    H169355   5.811   0.762   5.747 -0.3872 -0.3188  0.7812
15980TIP3    H269356   5.710   0.829   5.656 -1.5123 -1.4593  1.1770
15981TIP3   OH269357   5.301   1.303   3.186  0.0622  0.3332 -1.0114
15981TIP3    H169358   5.282   1.263   3.271  0.9428  0.9441 -0.5104
15981TIP3    H269359   5.252   1.250   3.123  0.1758 -0.7293 -0.2302
15982TIP3   OH269360   6.194   4.249  15.444  0.0360 -0.1152 -0.1528
15982TIP3    H169361   6.130   4.284  15.506  0.4508 -0.2518  0.3587
15982TIP3    H269362   6.225   4.168  15.485 -0.3684 -0.7040 -0.9744
15983TIP3   OH269363   3.457   0.164  15.210 -0.4837 -0.1808 -0.4905
15983TIP3    H169364   3.546   0.165  15.244 -0.1024  0.2577 -1.4681
15983TIP3    H269365   3.455   0.092  15.148 -0.5679  0.2872 -1.0482
15984TIP3   OH269366   1.101   3.323   3.973  0.5865  0.4071  0.0919
15984TIP3    H169367   1.125   3.413   3.994  0.0282  0.4717  0.4684
15984TIP3    H269368   1.022   3.331   3.920  2.3735  0.2935 -2.8069
15985TIP3   OH269369   3.747   2.513   1.546  0.2819  0.3005 -0.1780
15985TIP3    H169370   3.785   2.558   1.471  0.0043 -0.5543 -0.8508
15985TIP3    H269371   3.703   2.581   1.596 -1.1198  0.6216 -1.7668
15986TIP3   OH269372   4.903   4.999  12.416  0.4474 -0.1587 -0.3878
15986TIP3    H169373   4.897   4.954  12.331  1.7770 -0.9481 -0.0880
15986TIP3    H269374   4.991   5.037  12.417 -0.2771  1.5797 -0.1812
15987TIP3   OH269375   1.382   3.873   0.608 -0.2073 -0.3317 -0.2009
15987TIP3    H169376   1.301   3.850   0.654  0.1110 -1.9344 -0.3657
15987TIP3    H269377   1.429   3.789   0.600  1.1693  0.4546 -0.6769
15988TIP3   OH269378   0.697   5.494  10.363  0.2674  0.1831  0.0221
15988TIP3    H169379   0.700   5.590  10.359 -1.5261  0.2302 -2.5398
15988TIP3    H269380   0.644   5.475  10.440  0.6353  1.2312  0.5526
15989TIP3   OH269381   4.349   4.762  16.273 -0.6202 -0.2879  0.3738
15989TIP3    H169382   4.410   4.691  16.293 -1.2449 -0.5208  1.5331
15989TIP3    H269383   4.404   4.839  16.265 -0.0438 -0.7172  0.1291
15990TIP3   OH269384   1.800   2.963  16.304 -0.1125  0.1423 -0.4549
15990TIP3    H169385   1.832   2.976  16.394 -0.9670  1.3581 -0.3052
15990TIP3    H269386   1.763   2.875  16.305 -0.6318  0.3451  0.5635
15991TIP3   OH269387   1.252   3.332   4.934  0.6868 -0.2310  0.4012
15991TIP3    H169388   1.167   3.376   4.941  1.6663  2.0149 -0.5935
15991TIP3    H269389   1.240   3.247   4.976 -2.0758 -0.0388  0.1443
15992TIP3   OH269390   0.216   2.444   1.073  0.1105 -0.2588  0.5045
15992TIP3    H169391   0.139   2.443   1.016  0.1529 -0.4679  0.4511
15992TIP3    H269392   0.280   2.497   1.024 -0.5790  1.4179  1.3223
15993TIP3   OH269393   4.499   1.130   3.494  0.1429  0.5784  0.0134
15993TIP3    H169394   4.559   1.088   3.433  2.1224  1.1322  1.4842
15993TIP3    H269395   4.461   1.202   3.445 -0.0150 -0.3196 -1.2162
15994TIP3   OH269396   6.312   2.966  13.558 -0.0484 -0.0912 -0.0729
15994TIP3    H169397   6.271   2.946  13.642 -0.3811 -1.6189 -0.5647
15994TIP3    H269398   6.289   2.892  13.502  0.6169  0.6350 -1.3598
15995TIP3   OH269399   4.801   5.358  13.554 -0.0440 -0.0347  0.1582
15995TIP3    H169400   4.890   5.393  13.552  0.3347 -0.7749  2.1906
15995TIP3    H269401   4.805   5.284  13.614 -1.8366 -0.7200 -0.4793
15996TIP3   OH269402   3.051   1.278   0.497 -0.2695 -0.4355  0.3822
15996TIP3    H169403   2.996   1.208   0.533 -2.2685  0.8226 -0.0986
15996TIP3    H269404   3.063   1.255   0.405 -1.4458  0.1077  0.0678
15997TIP3   OH269405   3.358   5.790  10.516  0.0678  0.0636  0.1985
15997TIP3    H169406   3.360   5.738  10.435 -0.6855 -0.6791  0.6355
15997TIP3    H269407   3.430   5.756  10.568  0.9810  1.0081 -0.4259
15998TIP3   OH269408   4.679   6.551  16.722  0.0883 -0.1967 -0.8851
15998TIP3    H169409   4.733   6.625  16.695 -0.5909  0.6513  0.0174
15998TIP3    H269410   4.697   6.541  16.815 -0.2424 -0.8282 -0.8857
15999TIP3   OH269411   1.237   2.739   3.875  0.3210 -0.2386  0.6061
15999TIP3    H169412   1.289   2.687   3.813  0.8366  2.7588 -1.6923
15999TIP3    H269413   1.146   2.719   3.851  0.5057 -0.2321 -0.1310
16000TIP3   OH269414   5.415   6.227  16.067  0.2837  0.5067  0.1148
16000TIP3    H169415   5.431   6.265  15.981  0.4211 -0.6681 -0.4037
16000TIP3    H269416   5.491   6.170  16.082 -0.8678 -1.1456 -0.0656
16001TIP3   OH269417   1.569   5.841  12.380  0.2708  0.6691  0.4214
16001TIP3    H169418   1.632   5.773  12.356 -1.9282 -1.5660  0.6519
16001TIP3    H269419   1.615   5.923  12.360  2.8487 -0.8291 -0.3495
16002TIP3   OH269420   1.866   5.145   3.416  0.0895 -0.2056  0.4337
16002TIP3    H169421   1.863   5.051   3.437 -0.5012  0.1116  1.8964
16002TIP3    H269422   1.799   5.157   3.349  0.3601 -0.8687  0.0333
16003TIP3   OH269423   3.327   5.873   1.721 -0.0801  0.2188  0.4659
16003TIP3    H169424   3.289   5.873   1.633 -1.3517  0.3953  1.0052
16003TIP3    H269425   3.401   5.933   1.714  0.9439 -1.0950 -0.9211
16004TIP3   OH269426   5.732   2.713  14.884 -0.4002  0.0303  0.4355
16004TIP3    H169427   5.669   2.750  14.823  0.5405  0.0266 -0.5805
16004TIP3    H269428   5.681   2.689  14.961 -1.3866  1.3589  0.2250
16005TIP3   OH269429   2.191   3.001  15.933  0.7854  0.9484  0.3986
16005TIP3    H169430   2.183   3.002  16.029 -0.1153 -1.5278  0.4072
16005TIP3    H269431   2.183   2.909  15.909  0.6987  1.5431 -2.1154
16006TIP3   OH269432   2.099   3.572  13.036  0.4563 -0.7466  0.0566
16006TIP3    H169433   2.175   3.553  13.091  0.1678 -0.5517  0.5370
16006TIP3    H269434   2.133   3.625  12.964  0.6531  0.0113  0.6909
16007TIP3   OH269435   0.990   0.784  15.881 -0.5814 -0.2059  0.6058
16007TIP3    H169436   0.999   0.706  15.826 -2.7182 -0.8562  1.0895
16007TIP3    H269437   0.949   0.752  15.962 -2.7579  1.5582  0.3001
16008TIP3   OH269438   5.421   5.879   1.009  0.5787 -0.3363 -0.2772
16008TIP3    H169439   5.462   5.806   1.055 -1.5241 -1.4132  0.0236
16008TIP3    H269440   5.329   5.853   1.001 -0.7122  3.1017  1.5828
16009TIP3   OH269441   1.040   0.662  11.502 -0.3852 -0.1548 -0.8929
16009TIP3    H169442   0.995   0.690  11.422 -0.4983  0.6991 -0.5454
16009TIP3    H269443   1.077   0.743  11.538 -2.2408 -0.0922  1.1076
16010TIP3   OH269444   1.950   4.980   5.998  0.5367  0.0641  0.1991
16010TIP3    H169445   1.975   4.944   6.083 -0.0814  0.5210  0.5786
16010TIP3    H269446   1.933   5.072   6.014 -0.5868 -0.0550 -0.2029
16011TIP3   OH269447   6.514   6.276  13.687 -0.2838  0.1568  0.8830
16011TIP3    H169448   6.604   6.288  13.655 -0.1388 -1.6244  0.5293
16011TIP3    H269449   6.470   6.359  13.667  0.8140  0.4328 -0.5045
16012TIP3   OH269450   6.215   0.458   2.884 -0.4793  0.1995  0.0198
16012TIP3    H169451   6.247   0.370   2.905  1.4127  0.7308 -0.4425
16012TIP3    H269452   6.152   0.478   2.953 -2.6209 -2.3168 -1.0125
16013TIP3   OH269453   5.678   4.044  17.064  0.0354 -0.2347 -0.1562
16013TIP3    H169454   5.610   3.979  17.045 -1.5031  0.7116  1.6949
16013TIP3    H269455   5.630   4.125  17.080  1.6422  0.5970  0.7591
16014TIP3   OH269456   0.594   1.345  13.480 -0.1187 -0.2886  0.5260
16014TIP3    H169457   0.681   1.329  13.442  0.2651  0.8275  0.9029
16014TIP3    H269458   0.608   1.342  13.574 -0.9405 -2.3418  0.6512
16015TIP3   OH269459   0.770   3.398  14.408 -0.4786 -0.1471 -0.1546
16015TIP3    H169460   0.810   3.479  14.378 -2.9408  1.0745 -0.4606
16015TIP3    H269461   0.794   3.392  14.501 -0.0492  0.7968 -0.1900
16016TIP3   OH269462   6.231   1.588  13.575  0.3958  0.0640 -0.1913
16016TIP3    H169463   6.230   1.677  13.539  0.2812 -0.5596 -1.8406
16016TIP3    H269464   6.324   1.564  13.579  0.4230  0.2266  0.1942
16017TIP3   OH269465   5.211   1.223  17.009 -0.3873  0.0482  0.6762
16017TIP3    H169466   5.212   1.291  17.077  0.5967  0.4816  0.2609
16017TIP3    H269467   5.247   1.267  16.931 -3.8013  0.3317 -0.9398
16018TIP3   OH269468   1.195   0.538   5.006  0.0620  0.0272  0.4007
16018TIP3    H169469   1.107   0.515   5.035 -0.2008 -1.0903 -1.1335
16018TIP3    H269470   1.250   0.465   5.035  0.4799  0.6445  1.2125
16019TIP3   OH269471   5.204   2.360  15.517 -0.0140  0.1945 -0.0904
16019TIP3    H169472   5.193   2.288  15.454  0.4708 -1.5940  1.7426
16019TIP3    H269473   5.282   2.336  15.567  0.6279  2.4412  0.0948
16020TIP3   OH269474   3.596   4.890  10.884  0.6321 -0.2232  0.0770
16020TIP3    H169475   3.535   4.873  10.812 -0.6883 -0.0390  1.1145
16020TIP3    H269476   3.683   4.877  10.846 -0.0123  0.3363 -1.6714
16021TIP3   OH269477   1.207   1.022  12.163  0.6265 -0.0969 -0.0186
16021TIP3    H169478   1.113   1.004  12.167  0.4605  0.5867 -0.5813
16021TIP3    H269479   1.249   0.940  12.191 -0.1285 -0.5203 -0.1021
16022TIP3   OH269480   3.888   6.621  16.179  0.2011  0.5569 -0.1933
16022TIP3    H169481   3.890   6.708  16.220  1.7271  0.2917  0.3659
16022TIP3    H269482   3.837   6.567  16.240  0.8132  0.6337  0.3977
16023TIP3   OH269483   5.900   2.262  12.557 -0.0636 -0.4410  0.1387
16023TIP3    H169484   5.901   2.351  12.521 -0.8787 -0.9922 -1.3742
16023TIP3    H269485   5.964   2.214  12.505 -0.3237 -0.9590  0.2858
16024TIP3   OH269486   2.810   6.521   1.229  0.2254  0.8024  0.0127
16024TIP3    H169487   2.770   6.434   1.222  0.2228  0.8889 -1.6327
16024TIP3    H269488   2.737   6.582   1.215  0.3770  1.0409  0.2511
16025TIP3   OH269489   0.142   3.280  12.796 -0.6229 -0.2093 -0.1180
16025TIP3    H169490   0.129   3.359  12.744  0.1431  0.9619  1.3858
16025TIP3    H269491   0.091   3.294  12.876  0.5241 -0.6520  0.7327
16026TIP3   OH269492   6.513   1.054   3.343 -0.2226  0.0121  0.0190
16026TIP3    H169493   6.468   1.060   3.259  0.5611  2.2944 -0.3092
16026TIP3    H269494   6.546   0.964   3.346 -1.2339 -0.4651 -1.5635
16027TIP3   OH269495   6.308   1.741  11.795 -0.3739  0.4670  0.2719
16027TIP3    H169496   6.279   1.667  11.848 -0.5048 -0.2187 -0.7286
16027TIP3    H269497   6.392   1.713  11.758  0.2926  1.3925  1.0171
16028TIP3   OH269498   5.701   6.083   4.877 -0.1226  0.2804 -0.3862
16028TIP3    H169499   5.674   6.167   4.840 -0.5731  0.3279  0.0515
16028TIP3    H269500   5.774   6.055   4.821 -0.3273  0.6976 -0.8686
16029TIP3   OH269501   3.568   5.081   1.976  0.3931 -0.4598 -0.4747
16029TIP3    H169502   3.632   5.057   1.910 -1.6176  0.7110 -3.0368
16029TIP3    H269503   3.584   5.174   1.992  1.0264 -0.7861  0.9665
16030TIP3   OH269504   3.648   6.140  14.848 -0.0885 -0.2364 -0.4360
16030TIP3    H169505   3.739   6.167  14.837 -0.7822  1.7232 -1.7816
16030TIP3    H269506   3.629   6.087  14.771 -0.3456  0.1634 -0.6529
16031TIP3   OH269507   6.329   1.616   5.038 -0.1396  0.3818  0.1390
16031TIP3    H169508   6.320   1.529   5.000 -0.6516 -0.4574  2.0374
16031TIP3    H269509   6.244   1.658   5.024 -0.1018  0.3355 -0.2252
16032TIP3   OH269510   6.734   4.066   0.914 -0.1985 -0.2880 -0.7978
16032TIP3    H169511   6.755   4.044   0.823 -0.6007 -0.8564 -0.7545
16032TIP3    H269512   6.795   4.014   0.966  1.4671  1.5760 -0.7581
16033TIP3   OH269513   4.247   5.042  13.313  0.5380 -0.8845 -0.3444
16033TIP3    H169514   4.314   5.003  13.370 -0.2053 -0.2582  0.9843
16033TIP3    H269515   4.295   5.063  13.232  2.5486  1.6135  1.3324
16034TIP3   OH269516   3.395   3.903   5.552 -0.3722  0.6667  0.3551
16034TIP3    H169517   3.406   3.808   5.544 -0.3328  0.8374 -2.4081
16034TIP3    H269518   3.300   3.915   5.559 -0.4052  0.4430  0.3101
16035TIP3   OH269519   4.586   6.365  14.702 -0.4460 -0.1245  0.0473
16035TIP3    H169520   4.669   6.406  14.728  0.2921 -1.5779  0.1328
16035TIP3    H269521   4.585   6.371  14.606 -1.5047  2.1489  0.1328
16036TIP3   OH269522   4.943   5.949   5.838 -0.1040 -0.7633 -0.4781
16036TIP3    H169523   4.920   5.934   5.929  0.6016  1.1444  0.0714
16036TIP3    H269524   4.867   5.920   5.788 -1.2232 -0.2064  0.8439
16037TIP3   OH269525   3.098   1.411   4.549  0.0134 -0.0144 -0.3317
16037TIP3    H169526   3.088   1.439   4.458 -0.3093  0.6186 -0.1115
16037TIP3    H269527   3.071   1.319   4.549 -0.7734  0.2054 -0.7301
16038TIP3   OH269528   1.156   6.528   4.123 -0.0291 -0.1250 -0.1619
16038TIP3    H169529   1.067   6.522   4.157 -0.1103  0.4998 -0.2680
16038TIP3    H269530   1.184   6.437   4.114 -0.3339 -0.3147  0.7210
16039TIP3   OH269531   1.995   4.386  16.357 -0.7596 -0.0756 -0.1532
16039TIP3    H169532   2.011   4.305  16.404 -2.4029 -0.0352  0.5497
16039TIP3    H269533   1.914   4.371  16.309  0.1676  0.3536 -1.9714
16040TIP3   OH269534   1.145   3.438   5.348  0.2000 -0.3502 -0.3750
16040TIP3    H169535   1.167   3.346   5.362  1.2578 -0.0121  0.2749
16040TIP3    H269536   1.229   3.484   5.351 -0.3307  0.6562 -0.5138
16041TIP3   OH269537   4.514   1.463   1.645 -0.1110  0.0476 -0.3619
16041TIP3    H169538   4.603   1.432   1.657  0.2775 -0.2494 -3.1795
16041TIP3    H269539   4.490   1.503   1.728  4.1939  3.9422 -0.6170
16042TIP3   OH269540   0.827   4.973   4.555  0.2182  0.2855 -0.0757
16042TIP3    H169541   0.883   5.048   4.576  0.6729 -0.0515 -0.0801
16042TIP3    H269542   0.875   4.924   4.489 -1.2060  1.3501 -2.0204
16043TIP3   OH269543   2.197   2.388  13.532 -0.3830  0.2340  0.2834
16043TIP3    H169544   2.276   2.381  13.587 -1.9262 -0.2638  2.5703
16043TIP3    H269545   2.181   2.298  13.502  0.6196  0.5501 -1.3211
16044TIP3   OH269546   4.224   5.350  12.873 -0.1777 -0.0742  0.4516
16044TIP3    H169547   4.195   5.433  12.834  1.1041  1.1017  1.8693
16044TIP3    H269548   4.316   5.343  12.851 -0.2392 -1.0660  0.4653
16045TIP3   OH269549   1.795   2.633   1.644 -1.0723 -0.3668  0.1033
16045TIP3    H169550   1.819   2.723   1.666 -2.5676  0.3868 -1.1683
16045TIP3    H269551   1.734   2.641   1.571  0.5771 -2.5524 -1.6469
16046TIP3   OH269552   3.254   3.382  15.580 -0.2993 -0.2470 -0.4599
16046TIP3    H169553   3.337   3.426  15.597 -1.0567  0.1545  3.0585
16046TIP3    H269554   3.190   3.431  15.632 -2.3968 -1.7065 -1.5082
16047TIP3   OH269555   2.110   1.273  15.232 -0.5084 -0.0775  0.2192
16047TIP3    H169556   2.116   1.255  15.325 -0.4537  2.2760  0.7300
16047TIP3    H269557   2.198   1.256  15.198 -0.6644 -1.4431  0.4694
16048TIP3   OH269558   0.586   2.744  10.849  0.5152 -0.2766 -0.0939
16048TIP3    H169559   0.522   2.708  10.787 -0.4037  1.1693 -0.0348
16048TIP3    H269560   0.670   2.714  10.815 -0.1830 -3.0030  0.3445
16049TIP3   OH269561   6.616   5.876   0.645 -0.2791 -0.3386  0.2367
16049TIP3    H169562   6.534   5.925   0.649 -0.2598 -0.4063  2.1875
16049TIP3    H269563   6.613   5.832   0.560 -0.2654  3.0231 -1.6885
16050TIP3   OH269564   5.671   1.738   5.229  0.2707 -0.3472 -0.3804
16050TIP3    H169565   5.700   1.817   5.184  0.1915 -0.0393  0.1013
16050TIP3    H269566   5.657   1.674   5.159  3.1797 -0.8764 -0.6086
16051TIP3   OH269567   0.357   2.542  12.656 -0.6078  0.0996  0.3045
16051TIP3    H169568   0.414   2.479  12.699 -0.5463 -0.4586 -0.5764
16051TIP3    H269569   0.414   2.613  12.630 -0.7097  0.6530  1.4862
16052TIP3   OH269570   0.310   5.033   3.116  0.4722 -0.1954 -0.5393
16052TIP3    H169571   0.280   4.945   3.093  0.8445 -0.5185  0.1685
16052TIP3    H269572   0.255   5.059   3.189 -0.2731  0.5621 -1.3501
16053TIP3   OH269573   3.375   1.016   0.498  0.1951 -0.1725  0.2394
16053TIP3    H169574   3.345   1.081   0.435  2.4663 -0.0368 -0.7999
16053TIP3    H269575   3.407   1.067   0.572  2.5073  0.0729 -0.8071
16054TIP3   OH269576   5.705   3.786   2.174  0.1112  0.2639 -0.4618
16054TIP3    H169577   5.763   3.710   2.184  0.8694  0.6653 -1.5611
16054TIP3    H269578   5.675   3.781   2.083  1.1659  1.9377 -0.9534
16055TIP3   OH269579   4.114   1.765  12.764  0.8708  0.5090  0.2692
16055TIP3    H169580   4.035   1.748  12.712  0.9735  0.9609 -0.0361
16055TIP3    H269581   4.120   1.690  12.823  0.5768  0.1480 -0.1536
16056TIP3   OH269582   1.027   2.610  12.389 -0.0833  0.3797  0.1824
16056TIP3    H169583   0.966   2.563  12.332 -0.5512  0.4108  0.6531
16056TIP3    H269584   0.983   2.692  12.411 -0.8468 -0.5319  2.2915
16057TIP3   OH269585   1.742   4.755  11.269  0.1855 -0.7883 -0.2143
16057TIP3    H169586   1.692   4.681  11.304 -0.3946 -0.5532 -0.5295
16057TIP3    H269587   1.715   4.760  11.177  0.1929 -0.1563 -0.1834
16058TIP3   OH269588   0.108   3.423  16.685  0.6012 -0.4909 -0.0781
16058TIP3    H169589   0.162   3.389  16.614  0.4598  0.2639 -0.5532
16058TIP3    H269590   0.018   3.416  16.653  0.3903 -1.6720  0.6802
16059TIP3   OH269591   4.842   4.788  13.936  0.0799 -0.3018 -0.5340
16059TIP3    H169592   4.921   4.753  13.978  0.4629  0.0742 -0.9340
16059TIP3    H269593   4.847   4.758  13.846 -0.4143 -0.5656 -0.4761
16060TIP3   OH269594   5.973   3.661  16.083  0.8473 -0.3027 -0.1176
16060TIP3    H169595   5.977   3.634  16.175  1.1392 -1.0219 -0.3378
16060TIP3    H269596   5.882   3.643  16.058  0.7173  0.0665  0.0778
16061TIP3   OH269597   3.626   4.651   3.243  0.1669  0.7197 -0.1201
16061TIP3    H169598   3.599   4.642   3.152 -2.1229  1.8064  0.3733
16061TIP3    H269599   3.720   4.667   3.239  0.9019 -2.9615 -2.0010
16062TIP3   OH269600   1.989   5.712  16.624 -0.0322  0.3688  0.6924
16062TIP3    H169601   1.927   5.652  16.667 -0.3704 -0.2444 -0.6167
16062TIP3    H269602   2.071   5.664  16.622  0.1552  0.6606  1.2390
16063TIP3   OH269603   1.014   1.701  10.649 -0.2130 -0.1354  0.0493
16063TIP3    H169604   1.016   1.617  10.695  0.2437  0.7075  1.6411
16063TIP3    H269605   1.106   1.725  10.638 -0.2088 -1.2492 -3.2059
16064TIP3   OH269606   3.357   6.448  13.713  0.2081  0.2828  0.4408
16064TIP3    H169607   3.280   6.422  13.662  0.3574 -0.2755  0.4890
16064TIP3    H269608   3.342   6.410  13.800  1.4908 -1.6940 -0.1114
16065TIP3   OH269609   5.262   4.451  11.090  0.6192 -0.2232 -0.6123
16065TIP3    H169610   5.305   4.536  11.081 -1.6563  1.5642  3.0119
16065TIP3    H269611   5.292   4.418  11.175  0.4678 -2.4840 -1.3744
16066TIP3   OH269612   2.751   5.941  14.344 -0.2417  0.2138  0.3889
16066TIP3    H169613   2.672   5.989  14.321 -1.1169 -0.3204  2.1676
16066TIP3    H269614   2.819   6.008  14.351 -0.5771  0.7092 -0.8582
16067TIP3   OH269615   1.088   1.490   5.919 -0.1659  0.1293 -0.1050
16067TIP3    H169616   1.153   1.471   5.852  0.5286  1.1720  0.2442
16067TIP3    H269617   1.140   1.521   5.994 -1.0530  0.8351  0.2302
16068TIP3   OH269618   1.994   4.829  13.796  0.1330 -0.3986  0.0149
16068TIP3    H169619   2.050   4.803  13.723  1.9769 -0.8881  1.5211
16068TIP3    H269620   2.040   4.798  13.874 -2.0038 -0.3547  1.3871
16069TIP3   OH269621   1.848   5.589   3.747  0.1730  0.2271 -0.2127
16069TIP3    H169622   1.885   5.509   3.711  0.0656  0.9406 -1.9995
16069TIP3    H269623   1.830   5.644   3.671  1.3989  2.4728  1.0238
16070TIP3   OH269624   5.371   6.387  15.227  0.7566 -0.2484  0.9445
16070TIP3    H169625   5.372   6.386  15.131  0.1907 -0.3531  0.9345
16070TIP3    H269626   5.451   6.341  15.252  0.2179 -1.4913  0.5035
16071TIP3   OH269627   3.047   5.136  13.748 -0.5166 -0.1438 -0.5843
16071TIP3    H169628   3.053   5.063  13.809  1.7484 -0.7244 -1.4279
16071TIP3    H269629   2.994   5.103  13.676 -3.2736  0.5700  0.9699
16072TIP3   OH269630   0.580   3.472   0.057  0.0841  0.4494 -0.4190
16072TIP3    H169631   0.664   3.476   0.010 -0.7654  1.1551 -1.9551
16072TIP3    H269632   0.529   3.409   0.006 -0.8941  1.3033 -0.5143
16073TIP3   OH269633   1.308   0.170  15.142 -0.1097  0.3673 -0.3265
16073TIP3    H169634   1.395   0.159  15.102 -1.3819 -0.3916 -3.1081
16073TIP3    H269635   1.274   0.250  15.103 -1.0696  0.0983 -0.0534
16074TIP3   OH269636   4.145   0.322  11.247 -0.0256  0.4265 -0.4074
16074TIP3    H169637   4.115   0.248  11.193  0.8746 -1.6453  1.7315
16074TIP3    H269638   4.219   0.359  11.199 -0.3856 -0.1617 -1.4464
16075TIP3   OH269639   3.578   0.946  13.874  0.3808  0.1260 -0.0464
16075TIP3    H169640   3.644   0.899  13.823 -0.3263 -0.1848 -0.6947
16075TIP3    H269641   3.496   0.900  13.856  0.3808 -1.3473  3.0151
16076TIP3   OH269642   4.320   6.209   0.520 -0.4328  0.3416 -0.3258
16076TIP3    H169643   4.339   6.115   0.526  0.4556  0.4494 -1.2542
16076TIP3    H269644   4.305   6.236   0.611 -1.2175 -0.7896 -0.0933
16077TIP3   OH269645   5.215   5.578  15.337 -0.0872  0.0664  0.4080
16077TIP3    H169646   5.188   5.491  15.310  0.1188 -0.0221  0.4839
16077TIP3    H269647   5.172   5.637  15.275  0.0923 -0.1130  0.1105
16078TIP3   OH269648   6.446   2.069   5.403 -0.1528  0.3442  0.2349
16078TIP3    H169649   6.380   2.017   5.358  1.5590  0.9065 -3.2847
16078TIP3    H269650   6.480   2.011   5.471 -1.1198 -1.6380 -0.8930
16079TIP3   OH269651   3.669   1.711   0.174  0.5352 -0.2286  0.5363
16079TIP3    H169652   3.654   1.673   0.260 -0.4626  0.7897  0.8283
16079TIP3    H269653   3.607   1.667   0.116  0.3046  0.0114  0.6016
16080TIP3   OH269654   0.779   5.964   2.036 -0.1804 -0.1623 -0.0064
16080TIP3    H169655   0.763   5.870   2.045 -2.3974  0.3818  3.4245
16080TIP3    H269656   0.693   6.001   2.018  0.1563  1.4226  1.4406
16081TIP3   OH269657   5.495   2.950   2.583  0.4612  0.5742  0.0672
16081TIP3    H169658   5.469   3.032   2.540 -1.1459  1.2149  2.0791
16081TIP3    H269659   5.552   2.978   2.655  1.5578 -0.2951 -0.4362
16082TIP3   OH269660   5.030   4.091   0.429  0.4455 -0.4365  0.6504
16082TIP3    H169661   5.122   4.086   0.402  0.1671  0.9534 -0.6681
16082TIP3    H269662   5.031   4.148   0.506  0.8186 -1.5204  1.4762
16083TIP3   OH269663   3.781   2.282   5.968  0.4295  0.2555  0.0828
16083TIP3    H169664   3.797   2.345   5.898  0.2644 -1.7841 -1.9269
16083TIP3    H269665   3.857   2.291   6.026 -0.4873  3.5365  1.0001
16084TIP3   OH269666   4.117   6.174   1.486 -0.1416 -0.2398  0.1699
16084TIP3    H169667   4.069   6.250   1.519  1.3316  0.3333  1.0821
16084TIP3    H269668   4.049   6.110   1.465 -1.5648  1.9121 -2.3027
16085TIP3   OH269669   6.360   6.238   3.032 -0.5371  0.5156  0.0426
16085TIP3    H169670   6.325   6.175   2.969  0.8186  0.1299 -0.3657
16085TIP3    H269671   6.455   6.224   3.030 -0.4090  0.8928  1.7608
16086TIP3   OH269672   4.799   2.758  16.586 -0.0128 -0.1939  0.5366
16086TIP3    H169673   4.885   2.730  16.616  1.2453  2.6924 -0.0289
16086TIP3    H269674   4.751   2.778  16.666 -0.3135 -2.0833  0.8669
16087TIP3   OH269675   1.617   1.291   0.462  0.5453  0.0852 -0.0612
16087TIP3    H169676   1.712   1.300   0.464  0.4711  1.0928 -0.6515
16087TIP3    H269677   1.602   1.197   0.451  1.4877  0.0559 -1.2463
16088TIP3   OH269678   3.719   1.961  14.546  0.2705 -0.0812 -0.0542
16088TIP3    H169679   3.650   1.895  14.553  1.8854 -1.6915  2.2775
16088TIP3    H269680   3.797   1.912  14.520  1.5841  0.7671  1.9820
16089TIP3   OH269681   1.179   2.776   2.909  0.4887  0.0716 -0.0810
16089TIP3    H169682   1.147   2.846   2.967  1.0900 -0.2213  0.6074
16089TIP3    H269683   1.254   2.814   2.864  0.2421  0.1761 -0.4138
16090TIP3   OH269684   5.266   5.517  15.931 -0.6478 -0.1039  0.2789
16090TIP3    H169685   5.325   5.464  15.985 -0.9636 -0.4322  0.3064
16090TIP3    H269686   5.183   5.469  15.932 -0.8843  0.2992  0.1534
16091TIP3   OH269687   0.950   0.070   1.302 -0.0786  0.4655 -0.1590
16091TIP3    H169688   1.037   0.056   1.265  0.4515  0.2865  1.0918
16091TIP3    H269689   0.939  -0.001   1.365 -1.8779 -0.5435 -1.5214
16092TIP3   OH269690   2.966   3.818  16.374 -0.1400 -0.1185 -0.3579
16092TIP3    H169691   2.944   3.733  16.412  0.8168 -0.7124 -1.0805
16092TIP3    H269692   2.982   3.800  16.281 -2.0340  1.2194 -1.0083
16093TIP3   OH269693   0.479   3.084   0.655  0.5744  0.1896 -0.0077
16093TIP3    H169694   0.536   3.031   0.598  0.4950 -0.4890  0.5292
16093TIP3    H269695   0.402   3.102   0.601  0.2335 -0.9535  0.0620
16094TIP3   OH269696   5.715   1.871   1.094 -0.0289 -0.3012 -0.2035
16094TIP3    H169697   5.801   1.847   1.129 -1.7394 -2.1162  3.2877
16094TIP3    H269698   5.692   1.953   1.138  0.6915  1.4298 -2.8176
16095TIP3   OH269699   6.304   4.700   4.947  0.5233  0.4851 -0.0802
16095TIP3    H169700   6.306   4.614   4.989 -0.6917 -0.0991 -1.1589
16095TIP3    H269701   6.351   4.757   5.008  0.0445 -0.6189  1.3843
16096TIP3   OH269702   6.509   2.807   2.351  0.3757 -0.7755 -0.4067
16096TIP3    H169703   6.442   2.748   2.385 -0.7523  0.0652 -1.1009
16096TIP3    H269704   6.487   2.816   2.258 -0.1248  1.5242 -0.1196
16097TIP3   OH269705   0.492   3.863  12.450 -0.3353 -0.5191 -0.0524
16097TIP3    H169706   0.551   3.868  12.375 -1.7054 -0.2955 -1.1576
16097TIP3    H269707   0.531   3.922  12.515  0.0105  0.5972 -1.2220
16098TIP3   OH269708   2.052   0.507   2.546 -0.1125 -0.0088  0.1502
16098TIP3    H169709   2.058   0.595   2.585 -0.5910  0.5224 -0.9121
16098TIP3    H269710   2.139   0.470   2.555 -0.0318  0.3836  1.0500
16099TIP3   OH269711   5.461   5.530  15.049  0.2806  0.6533  0.0619
16099TIP3    H169712   5.400   5.473  15.003  0.1996  0.5912  0.2438
16099TIP3    H269713   5.453   5.615  15.005  0.0357  0.6561  0.1097
16100TIP3   OH269714   0.735   5.165   4.762  0.5079  0.0269  0.4915
16100TIP3    H169715   0.793   5.097   4.796  0.5531  0.3210  1.0248
16100TIP3    H269716   0.658   5.160   4.818  0.2990  0.0759  0.2066
16101TIP3   OH269717   3.963   2.741   0.949  0.2320  0.4981  0.2227
16101TIP3    H169718   3.977   2.774   1.038 -0.3903 -0.5145  0.7093
16101TIP3    H269719   3.887   2.683   0.956 -0.9983  1.7827 -1.3177
16102TIP3   OH269720   5.224   6.290   2.180  0.2362  0.7104 -0.0576
16102TIP3    H169721   5.239   6.293   2.086  0.5545  1.6942  0.0132
16102TIP3    H269722   5.308   6.263   2.218 -0.1551 -0.6296 -0.1052
16103TIP3   OH269723   3.274   1.565   1.912  0.2843 -0.6418  0.7426
16103TIP3    H169724   3.258   1.659   1.908 -0.4039 -0.7935 -0.8760
16103TIP3    H269725   3.186   1.526   1.919  0.2490 -1.2493 -1.9206
16104TIP3   OH269726   4.862   0.947   1.397 -0.1270  0.2938  0.3671
16104TIP3    H169727   4.956   0.958   1.384 -0.2376 -0.9835 -2.1290
16104TIP3    H269728   4.823   1.030   1.370  0.2178  0.6141  0.8358
16105TIP3   OH269729   5.847   1.644  15.084 -0.1480  0.3058 -0.0413
16105TIP3    H169730   5.843   1.569  15.143 -0.7681 -0.0301 -0.4998
16105TIP3    H269731   5.920   1.697  15.117 -0.3356  0.0068  0.8867
16106TIP3   OH269732   5.006   5.210  12.038 -0.1750  0.0866  0.0224
16106TIP3    H169733   4.917   5.207  12.073 -0.0259  1.1506  0.5280
16106TIP3    H269734   5.044   5.289  12.077  1.7086 -1.4820  1.5655
16107TIP3   OH269735   2.886   3.993  14.040  0.1702 -0.3759 -0.5132
16107TIP3    H169736   2.931   3.949  13.968 -1.7634 -0.9778 -1.4342
16107TIP3    H269737   2.798   4.011  14.005 -0.6442 -0.1851  1.5134
16108TIP3   OH269738   5.430   5.862   5.530  0.1104  0.2052  0.5602
16108TIP3    H169739   5.465   5.800   5.593  0.8830  1.7203  1.6853
16108TIP3    H269740   5.355   5.816   5.490  0.3035 -1.2103  1.7381
16109TIP3   OH269741   2.604   6.153   0.681 -0.5046  0.3186 -0.4975
16109TIP3    H169742   2.653   6.222   0.725 -2.4341  1.3980  0.0726
16109TIP3    H269743   2.513   6.169   0.705 -1.4514 -0.1752 -3.3623
16110TIP3   OH269744   4.250   4.733   1.911  0.0632  0.3794 -0.8151
16110TIP3    H169745   4.267   4.639   1.902  1.1061  0.3657  0.8381
16110TIP3    H269746   4.290   4.756   1.995 -0.2094  2.3061 -1.1794
16111TIP3   OH269747   2.965   2.804   1.446  0.4916  0.0154 -0.8469
16111TIP3    H169748   3.050   2.764   1.429 -0.2332 -1.5269 -1.0128
16111TIP3    H269749   2.907   2.766   1.380 -0.7601 -0.5218  0.4957
16112TIP3   OH269750   0.528   3.804  11.860  0.2859 -0.5228 -0.5066
16112TIP3    H169751   0.529   3.711  11.883 -0.8143  0.0295  2.1078
16112TIP3    H269752   0.464   3.843  11.919  0.6423  1.9029 -1.5995
16113TIP3   OH269753   1.996   6.437   2.323  0.2012 -0.5682  0.4478
16113TIP3    H169754   2.004   6.354   2.372  0.0857  0.7987  2.9693
16113TIP3    H269755   2.081   6.479   2.335  0.2024 -0.2252 -0.6731
16114TIP3   OH269756   4.738   1.607  11.112 -0.5376 -0.2137 -0.2420
16114TIP3    H169757   4.783   1.612  11.196 -0.9881  2.3831 -0.0701
16114TIP3    H269758   4.665   1.547  11.126  0.7586 -1.6880  0.4813
16115TIP3   OH269759   4.584   5.770  15.309  0.2574  0.2857  0.5362
16115TIP3    H169760   4.621   5.791  15.223 -1.2021 -0.3118 -0.2661
16115TIP3    H269761   4.583   5.853  15.355  0.6089  0.7109 -0.1944
16116TIP3   OH269762   4.666   6.726  14.444  0.3711 -0.2890 -0.6388
16116TIP3    H169763   4.588   6.757  14.397  0.1573 -1.2112 -0.9143
16116TIP3    H269764   4.677   6.636  14.414  2.0145  0.0700 -1.2057
16117TIP3   OH269765   0.016   5.160  16.198  0.6814  0.1568  0.5868
16117TIP3    H169766  -0.009   5.248  16.227  2.1377  0.6121  0.5708
16117TIP3    H269767  -0.029   5.149  16.114  2.1154  1.7793 -0.4662
16118TIP3   OH269768   3.405   4.540  14.716  0.0897 -0.1424 -0.5622
16118TIP3    H169769   3.500   4.526  14.705  0.2989  1.2236 -0.6373
16118TIP3    H269770   3.398   4.606  14.785 -0.7416  0.9203 -1.6266
16119TIP3   OH269771   6.226   5.163  12.903  0.1002  0.4195 -0.3821
16119TIP3    H169772   6.207   5.248  12.863  1.7713  0.3119 -1.5063
16119TIP3    H269773   6.231   5.103  12.829  1.6498 -0.1084  0.1224
16120TIP3   OH269774   2.359   1.607  11.414 -0.2210  0.6979 -0.5185
16120TIP3    H169775   2.398   1.526  11.381  0.7212  0.7944  0.3101
16120TIP3    H269776   2.315   1.645  11.339 -2.8429 -1.7987 -0.4233
16121TIP3   OH269777   0.291   3.377  16.062 -0.3935  0.4749 -0.4181
16121TIP3    H169778   0.340   3.425  15.995 -1.4087 -0.5339 -1.9471
16121TIP3    H269779   0.282   3.289  16.027  1.4789 -0.9515  2.3594
16122TIP3   OH269780   2.389   0.787   0.509 -0.7584 -0.5245 -0.1388
16122TIP3    H169781   2.335   0.727   0.458 -0.7649  1.2684 -2.4325
16122TIP3    H269782   2.382   0.755   0.599 -2.3924 -2.6827 -0.9313
16123TIP3   OH269783   6.691   1.051  13.617  0.0116  0.0233 -0.2298
16123TIP3    H169784   6.773   1.049  13.666 -0.1686  0.2783  0.0807
16123TIP3    H269785   6.663   0.959  13.613 -0.6653  0.1387  1.3079
16124TIP3   OH269786   3.156   2.977   2.657 -0.0241 -0.0817 -0.1494
16124TIP3    H169787   3.165   2.888   2.690  0.8614  0.1788  0.3468
16124TIP3    H269788   3.079   3.012   2.701  0.2838 -0.2333  0.5130
16125TIP3   OH269789   2.228   6.460  14.047 -0.3335  0.6028  0.3447
16125TIP3    H169790   2.161   6.522  14.073 -0.6940  0.1326  0.5567
16125TIP3    H269791   2.193   6.418  13.968  0.7658  2.0454 -0.9675
16126TIP3   OH269792   2.589   0.226  11.548 -0.2000  0.1384 -0.0796
16126TIP3    H169793   2.627   0.306  11.512 -2.3769  1.0732 -0.5037
16126TIP3    H269794   2.581   0.167  11.473  0.6028 -0.1514  0.0579
16127TIP3   OH269795   5.816   2.224  11.391  0.3855  0.3236  0.1421
16127TIP3    H169796   5.788   2.294  11.450  0.7634  0.7591 -0.1869
16127TIP3    H269797   5.911   2.222  11.400  0.6960  1.8924 -2.0544
16128TIP3   OH269798   3.655   5.152  14.316  0.6164 -0.0336 -0.8117
16128TIP3    H169799   3.687   5.227  14.266  2.8508  0.5846  1.3920
16128TIP3    H269800   3.732   5.098  14.331 -0.3086 -1.0423  0.5306
16129TIP3   OH269801   3.280   2.957   0.645 -0.3579 -0.0236  0.2923
16129TIP3    H169802   3.253   2.887   0.585 -0.5831 -0.1490  0.5370
16129TIP3    H269803   3.198   2.999   0.671 -0.1087  1.6944 -1.4595
16130TIP3   OH269804   1.875   4.916  10.999 -0.1317 -0.4151 -0.3869
16130TIP3    H169805   1.873   4.983  10.931  0.6247 -0.4788 -0.4748
16130TIP3    H269806   1.795   4.865  10.985 -1.0049  0.7921  0.0213
16131TIP3   OH269807   2.342   3.369   4.442 -0.0951  0.5439 -0.1664
16131TIP3    H169808   2.337   3.380   4.347  2.2311 -0.6332 -0.5021
16131TIP3    H269809   2.273   3.305   4.461  0.8602 -0.9786 -1.4720
16132TIP3   OH269810   2.686   1.806  14.290 -0.1165  0.0827  0.3951
16132TIP3    H169811   2.749   1.742  14.255 -1.3982 -0.0112 -1.9734
16132TIP3    H269812   2.729   1.890  14.277 -0.3317  0.0060 -1.0032
16133TIP3   OH269813   1.204   1.735   4.844 -0.2436 -0.1971 -0.4355
16133TIP3    H169814   1.250   1.652   4.852 -1.6307 -1.0162 -0.6065
16133TIP3    H269815   1.141   1.734   4.917 -0.4611  0.5659 -0.6063
16134TIP3   OH269816   0.102   3.956   3.752  0.4023  0.2611  0.2702
16134TIP3    H169817   0.014   3.926   3.731  0.6849  0.1702 -0.8336
16134TIP3    H269818   0.089   4.022   3.821 -0.6182  1.0246 -0.6276
16135TIP3   OH269819   2.535   6.067   6.061  0.4546 -0.1333 -0.3257
16135TIP3    H169820   2.485   6.149   6.061 -0.9642 -0.9419 -1.6281
16135TIP3    H269821   2.626   6.094   6.073 -0.1386  1.4986  0.8489
16136TIP3   OH269822   5.781   0.937   2.013  0.0637 -0.1188  0.1072
16136TIP3    H169823   5.725   0.925   1.937  1.4863  0.2135 -1.0312
16136TIP3    H269824   5.832   1.016   1.994  1.9716 -1.2205  0.4114
16137TIP3   OH269825   4.863   2.112  16.178 -0.2147  0.0958  0.7263
16137TIP3    H169826   4.841   2.119  16.085 -2.1326  1.6608  1.2412
16137TIP3    H269827   4.914   2.190  16.197 -1.5559  0.8302  1.4038
16138TIP3   OH269828   4.142   5.491  15.529  0.0306 -0.0988 -0.3961
16138TIP3    H169829   4.176   5.499  15.440 -0.0407 -2.3820 -0.6788
16138TIP3    H269830   4.209   5.441  15.575  0.0761  1.0752  0.8912
16139TIP3   OH269831   2.954   0.499  11.057 -0.4709 -0.1839  0.0016
16139TIP3    H169832   2.990   0.481  11.143  0.0872  0.8480  0.0130
16139TIP3    H269833   2.908   0.419  11.031 -1.4390 -0.1881  1.6399
16140TIP3   OH269834   5.588   0.496  16.562  0.5658 -0.3461 -0.0317
16140TIP3    H169835   5.564   0.409  16.596 -0.6145  0.3563  1.0403
16140TIP3    H269836   5.630   0.540  16.636 -0.0684  0.4559 -0.1325
16141TIP3   OH269837   3.687   0.930   2.037 -0.1138 -0.2687 -0.3239
16141TIP3    H169838   3.643   0.887   1.965  1.3497 -1.6715 -0.4549
16141TIP3    H269839   3.757   0.981   1.996  0.5403 -0.8370  0.0570
16142TIP3   OH269840   0.967   1.467   6.636  0.3581 -0.1595 -0.1787
16142TIP3    H169841   0.905   1.444   6.566  0.6560  1.1158 -0.8887
16142TIP3    H269842   0.992   1.557   6.617  2.4329 -0.6378  0.0833
16143TIP3   OH269843   6.240   0.180  11.014  0.4755 -0.1545  0.0612
16143TIP3    H169844   6.156   0.193  10.969  0.0827 -1.2855  0.4098
16143TIP3    H269845   6.292   0.128  10.952  0.8590  0.4062 -0.0865
16144TIP3   OH269846   0.762   5.886  16.291 -0.4240  0.1345  0.1329
16144TIP3    H169847   0.822   5.916  16.222 -0.4155 -0.6363 -0.2037
16144TIP3    H269848   0.764   5.956  16.356  0.9728  0.0591  0.2087
16145TIP3   OH269849   2.062   0.566   0.727  0.2905 -0.4501 -0.4772
16145TIP3    H169850   2.125   0.600   0.664  1.0683 -0.1673  0.4299
16145TIP3    H269851   2.041   0.641   0.782 -0.8532 -0.5406 -0.7710
16146TIP3   OH269852   2.990   6.230   0.003  0.5932 -0.0877 -0.4024
16146TIP3    H169853   2.947   6.167   0.061 -0.8425  0.4124 -0.8865
16146TIP3    H269854   3.052   6.177  -0.047  0.3452 -0.8882  0.1115
16147TIP3   OH269855   5.707   6.533   5.765  0.1955  0.0144 -0.0886
16147TIP3    H169856   5.734   6.621   5.794 -0.2805  0.6687 -1.5357
16147TIP3    H269857   5.688   6.486   5.847 -0.0728  1.4318  0.7032
16148TIP3   OH269858   0.583   3.827   0.916 -0.4479  0.6790 -0.0146
16148TIP3    H169859   0.519   3.773   0.963 -1.5684  0.9513 -1.1539
16148TIP3    H269860   0.665   3.778   0.921 -1.2796 -0.8238 -0.4697
16149TIP3   OH269861   0.269   2.214  11.576 -0.0138 -0.6550  1.1607
16149TIP3    H169862   0.266   2.179  11.487 -1.2103 -0.5354  1.1306
16149TIP3    H269863   0.345   2.272  11.577 -1.9493  2.2104 -0.8997
16150TIP3   OH269864   6.495   4.574   3.734  0.3815  0.4735  0.9599
16150TIP3    H169865   6.414   4.526   3.753 -0.7659  1.0477 -1.9224
16150TIP3    H269866   6.466   4.663   3.716  1.5291  0.5626 -0.7125
16151TIP3   OH269867   2.477   4.611  12.395  0.0210  0.1116  0.4581
16151TIP3    H169868   2.401   4.558  12.417  0.2252  0.0387  1.0070
16151TIP3    H269869   2.441   4.690  12.356 -0.5289  1.3868  3.2783
16152TIP3   OH269870   1.510   5.203  15.729 -1.1553  0.2092 -0.0886
16152TIP3    H169871   1.517   5.130  15.791 -4.2908 -0.4098 -0.3195
16152TIP3    H269872   1.587   5.256  15.747 -0.2969 -1.5929  2.1433
16153TIP3   OH269873   2.926   2.346  12.489 -0.5240 -0.4014  0.2065
16153TIP3    H169874   2.996   2.407  12.511 -0.3795 -0.5250  0.0888
16153TIP3    H269875   2.857   2.364  12.553 -0.0561 -0.8457  0.8391
16154TIP3   OH269876   4.940   1.526  10.949 -0.1300 -0.1077  0.3781
16154TIP3    H169877   4.895   1.442  10.935 -0.4574  0.2295 -0.6562
16154TIP3    H269878   4.886   1.571  11.014 -0.0574 -0.6183  0.7994
16155TIP3   OH269879   3.507   1.122   5.921 -0.3496  0.3584 -0.1094
16155TIP3    H169880   3.447   1.155   5.854  0.4955  0.8983 -0.6212
16155TIP3    H269881   3.477   1.163   6.002  1.0661  3.0361 -0.8166
16156TIP3   OH269882   4.827   6.481   4.914 -0.2276 -0.1946  0.3307
16156TIP3    H169883   4.796   6.423   4.984  0.8545 -1.7187 -0.4015
16156TIP3    H269884   4.764   6.471   4.844 -1.1428  1.0985  0.9318
16157TIP3   OH269885   6.529   2.065  14.987  0.3189 -0.6223 -0.2185
16157TIP3    H169886   6.456   2.068  14.925  0.1109 -2.2654 -0.0961
16157TIP3    H269887   6.517   1.984  15.035  1.1222  0.0585  1.2164
16158TIP3   OH269888   3.307   0.516  16.200  0.0925 -0.1398 -0.2507
16158TIP3    H169889   3.322   0.423  16.184 -0.3614 -0.7223  2.2747
16158TIP3    H269890   3.393   0.550  16.226 -0.1599 -0.4135  1.0287
16159TIP3   OH269891   3.225   6.071  16.707 -0.6623 -0.3920 -0.1747
16159TIP3    H169892   3.258   6.025  16.630 -0.4382 -0.0251 -0.2991
16159TIP3    H269893   3.302   6.115  16.744 -1.1320  1.0599 -0.8813
16160TIP3   OH269894   0.906   0.154   4.273 -0.3971  0.5734 -0.7870
16160TIP3    H169895   0.890   0.206   4.351 -1.4619 -1.0232  0.1222
16160TIP3    H269896   0.966   0.207   4.220 -1.2214  2.5657  0.1756
16161TIP3   OH269897   1.443   4.498   4.207  0.1200  0.0333  0.4404
16161TIP3    H169898   1.390   4.565   4.251 -0.7481 -0.4171  0.1173
16161TIP3    H269899   1.453   4.429   4.272 -0.3238 -0.1986  0.2708
16162TIP3   OH269900   3.805   2.498   4.170  0.0631 -0.1369 -0.1039
16162TIP3    H169901   3.811   2.448   4.089 -0.5961 -0.6831  0.1758
16162TIP3    H269902   3.828   2.436   4.239 -0.8059 -0.0825  0.2497
16163TIP3   OH269903   3.439   1.932  13.538  0.2401  0.0662 -0.0870
16163TIP3    H169904   3.459   1.987  13.614 -0.4610  0.3141 -0.0756
16163TIP3    H269905   3.354   1.893  13.558 -1.4880  2.5037 -2.0099
16164TIP3   OH269906   4.156   2.726   4.971 -0.2779 -0.4060  0.3348
16164TIP3    H169907   4.207   2.679   4.905 -0.7103 -0.2822 -0.0987
16164TIP3    H269908   4.202   2.709   5.053  0.7107  0.0699 -0.1037
16165TIP3   OH269909   0.778   4.008  15.301  0.0991 -0.4161 -0.0233
16165TIP3    H169910   0.688   4.038  15.310  0.6750  1.7704 -1.0654
16165TIP3    H269911   0.827   4.086  15.276  1.9126 -1.9803 -1.6573
16166TIP3   OH269912   6.161   3.622   2.292  0.1749  0.1049 -0.5802
16166TIP3    H169913   6.185   3.551   2.351  0.0064  0.5802  0.0669
16166TIP3    H269914   6.137   3.695   2.349 -2.6639 -0.2567 -1.1520
16167TIP3   OH269915   4.410   0.654   0.444  0.6569 -0.0373  0.2333
16167TIP3    H169916   4.387   0.638   0.535 -0.0830  0.1300  0.0845
16167TIP3    H269917   4.375   0.741   0.426  2.2182  0.6395  0.2502
16168TIP3   OH269918   5.721   4.871   4.273  0.1451 -0.0012  0.2089
16168TIP3    H169919   5.765   4.793   4.304 -1.4563 -0.7776  0.6379
16168TIP3    H269920   5.693   4.850   4.184  0.9831  0.6386 -0.2179
16169TIP3   OH269921   0.708   0.259  14.476  0.1349 -0.3413  0.0460
16169TIP3    H169922   0.644   0.320  14.513  0.6065  0.1888  0.0142
16169TIP3    H269923   0.685   0.253  14.383 -0.2701 -0.6681  0.1689
16170TIP3   OH269924   2.597   1.536   1.419 -0.3716  0.5379  0.2096
16170TIP3    H169925   2.526   1.527   1.482 -1.4626  3.0213 -0.5216
16170TIP3    H269926   2.553   1.547   1.335  0.9366  0.7062 -0.4802
16171TIP3   OH269927   4.436   0.144  15.420 -0.7841 -0.4309 -0.3626
16171TIP3    H169928   4.356   0.121  15.372 -0.5678 -0.7757 -0.5655
16171TIP3    H269929   4.494   0.180  15.353 -0.2816 -1.4041 -0.4721
16172TIP3   OH269930   3.237   0.398  15.800  0.2230  0.3117  0.3798
16172TIP3    H169931   3.212   0.344  15.725  3.6497  0.2922 -0.9063
16172TIP3    H269932   3.154   0.421  15.842 -1.7684 -0.5682 -2.7788
16173TIP3   OH269933   0.765   5.243   3.368  0.6641  0.2431 -0.6327
16173TIP3    H169934   0.827   5.170   3.373  1.3931  0.7596 -1.8362
16173TIP3    H269935   0.739   5.248   3.276  0.7475  1.5960 -0.6099
16174TIP3   OH269936   4.067   2.964  15.309  0.4073 -0.5124 -0.4840
16174TIP3    H169937   4.116   2.928  15.384  0.3343  0.2522 -0.0546
16174TIP3    H269938   4.055   3.056  15.331 -1.4170 -0.7132 -0.4843
16175TIP3   OH269939   1.776   1.388  10.727 -0.7481  0.1247 -0.0030
16175TIP3    H169940   1.813   1.470  10.693  0.5698 -1.0398 -1.5965
16175TIP3    H269941   1.769   1.332  10.649 -0.2388 -1.7626  1.2562
16176TIP3   OH269942   2.251   0.845  15.875 -0.7307  0.0889  0.5379
16176TIP3    H169943   2.277   0.811  15.789 -0.0206 -0.3147  0.9018
16176TIP3    H269944   2.332   0.877  15.913 -1.1323  0.7299  0.8615
16177TIP3   OH269945   0.326   1.790   5.123  0.0537 -0.2679 -0.0631
16177TIP3    H169946   0.335   1.732   5.198 -0.2960 -0.1300  0.0860
16177TIP3    H269947   0.397   1.853   5.132  0.5612 -0.7802 -0.3314
16178TIP3   OH269948   3.768   5.871   2.337 -0.0528 -0.0877 -0.6459
16178TIP3    H169949   3.696   5.835   2.389  0.9465 -2.8547 -0.9785
16178TIP3    H269950   3.843   5.873   2.396  0.8216 -2.2328 -1.5696
16179TIP3   OH269951   3.785   1.711  11.143 -0.6063 -0.7783  0.4316
16179TIP3    H169952   3.733   1.776  11.096  0.3225  0.9385  1.6701
16179TIP3    H269953   3.875   1.744  11.137  0.0072 -2.3751  0.4509
16180TIP3   OH269954   2.577   1.032  13.891  0.7004  1.1458 -0.9147
16180TIP3    H169955   2.568   1.114  13.842 -1.7381  2.1631  1.0455
16180TIP3    H269956   2.550   1.054  13.980  2.0626 -1.3392  0.2078
16181TIP3   OH269957   6.296   5.733   4.286 -0.2443 -0.0263 -0.2931
16181TIP3    H169958   6.366   5.782   4.330 -1.1700 -0.6387  2.0211
16181TIP3    H269959   6.255   5.797   4.227  0.3817  1.1827  0.5378
16182TIP3   OH269960   6.576   3.204   3.332 -0.1777 -0.0863 -0.3064
16182TIP3    H169961   6.549   3.294   3.315  0.0022  0.1923  0.7632
16182TIP3    H269962   6.655   3.191   3.279  0.5918  0.8575  0.5646
16183TIP3   OH269963   5.609   1.610   3.896 -0.2025 -0.5236  0.9031
16183TIP3    H169964   5.519   1.642   3.906 -0.3307 -1.1744  2.2199
16183TIP3    H269965   5.633   1.582   3.985  0.9202 -1.3284  0.3658
16184TIP3   OH269966   0.998   5.793  10.759  0.2970 -0.2624  0.0400
16184TIP3    H169967   0.934   5.766  10.694 -0.6590  0.8468  0.4764
16184TIP3    H269968   1.069   5.729  10.751  0.8026  0.5519 -2.9178
16185TIP3   OH269969   4.079   5.332   6.470 -0.0199  0.0123 -0.7216
16185TIP3    H169970   3.996   5.317   6.425 -1.5335 -0.8320  2.1435
16185TIP3    H269971   4.120   5.246   6.474 -0.7236 -0.2679  0.9654
16186TIP3   OH269972   2.702   3.315  11.439  0.0477 -0.6403  0.6226
16186TIP3    H169973   2.790   3.327  11.404 -0.6442 -2.3070 -1.9533
16186TIP3    H269974   2.709   3.340  11.531  2.9083  0.3938  0.2121
16187TIP3   OH269975   3.497   4.299  13.603 -0.9060 -0.2547 -1.0259
16187TIP3    H169976   3.495   4.214  13.561 -1.0100 -0.3684 -0.7907
16187TIP3    H269977   3.590   4.322  13.605 -0.7013 -1.1010  0.3839
16188TIP3   OH269978   6.758   5.031   0.013  0.0030  0.2795  0.1949
16188TIP3    H169979   6.697   5.080   0.068 -0.8558  0.4115 -0.8322
16188TIP3    H269980   6.768   5.085  -0.066  0.5467 -0.2929 -0.1430
16189TIP3   OH269981   0.933   5.198  14.304  0.8124  0.4680  0.2570
16189TIP3    H169982   1.016   5.228  14.265  1.2368 -1.9787 -0.9252
16189TIP3    H269983   0.881   5.169  14.229  0.2588 -1.1558  1.2205
16190TIP3   OH269984   6.579   2.385  11.576  0.6378  0.8035 -0.1081
16190TIP3    H169985   6.674   2.389  11.569  0.6338  0.8432 -0.1424
16190TIP3    H269986   6.562   2.301  11.620  0.6675  0.6107 -0.4634
16191TIP3   OH269987   1.341   5.681   1.423 -0.0372  0.5635 -0.3108
16191TIP3    H169988   1.430   5.714   1.432 -0.6486  1.9744  0.9282
16191TIP3    H269989   1.290   5.730   1.488 -1.1896 -2.2496  1.1114
16192TIP3   OH269990   6.638   4.045  12.753  0.6796  0.2335  0.0990
16192TIP3    H169991   6.718   4.028  12.802 -0.4724 -0.9521  1.6571
16192TIP3    H269992   6.652   4.132  12.715  2.2654  0.5148  1.2030
16193TIP3   OH269993   1.811   1.789   3.437 -0.1254  0.0158  0.3645
16193TIP3    H169994   1.765   1.705   3.445  0.5071 -0.2884  0.9896
16193TIP3    H269995   1.901   1.768   3.464  0.4305  0.5402 -1.0018
16194TIP3   OH269996   5.048   4.408  16.352  0.2112 -0.4004 -0.1070
16194TIP3    H169997   5.017   4.495  16.377 -0.9865 -0.5991 -0.8334
16194TIP3    H269998   5.099   4.379  16.427 -2.4322 -0.5775  1.7847
16195TIP3   OH269999   5.471   5.740   4.238  0.2417  0.1340  0.4112
16195TIP3    H170000   5.397   5.682   4.221  0.2092 -0.5344  2.4625
16195TIP3    H270001   5.486   5.786   4.156 -2.9989  0.9563  0.1407
16196TIP3   OH270002   4.372   3.783   1.736 -0.0628 -0.2809  0.0546
16196TIP3    H170003   4.427   3.760   1.812 -0.8313  1.0974  1.0764
16196TIP3    H270004   4.434   3.804   1.667  0.8249  2.3618  1.5200
16197TIP3   OH270005   5.942   3.451   1.384 -0.2824  0.0049  0.0593
16197TIP3    H170006   5.942   3.427   1.291 -0.3862  0.6959 -0.1233
16197TIP3    H270007   5.890   3.531   1.388 -1.7410 -0.9492  0.9761
16198TIP3   OH270008   3.523   4.652  12.162 -0.0609  0.1281 -0.1804
16198TIP3    H170009   3.534   4.672  12.256  0.2284 -1.0956  0.0638
16198TIP3    H270010   3.444   4.598  12.158  0.9167 -1.3403 -0.3912
16199TIP3   OH270011   2.754   5.958   0.532 -0.1188 -0.2073  0.2914
16199TIP3    H170012   2.677   6.000   0.569 -0.6535 -1.4360  0.6449
16199TIP3    H270013   2.826   6.019   0.549 -1.1735  1.5477 -1.1496
16200TIP3   OH270014   5.642   1.610  15.984  0.4121 -0.3219 -0.1073
16200TIP3    H170015   5.705   1.582  16.051  1.4927  0.7647 -0.6469
16200TIP3    H270016   5.562   1.630  16.034  1.7923  2.4668  1.2427
16201TIP3   OH270017   0.868   2.028   1.148  0.0251 -0.0232  0.4812
16201TIP3    H170018   0.817   2.080   1.211  0.0703 -0.2917  0.7414
16201TIP3    H270019   0.838   1.938   1.161  0.5299 -0.1770  0.6055
16202TIP3   OH270020   0.006   5.583  12.779 -0.0761 -0.3252  0.3582
16202TIP3    H170021   0.083   5.619  12.736 -1.0815  1.1809 -0.2620
16202TIP3    H270022   0.041   5.527  12.848  1.5675  0.2200  0.0062
16203TIP3   OH270023   3.324   5.960   4.345 -0.2796  0.0553  0.0239
16203TIP3    H170024   3.398   5.977   4.404 -0.3927  2.2999 -0.3936
16203TIP3    H270025   3.258   6.025   4.369 -2.1210 -1.7883  0.2797
16204TIP3   OH270026   0.099   0.127  17.120 -0.0414 -0.6401 -0.1840
16204TIP3    H170027   0.150   0.153  17.196 -1.4573 -1.6185  1.1602
16204TIP3    H270028   0.021   0.182  17.123  0.3197  0.0015 -1.5312
16205TIP3   OH270029   2.541   2.176  11.548 -0.0488  0.0618 -0.3376
16205TIP3    H170030   2.598   2.236  11.597 -0.4459 -0.3648  0.6805
16205TIP3    H270031   2.492   2.129  11.616 -2.6103  1.3591 -1.1511
16206TIP3   OH270032   5.690   4.545   4.201  0.0311 -0.1698  0.1977
16206TIP3    H170033   5.595   4.552   4.210 -0.0042 -0.8549  0.3951
16206TIP3    H270034   5.702   4.494   4.121  0.2382  0.0856  0.0655
16207TIP3   OH270035   1.419   3.467   0.977 -0.0255  0.0468 -0.1006
16207TIP3    H170036   1.357   3.539   0.991 -0.3613 -0.1356 -0.6403
16207TIP3    H270037   1.368   3.388   0.992  0.2183 -0.0936  0.0001
16208TIP3   OH270038   6.592   0.760  13.823  0.7043  0.5447  0.8777
16208TIP3    H170039   6.546   0.678  13.836  0.4439  0.4624 -0.4746
16208TIP3    H270040   6.622   0.785  13.911 -0.0033 -0.5118  1.4341
16209TIP3   OH270041   2.588   4.471  12.195 -0.4156 -0.1369 -0.1022
16209TIP3    H170042   2.530   4.507  12.261 -0.6826  1.5532 -1.1978
16209TIP3    H270043   2.676   4.499  12.222 -0.6320  1.5106 -1.0010
16210TIP3   OH270044   2.738   5.239  10.412  0.0120 -0.3194  1.0561
16210TIP3    H170045   2.827   5.258  10.383  0.9535 -1.6694  2.8693
16210TIP3    H270046   2.732   5.143  10.411 -0.3388 -0.4139  3.8031
16211TIP3   OH270047   0.077   3.671   4.837  0.1362  0.0628  0.7011
16211TIP3    H170048   0.162   3.672   4.882  0.4249 -1.3841  0.2527
16211TIP3    H270049   0.093   3.716   4.754  0.2803  0.4324  0.9299
16212TIP3   OH270050   3.393   0.412   0.622 -0.2144 -0.1505  0.5204
16212TIP3    H170051   3.389   0.416   0.526  0.2860 -1.8657  0.3972
16212TIP3    H270052   3.385   0.503   0.650 -2.8831  0.2043 -1.0342
16213TIP3   OH270053   3.342   4.580   3.302  0.3256  0.4191 -0.3251
16213TIP3    H170054   3.407   4.548   3.364  0.2598 -1.9873 -1.3538
16213TIP3    H270055   3.388   4.643   3.247  1.0618  0.6575  0.5565
16214TIP3   OH270056   2.637   3.484   1.152 -0.1208 -0.3857  0.6701
16214TIP3    H170057   2.590   3.568   1.150 -0.4586 -0.5797 -0.2383
16214TIP3    H270058   2.583   3.428   1.207  1.5622  0.7831  3.7323
16215TIP3   OH270059   3.397   5.955  12.300  0.2486  0.8840 -0.2611
16215TIP3    H170060   3.426   5.925  12.214  0.4417  0.7842 -0.1623
16215TIP3    H270061   3.478   5.967  12.350  0.0823 -1.0149  0.5509
16216TIP3   OH270062   3.162   4.293   1.866 -0.5777 -0.6132 -0.5139
16216TIP3    H170063   3.120   4.319   1.948 -3.0683  0.8338 -2.1149
16216TIP3    H270064   3.255   4.313   1.878 -0.7384 -1.1999  2.1871
16217TIP3   OH270065   3.342   1.651   4.568  0.2261  0.2006  0.1133
16217TIP3    H170066   3.357   1.663   4.474  1.0680 -1.0199  0.0690
16217TIP3    H270067   3.429   1.663   4.607  0.2198 -0.9794  0.5331
16218TIP3   OH270068   3.858   0.943  10.729  0.6216 -0.3897 -0.0039
16218TIP3    H170069   3.832   1.010  10.792 -0.7661 -1.3181  0.4711
16218TIP3    H270070   3.810   0.965  10.649  0.4076 -0.6291  0.0569
16219TIP3   OH270071   6.141   0.144   3.862  0.1433  0.0614 -0.2482
16219TIP3    H170072   6.046   0.133   3.873  0.1784 -5.0491 -2.2671
16219TIP3    H270073   6.149   0.209   3.793 -1.9582  0.2351 -0.4045
16220TIP3   OH270074   0.341   0.343  12.932  0.1671 -0.2441  0.1135
16220TIP3    H170075   0.310   0.416  12.878 -0.4285  0.4331  1.3254
16220TIP3    H270076   0.265   0.318  12.984  0.8178 -0.6292  0.8926
16221TIP3   OH270077   3.254   2.171   4.740  0.4475  0.5578  0.4588
16221TIP3    H170078   3.216   2.159   4.827 -0.2257  1.4208  0.3006
16221TIP3    H270079   3.217   2.254   4.709  1.0615  0.5077 -0.4504
16222TIP3   OH270080   6.224   2.343  12.443 -0.8966 -0.0855  0.3312
16222TIP3    H170081   6.151   2.403  12.460 -0.6484  0.3843 -0.2190
16222TIP3    H270082   6.182   2.258  12.428 -1.4827  0.4685 -1.4440
16223TIP3   OH270083   6.276   2.634  14.919 -0.4751 -0.8185  0.3525
16223TIP3    H170084   6.248   2.573  14.851 -0.2495 -0.9474  0.3769
16223TIP3    H270085   6.371   2.623  14.924 -0.2082  0.6708 -0.7561
16224TIP3   OH270086   3.259   2.131  14.096  0.0979  0.1852  0.2184
16224TIP3    H170087   3.270   2.221  14.066 -1.9039 -0.2619 -2.1602
16224TIP3    H270088   3.336   2.084  14.061 -0.0413  0.5244 -0.5498
16225TIP3   OH270089   1.545   4.608  11.948 -0.2576  0.4646  0.0425
16225TIP3    H170090   1.558   4.680  11.886  0.8936  1.4580  1.3655
16225TIP3    H270091   1.512   4.651  12.027 -0.8125 -0.6579  0.4301
16226TIP3   OH270092   4.485   0.664   2.615 -0.5950  0.2699  0.0006
16226TIP3    H170093   4.410   0.704   2.659  0.0411  0.8456  0.5709
16226TIP3    H270094   4.449   0.634   2.531 -1.2075  1.5630 -0.2243
16227TIP3   OH270095   6.451   0.439   4.782  0.5549 -0.1623 -0.1704
16227TIP3    H170096   6.392   0.486   4.723 -0.8862 -0.5725  0.8754
16227TIP3    H270097   6.396   0.373   4.824  1.5741 -0.0701  1.4190
16228TIP3   OH270098   3.248   2.646   4.563  0.1990  0.6126 -0.0897
16228TIP3    H170099   3.303   2.663   4.487  1.1398  0.6301  0.5820
16228TIP3    H270100   3.273   2.713   4.627 -2.6499  2.5113 -0.7547
16229TIP3   OH270101   1.664   0.171   1.534  0.0911 -0.3130  0.3800
16229TIP3    H170102   1.759   0.181   1.538  0.0864 -0.5260  1.1942
16229TIP3    H270103   1.649   0.124   1.452  0.6782 -0.2168  0.2088
16230TIP3   OH270104   4.865   1.890   1.650 -0.1506  0.5321 -0.2820
16230TIP3    H170105   4.894   1.940   1.726  0.0822  0.1139 -0.0977
16230TIP3    H270106   4.774   1.867   1.669  0.2665 -0.5958  0.4046
16231TIP3   OH270107   6.300   0.538   1.825  0.2114  0.4440 -0.0347
16231TIP3    H170108   6.357   0.610   1.797  1.3262 -0.9096 -1.4461
16231TIP3    H270109   6.351   0.492   1.891  0.2364 -0.0531 -0.3982
16232TIP3   OH270110   4.828   0.275   0.187 -0.2038  0.6090 -0.4722
16232TIP3    H170111   4.885   0.304   0.115  1.0122  1.8780  0.9388
16232TIP3    H270112   4.877   0.205   0.230 -1.0655 -0.3621 -1.0209
16233TIP3   OH270113   6.441   5.100  12.327 -0.0437 -0.2735 -0.2463
16233TIP3    H170114   6.492   5.020  12.334 -0.0452 -0.2099  0.5020
16233TIP3    H270115   6.505   5.171  12.339 -0.3321 -0.1967  0.9306
16234TIP3   OH270116   4.451   6.009   0.919  0.6029  0.3872  0.1024
16234TIP3    H170117   4.510   6.085   0.925  1.0437  0.1064 -0.4594
16234TIP3    H270118   4.437   5.982   1.009  0.3972  1.1732  0.3130
16235TIP3   OH270119   3.450   3.099   5.317  0.2619  0.3606 -0.0502
16235TIP3    H170120   3.429   3.053   5.236 -2.4133  1.0783  0.1566
16235TIP3    H270121   3.433   3.035   5.386  1.0254  0.2500  0.0505
16236TIP3   OH270122   0.295   2.915  15.843  0.1374  0.2005 -0.1359
16236TIP3    H170123   0.288   2.852  15.771  0.9178 -2.5728  2.0017
16236TIP3    H270124   0.340   2.990  15.805 -3.2965  0.8497 -3.5718
16237TIP3   OH270125   5.980   6.277   3.793 -0.0484  0.0916  0.8928
16237TIP3    H170126   6.024   6.274   3.709  0.8490  1.3705  1.2985
16237TIP3    H270127   5.894   6.314   3.774 -0.0436 -0.1101  0.4717
16238TIP3   OH270128   4.038   0.532   3.362 -0.1270  0.0953 -0.4757
16238TIP3    H170129   4.024   0.627   3.355  0.4613  0.1702 -0.7016
16238TIP3    H270130   3.980   0.505   3.432 -1.5773  0.3424 -1.5468
16239TIP3   OH270131   2.660   1.201   4.569 -0.1106  0.7802 -0.3644
16239TIP3    H170132   2.679   1.107   4.569  3.7093  1.3279 -2.4846
16239TIP3    H270133   2.670   1.228   4.660  0.6046 -0.6179 -0.0020
16240TIP3   OH270134   6.575   1.034  10.972  0.3045  0.5491 -0.0971
16240TIP3    H170135   6.614   1.004  11.054 -0.1844  0.9141  0.2738
16240TIP3    H270136   6.627   0.991  10.904  2.5355  2.3956  0.3140
16241TIP3   OH270137   6.090   5.316  12.604  0.4292 -0.5965  0.0908
16241TIP3    H170138   6.045   5.301  12.688 -1.5964  1.2794 -0.5503
16241TIP3    H270139   6.157   5.381  12.624 -0.6267  0.5160  0.1631
16242TIP3   OH270140   2.525   1.323  15.795  0.5713 -0.5617  0.3845
16242TIP3    H170141   2.600   1.301  15.850  0.4622  0.2225  0.8527
16242TIP3    H270142   2.459   1.354  15.856 -0.2017 -1.3885 -0.0047
16243TIP3   OH270143   6.655   0.763   3.298  0.2335 -0.6288 -0.1083
16243TIP3    H170144   6.632   0.770   3.391  0.4207  1.6625 -0.1989
16243TIP3    H270145   6.601   0.690   3.266 -2.2234  0.5598  1.0821
16244TIP3   OH270146   0.129   2.698  14.139  0.1583  0.3298  1.1850
16244TIP3    H170147   0.183   2.621  14.155 -0.1637 -0.0499  0.4911
16244TIP3    H270148   0.106   2.730  14.227  1.5182  0.5269  1.4955
16245TIP3   OH270149   0.641   4.762   0.449  0.3767  0.4901  0.1029
16245TIP3    H170150   0.735   4.742   0.454  0.1474 -0.2687  3.0873
16245TIP3    H270151   0.626   4.824   0.520 -1.6328 -0.5258  0.6124
16246TIP3   OH270152   5.329   5.149  12.284 -0.4547  0.1240 -0.4957
16246TIP3    H170153   5.401   5.198  12.244  0.2257  1.3522  2.0410
16246TIP3    H270154   5.275   5.121  12.210  2.3512 -0.4882 -2.4726
16247TIP3   OH270155   4.580   0.778  16.504 -0.8304  0.2998  0.0615
16247TIP3    H170156   4.536   0.788  16.420 -0.1550 -1.5446 -0.5388
16247TIP3    H270157   4.581   0.684  16.520  0.8946  0.4686  1.1473
16248TIP3   OH270158   1.960   0.262  13.479  0.2203 -0.2712  0.1910
16248TIP3    H170159   1.981   0.168  13.486 -0.5608 -0.4538  0.1968
16248TIP3    H270160   2.027   0.297  13.421  0.4921 -0.8440  0.1453
16249TIP3   OH270161   1.863   2.916  14.331  0.2064  0.1729 -0.2230
16249TIP3    H170162   1.782   2.945  14.372  1.0118  0.2625  1.4275
16249TIP3    H270163   1.848   2.824  14.311  0.0708 -0.1454  1.1944
16250TIP3   OH270164   1.853   1.641   0.194 -0.2051 -0.1444  0.0446
16250TIP3    H170165   1.802   1.582   0.139 -3.0329  2.8388 -0.9316
16250TIP3    H270166   1.805   1.644   0.277  1.5523 -1.3016  1.1585
16251TIP3   OH270167   2.499   5.370  12.048  0.3878 -0.5269 -0.3390
16251TIP3    H170168   2.427   5.367  11.985  0.6602 -0.3469 -0.6593
16251TIP3    H270169   2.467   5.319  12.123  0.1587 -0.9548 -0.7241
16252TIP3   OH270170   2.715   3.790  12.785 -0.7835  0.0953 -0.3096
16252TIP3    H170171   2.792   3.785  12.729 -0.0687  0.9616  0.5426
16252TIP3    H270172   2.662   3.715  12.761  0.4001 -0.5998 -0.8175
16253TIP3   OH270173   0.501   0.507  12.173 -0.2280  0.0010  0.4353
16253TIP3    H170174   0.498   0.594  12.214 -0.0856 -1.0188  2.7565
16253TIP3    H270175   0.583   0.506  12.124  0.0064  1.0099  0.7841
16254TIP3   OH270176   0.199   0.763   0.424  0.5069  0.4367  0.2067
16254TIP3    H170177   0.183   0.820   0.348 -2.2277  2.2153  1.9349
16254TIP3    H270178   0.182   0.675   0.392 -0.9539  1.1736 -1.2016
16255TIP3   OH270179   2.520   5.088   5.500 -0.4158 -0.1060  0.8120
16255TIP3    H170180   2.481   5.085   5.413  0.4662 -1.1680  0.4266
16255TIP3    H270181   2.542   5.180   5.513 -1.3404  0.2099  0.2890
16256TIP3   OH270182   0.285   4.697   5.758  0.2985 -0.5048  0.2549
16256TIP3    H170183   0.301   4.606   5.783  0.3681 -0.6074 -0.1459
16256TIP3    H270184   0.373   4.733   5.745  0.2565 -0.5573 -0.1895
16257TIP3   OH270185   4.647   3.738   4.898 -0.8516  0.8466  0.2215
16257TIP3    H170186   4.562   3.715   4.860 -0.7674  0.2992  0.3512
16257TIP3    H270187   4.695   3.655   4.899  0.1988  1.3953 -1.1501
16258TIP3   OH270188   4.692   6.555  15.792  0.3288 -0.1234 -0.0012
16258TIP3    H170189   4.612   6.513  15.760  0.4428 -0.7971  0.5593
16258TIP3    H270190   4.751   6.555  15.717  0.8027 -2.2041  0.3045
16259TIP3   OH270191   4.552   0.362   5.580  0.0092 -0.1809  0.0617
16259TIP3    H170192   4.486   0.429   5.560 -0.3915  0.1508  2.2746
16259TIP3    H270193   4.633   0.396   5.544 -0.8787 -0.3417 -2.2427
16260TIP3   OH270194   2.623   4.189  13.077  0.4430 -0.0465 -0.0057
16260TIP3    H170195   2.711   4.192  13.040  0.3419 -0.5099 -0.2896
16260TIP3    H270196   2.634   4.217  13.168  1.0491 -1.1014  0.2685
16261TIP3   OH270197   6.262   5.586   1.487 -0.1607  0.1440  0.3379
16261TIP3    H170198   6.347   5.624   1.466  0.7226 -1.2663  1.1915
16261TIP3    H270199   6.277   5.491   1.487 -2.1883 -0.2700 -1.3514
16262TIP3   OH270200   5.094   2.589  13.429  0.3292  0.4833 -0.4193
16262TIP3    H170201   5.015   2.563  13.478  0.6287 -0.0286 -0.1934
16262TIP3    H270202   5.109   2.680  13.454 -0.6354  0.8438 -1.0695
16263TIP3   OH270203   2.333   3.785  16.396  0.7338 -0.3861  0.4340
16263TIP3    H170204   2.277   3.857  16.368 -0.3023 -1.2454  0.2120
16263TIP3    H270205   2.370   3.751  16.314  1.9645  0.4505  0.6125
16264TIP3   OH270206   2.511   0.588  15.945 -0.0464  0.5093  0.2247
16264TIP3    H170207   2.464   0.606  16.026  0.6896  1.7896  0.3852
16264TIP3    H270208   2.448   0.540  15.891 -1.9644  3.0242  0.0292
16265TIP3   OH270209   4.912   2.906   2.645  0.0427  0.1627 -0.1398
16265TIP3    H170210   4.884   2.988   2.685  1.0121  0.4225  0.0337
16265TIP3    H270211   4.939   2.930   2.556 -1.2200 -0.2572 -0.6667
16266TIP3   OH270212   4.146   4.789  14.546  0.3913 -0.7440  0.0364
16266TIP3    H170213   4.078   4.729  14.514  0.2416 -1.5156  1.7055
16266TIP3    H270214   4.224   4.764  14.497  0.0387 -1.4947 -0.1628
16267TIP3   OH270215   3.839   5.978  16.710 -0.6031 -0.8816  0.1560
16267TIP3    H170216   3.916   5.960  16.656 -0.3093 -2.1399  0.9562
16267TIP3    H270217   3.866   6.052  16.764 -0.1800 -0.9064 -0.0103
16268TIP3   OH270218   0.725   4.104   3.080 -0.2449  0.3255  0.3170
16268TIP3    H170219   0.653   4.043   3.099 -0.1021  0.0507 -0.0199
16268TIP3    H270220   0.793   4.050   3.041 -0.8754  1.0137 -1.8693
16269TIP3   OH270221   4.909   1.739  15.740  0.0272  0.1182 -0.2112
16269TIP3    H170222   4.869   1.732  15.653  0.3406 -2.9993 -0.2139
16269TIP3    H270223   4.974   1.808  15.731 -0.7647  0.6834 -2.1046
16270TIP3   OH270224   4.475   4.117  16.336 -0.0517  0.6909  0.3893
16270TIP3    H170225   4.513   4.036  16.369  2.1950  0.8914 -1.4659
16270TIP3    H270226   4.497   4.183  16.402  0.9330  0.3738  0.3826
16271TIP3   OH270227   3.536   6.006  11.051 -0.1473 -0.1177  0.3707
16271TIP3    H170228   3.545   6.016  11.146 -0.7778  0.2709  0.3937
16271TIP3    H270229   3.583   6.081  11.015 -0.3976  0.0501  0.3929
16272TIP3   OH270230   2.878   0.017  13.323  0.1021 -0.2475  0.4596
16272TIP3    H170231   2.869   0.024  13.418 -0.5611 -0.8975  0.4486
16272TIP3    H270232   2.801   0.062  13.288 -0.0517 -0.6701  0.2479
16273TIP3   OH270233   6.150   6.005   0.270  0.0747  0.2551  0.0961
16273TIP3    H170234   6.244   5.991   0.274  0.1266 -0.1410 -1.7416
16273TIP3    H270235   6.139   6.094   0.237 -0.2396  0.8959  1.8081
16274TIP3   OH270236   3.009   6.533  15.678 -0.3469  0.0103  0.4375
16274TIP3    H170237   3.013   6.566  15.768  0.2238 -0.2667  0.5214
16274TIP3    H270238   2.961   6.600  15.629  1.4052  1.3316  0.4456
16275TIP3   OH270239   4.705   2.025   0.585 -0.3030  0.5195  0.0781
16275TIP3    H170240   4.623   2.050   0.543 -0.0206  1.2143 -0.0843
16275TIP3    H270241   4.730   2.102   0.637  0.4251  0.4604 -0.1645
16276TIP3   OH270242   2.830   0.776  16.944 -0.5045  0.2639  0.5560
16276TIP3    H170243   2.917   0.756  16.980  0.0733 -0.7028 -1.2781
16276TIP3    H270244   2.813   0.866  16.973  0.7501  0.1919  1.6219
16277TIP3   OH270245   3.249   4.934   5.150 -0.1852  0.3753 -0.0421
16277TIP3    H170246   3.307   4.998   5.191 -0.7085  0.2166  0.9631
16277TIP3    H270247   3.165   4.943   5.196 -0.4546 -0.5934 -0.3048
16278TIP3   OH270248   1.850   0.614   1.652  0.1284  1.0820 -0.0981
16278TIP3    H170249   1.754   0.616   1.661 -0.0843 -0.3387 -1.4497
16278TIP3    H270250   1.882   0.592   1.739 -1.0630 -2.2061 -0.3456
16279TIP3   OH270251   4.592   5.243   3.602  0.1971 -0.0817 -0.1942
16279TIP3    H170252   4.538   5.286   3.535 -1.3544 -0.3337  0.8355
16279TIP3    H270253   4.659   5.308   3.624 -0.0192  0.4661 -1.1151
16280TIP3   OH270254   1.251   2.296  16.721  0.3284  0.5905 -0.2211
16280TIP3    H170255   1.309   2.277  16.795 -0.9030  0.4323  0.7279
16280TIP3    H270256   1.276   2.232  16.654  0.3294 -0.3915  0.6883
16281TIP3   OH270257   0.620   3.431   4.121 -0.6006 -0.0498 -0.1011
16281TIP3    H170258   0.646   3.425   4.029  1.7934 -0.9962  0.5566
16281TIP3    H270259   0.608   3.525   4.136 -0.2092  0.1918 -1.1723
16282TIP3   OH270260   6.151   2.955   2.550  0.1320 -0.0882  0.4533
16282TIP3    H170261   6.169   2.878   2.604 -0.5598  0.1218  0.9988
16282TIP3    H270262   6.086   3.004   2.600 -0.7023 -0.0101 -0.6835
16283TIP3   OH270263   4.371   0.168   3.877 -0.0372 -0.8160  0.1854
16283TIP3    H170264   4.332   0.236   3.822 -1.0950 -0.9574  0.7216
16283TIP3    H270265   4.399   0.100   3.815  1.6585  0.3762 -0.4107
16284TIP3   OH270266   2.682   2.200   2.385  0.3073 -0.1009 -0.0223
16284TIP3    H170267   2.776   2.190   2.398  0.2784 -1.7366 -0.8476
16284TIP3    H270268   2.656   2.123   2.335 -1.1939  1.1272 -1.2672
16285TIP3   OH270269   0.993   1.364  12.301  0.4681 -0.1718  0.0492
16285TIP3    H170270   0.943   1.419  12.361 -0.7519  0.1318 -1.1879
16285TIP3    H270271   1.081   1.361  12.338 -0.0714  0.5848  1.4499
16286TIP3   OH270272   1.332   0.272  13.106 -0.1915  0.2113 -0.4120
16286TIP3    H170273   1.351   0.241  13.195 -0.7898 -0.4383 -0.5063
16286TIP3    H270274   1.367   0.361  13.104 -0.0300  0.1739  0.4237
16287TIP3   OH270275   0.735   5.915  11.707 -0.1991 -0.1012 -0.1525
16287TIP3    H170276   0.756   5.831  11.665 -1.1636 -0.4105 -0.0490
16287TIP3    H270277   0.678   5.891  11.780 -0.3988  0.6389 -0.0623
16288TIP3   OH270278   4.828   1.148   7.009 -0.1223 -0.3574  0.0922
16288TIP3    H170279   4.906   1.203   7.022  0.7191 -1.6177  0.5613
16288TIP3    H270280   4.777   1.195   6.943  0.8295  0.7015  0.0635
16289TIP3   OH270281   1.698   0.317  10.917  0.5781 -0.1516  0.0151
16289TIP3    H170282   1.728   0.404  10.946  0.8087 -0.4171  0.5970
16289TIP3    H270283   1.646   0.334  10.839  0.8233  0.4898 -0.0141
16290TIP3   OH270284   6.650   6.134   2.974  0.4964 -0.7400  0.5565
16290TIP3    H170285   6.631   6.094   2.889  1.9385 -0.3599  0.0359
16290TIP3    H270286   6.742   6.158   2.970  0.1867  0.8017  1.6082
16291TIP3   OH270287   4.975   0.331   2.229 -0.3983  0.7888  0.3925
16291TIP3    H170288   4.944   0.250   2.270 -3.5983  2.3016  1.2995
16291TIP3    H270289   5.057   0.351   2.275  0.9603 -2.2834 -0.4700
16292TIP3   OH270290   4.592   5.735   4.941  0.3388  0.6855  0.5310
16292TIP3    H170291   4.529   5.689   4.997  1.9434  0.0012  1.8609
16292TIP3    H270292   4.609   5.674   4.870  0.2357  0.4711  0.6869
16293TIP3   OH270293   6.330   0.199   5.683 -0.4102 -0.5371  0.3116
16293TIP3    H170294   6.411   0.181   5.636 -0.6727  1.1832 -0.8795
16293TIP3    H270295   6.349   0.175   5.773  1.1195 -1.0205 -0.1102
16294TIP3   OH270296   4.441   2.359   0.312 -0.2882  0.3677  0.3069
16294TIP3    H170297   4.369   2.328   0.367 -0.1210 -0.7640 -0.0856
16294TIP3    H270298   4.419   2.450   0.294 -2.9026 -0.5074 -1.7264
16295TIP3   OH270299   0.809   5.651  15.672  0.5640 -0.4298  0.1203
16295TIP3    H170300   0.895   5.628  15.637  0.2022 -1.2105 -0.2813
16295TIP3    H270301   0.774   5.569  15.706 -0.3160 -0.2824 -0.3816
16296TIP3   OH270302   6.298   1.377   1.065  0.0334 -0.0415 -1.1090
16296TIP3    H170303   6.384   1.406   1.035  0.8859 -1.6756 -0.3958
16296TIP3    H270304   6.268   1.316   0.997  0.5917 -1.3947 -0.1721
16297TIP3   OH270305   5.889   2.148  14.535 -0.1817 -0.1991  0.1751
16297TIP3    H170306   5.958   2.124  14.472 -0.7477  0.7510 -0.8499
16297TIP3    H270307   5.825   2.078  14.529 -0.0938 -0.2553 -0.1141
16298TIP3   OH270308   1.861   4.019  11.996  0.4180  0.1568  0.0295
16298TIP3    H170309   1.861   4.101  12.045  1.3668  0.9555 -1.2410
16298TIP3    H270310   1.883   3.952  12.061  2.4634  1.2834  0.5560
16299TIP3   OH270311   0.031   6.518  11.820 -0.0743  0.4247  0.2116
16299TIP3    H170312  -0.028   6.589  11.843  0.7306  2.1836 -2.5826
16299TIP3    H270313  -0.018   6.466  11.756  0.8180  1.0944 -1.0731
16300TIP3   OH270314   0.216   5.890   0.630 -0.2144  0.1311 -0.3670
16300TIP3    H170315   0.236   5.799   0.649  0.0458  0.0167 -1.1555
16300TIP3    H270316   0.289   5.920   0.576 -0.2886  0.8141 -0.1031
16301TIP3   OH270317   2.943   2.691   0.808  0.1241  0.5992  0.0331
16301TIP3    H170318   2.923   2.776   0.769 -1.4801 -0.3112 -1.2715
16301TIP3    H270319   2.859   2.645   0.808  0.7494 -0.6057  1.7131
16302TIP3   OH270320   2.580   5.749  10.855 -0.1298 -0.3909 -0.2060
16302TIP3    H170321   2.590   5.672  10.911  0.5910 -0.0023  0.2124
16302TIP3    H270322   2.633   5.817  10.898  0.2704 -0.0271 -1.2494
16303TIP3   OH270323   4.556   4.567  16.680 -0.1173  1.0174  0.7599
16303TIP3    H170324   4.576   4.593  16.770 -1.3071 -0.6517  1.5528
16303TIP3    H270325   4.470   4.605  16.663 -0.2389  0.6708  0.6072
16304TIP3   OH270326   0.720   2.879  16.263  0.0235 -0.0877  0.5052
16304TIP3    H170327   0.746   2.908  16.350  1.9764 -0.4117  0.0771
16304TIP3    H270328   0.630   2.849  16.273 -0.3076  1.2908  2.0630
16305TIP3   OH270329   4.483   0.484  14.673  0.5718  0.1085  0.5838
16305TIP3    H170330   4.554   0.480  14.609 -0.5663  0.1559 -0.7186
16305TIP3    H270331   4.418   0.421  14.641 -0.0884  0.2447  1.6175
16306TIP3   OH270332   0.091   4.225   1.359 -0.0336 -0.4114  0.6364
16306TIP3    H170333   0.089   4.285   1.434 -0.3823  0.0509  0.2705
16306TIP3    H270334   0.156   4.263   1.300 -1.8916  0.9637 -0.6560
16307TIP3   OH270335   3.079   5.266  15.372 -0.0120  0.3093 -0.5277
16307TIP3    H170336   3.004   5.319  15.344  0.1480  0.5523 -0.5094
16307TIP3    H270337   3.156   5.318  15.345  0.1510 -0.0919 -0.8412
16308TIP3   OH270338   2.170   0.944  16.962 -0.0441  0.1672  0.0301
16308TIP3    H170339   2.253   0.990  16.973 -0.7565  1.7876 -1.0000
16308TIP3    H270340   2.139   0.971  16.875 -2.6815  1.3658  1.2321
16309TIP3   OH270341   4.823   4.189  16.641  0.0336 -0.6462 -0.3298
16309TIP3    H170342   4.871   4.160  16.563  0.9806 -0.7761  0.2952
16309TIP3    H270343   4.852   4.131  16.711  1.4962  1.3466  0.8177
16310TIP3   OH270344   2.199   4.823   2.725 -0.2710 -0.1937  0.2127
16310TIP3    H170345   2.174   4.782   2.808 -0.9126  0.4131  0.3315
16310TIP3    H270346   2.157   4.770   2.658  0.3909 -0.7879  0.2591
16311TIP3   OH270347   6.503   4.403  12.146 -0.2106 -0.0937 -0.2208
16311TIP3    H170348   6.508   4.311  12.170  1.4397  0.0824  0.1961
16311TIP3    H270349   6.489   4.449  12.229  0.5356  0.1474 -0.2279
16312TIP3   OH270350   3.467   0.336  16.720 -0.1639 -0.1461 -0.7373
16312TIP3    H170351   3.478   0.261  16.779  0.0227  0.9263  0.6567
16312TIP3    H270352   3.549   0.339  16.670 -0.0496 -0.6963 -0.5931
16313TIP3   OH270353   2.021   1.154   2.908  0.4269 -0.3235 -0.3047
16313TIP3    H170354   1.981   1.068   2.893 -0.7030  0.0281  0.5786
16313TIP3    H270355   2.115   1.137   2.904  0.2202 -1.3509 -1.4640
16314TIP3   OH270356   4.403   4.710   4.733 -0.4905 -0.2076  0.0123
16314TIP3    H170357   4.447   4.744   4.811 -1.7501 -1.6199  1.4141
16314TIP3    H270358   4.339   4.777   4.711  0.1392  0.3799 -0.0769
16315TIP3   OH270359   1.812   2.499  12.652  0.0427  0.0954  0.4924
16315TIP3    H170360   1.866   2.488  12.730 -0.7103 -1.3001  0.8448
16315TIP3    H270361   1.728   2.462  12.675 -0.9190  1.7008 -0.2586
16316TIP3   OH270362   0.095   2.855  11.233  0.2518  0.0387 -0.3648
16316TIP3    H170363   0.162   2.794  11.264  1.2099  0.8216 -0.8775
16316TIP3    H270364   0.077   2.827  11.144 -0.6733 -0.6360  0.0141
16317TIP3   OH270365   0.054   5.761  11.701  0.2330  0.3561  0.0562
16317TIP3    H170366   0.095   5.693  11.647  1.5058  0.6713  0.5765
16317TIP3    H270367   0.096   5.842  11.672 -0.8907  0.8683 -0.1922
16318TIP3   OH270368   1.547   4.884   4.233 -0.0702 -0.6324  0.0139
16318TIP3    H170369   1.542   4.883   4.328  1.2898 -0.1943  0.1135
16318TIP3    H270370   1.613   4.818   4.211 -0.2355 -0.5998 -0.6102
16319TIP3   OH270371   0.913   6.307   4.179 -0.1551 -0.0723  0.7373
16319TIP3    H170372   0.871   6.221   4.191 -2.1744  0.7456 -0.0143
16319TIP3    H270373   0.878   6.339   4.096 -0.3338  1.9780  1.5650
16320TIP3   OH270374   3.501   4.399  16.752 -0.5372 -0.2216 -0.0693
16320TIP3    H170375   3.516   4.412  16.658 -0.2187 -2.3032 -0.3543
16320TIP3    H270376   3.588   4.390  16.790 -0.7035 -1.0824  0.1305
16321TIP3   OH270377   5.637   6.510   4.068 -0.2789  0.4381 -0.1578
16321TIP3    H170378   5.574   6.579   4.048  0.5018  1.1962 -0.0963
16321TIP3    H270379   5.646   6.512   4.163 -1.6303 -1.0224  0.0349
16322TIP3   OH270380   3.414   0.224   0.867  0.4999  0.1094  0.4856
16322TIP3    H170381   3.413   0.203   0.774 -2.1456 -4.4043  1.2458
16322TIP3    H270382   3.346   0.290   0.878  1.0939  0.9566 -0.7993
16323TIP3   OH270383   1.444   6.389  12.202  0.4171  0.9917  0.1521
16323TIP3    H170384   1.396   6.309  12.220  0.5624  0.5214 -1.4261
16323TIP3    H270385   1.380   6.459  12.214 -1.1802  0.3047 -3.2754
16324TIP3   OH270386   3.861   3.047  15.803 -0.3495  0.2441 -0.9386
16324TIP3    H170387   3.862   2.957  15.770  0.8958  0.1541 -0.6916
16324TIP3    H270388   3.825   3.039  15.892  0.8301 -0.1880 -0.4786
16325TIP3   OH270389   0.030   6.466  15.144 -0.2729 -0.8589  0.0649
16325TIP3    H170390   0.058   6.533  15.081  1.7219 -0.9378  0.7875
16325TIP3    H270391  -0.024   6.514  15.207 -0.7585 -0.4136 -0.6734
16326TIP3   OH270392   1.830   2.731  15.023 -0.3673 -0.0173 -0.6430
16326TIP3    H170393   1.878   2.708  15.103 -1.4569 -0.6320 -0.1509
16326TIP3    H270394   1.886   2.795  14.979  0.5366 -0.1380  0.3030
16327TIP3   OH270395   1.372   1.733  11.224  0.5387 -0.2720 -0.7473
16327TIP3    H170396   1.339   1.684  11.299 -0.4668  1.7405  0.2171
16327TIP3    H270397   1.302   1.725  11.158 -1.1417  2.2800  0.5450
16328TIP3   OH270398   3.061   5.827  15.178 -0.2535 -0.2572  0.2796
16328TIP3    H170399   2.969   5.802  15.185 -0.1504 -0.7806 -0.2162
16328TIP3    H270400   3.072   5.894  15.246 -1.5954  1.5791 -1.1948
16329TIP3   OH270401   5.395   1.202  14.198  0.2693  0.1891 -0.4367
16329TIP3    H170402   5.484   1.222  14.170  0.6490  0.2708  0.7928
16329TIP3    H270403   5.353   1.166  14.119  1.8775 -1.4303 -0.6372
16330TIP3   OH270404   0.407   4.507   0.030  0.7105  0.2207  0.0921
16330TIP3    H170405   0.498   4.532   0.012  0.1137  2.1948 -0.4072
16330TIP3    H270406   0.357   4.587   0.013 -0.9252 -0.2985  2.1031
16331TIP3   OH270407   0.694   1.662  12.800  0.0124  0.1594  0.2009
16331TIP3    H170408   0.740   1.597  12.853 -0.6094 -1.5036 -1.2402
16331TIP3    H270409   0.662   1.726  12.865  0.1423 -1.2560  1.7374
16332TIP3   OH270410   5.634   5.218   3.248 -0.0209 -0.3026  0.4420
16332TIP3    H170411   5.629   5.198   3.342 -0.2380  0.7257  0.6724
16332TIP3    H270412   5.554   5.268   3.231  0.7909  0.9230  0.0883
16333TIP3   OH270413   4.272   1.971  14.857  0.7217  0.3224 -0.6971
16333TIP3    H170414   4.271   1.989  14.763  1.2432  1.4327 -0.5125
16333TIP3    H270415   4.336   2.034  14.893  0.0058  0.4091  0.4864
16334TIP3   OH270416   0.461   4.246  16.547  0.0579 -0.6428 -0.1977
16334TIP3    H170417   0.546   4.281  16.572 -0.8933 -0.3654  3.3089
16334TIP3    H270418   0.473   4.212  16.459  4.0314 -1.3950  0.4420
16335TIP3   OH270419   5.238   1.814  13.383  0.2819 -0.4895  0.1175
16335TIP3    H170420   5.304   1.875  13.415 -0.1508 -0.2645  0.6023
16335TIP3    H270421   5.172   1.870  13.340  0.2256 -0.6773 -0.0424
16336TIP3   OH270422   4.032   6.771  15.115  0.5109  0.0793  0.1593
16336TIP3    H170423   3.999   6.850  15.072  0.0144  0.4831  1.2700
16336TIP3    H270424   3.959   6.740  15.168  0.0264 -2.2390 -1.7057
16337TIP3   OH270425   4.103   5.598  13.852 -0.1484 -0.1758 -0.0190
16337TIP3    H170426   4.039   5.653  13.898 -0.8491  0.2809 -1.4670
16337TIP3    H270427   4.111   5.520  13.907 -1.3444  0.1157  0.6189
16338TIP3   OH270428   1.374   5.383   4.117 -0.3284  0.0521 -0.7102
16338TIP3    H170429   1.300   5.444   4.108 -0.7056 -0.2555  0.1775
16338TIP3    H270430   1.452   5.439   4.113 -0.6671  0.5788 -0.1064
16339TIP3   OH270431   1.943   2.702  16.071  0.3164  0.2061  0.3093
16339TIP3    H170432   1.931   2.742  16.157  2.0164  2.0225 -0.2209
16339TIP3    H270433   1.993   2.623  16.089  3.2356  2.0022  0.8738
16340TIP3   OH270434   5.400   1.610   0.629 -0.0702  0.6897 -0.2692
16340TIP3    H170435   5.386   1.527   0.583  0.4254  0.3166  0.2284
16340TIP3    H270436   5.315   1.633   0.664 -0.2713  0.5340 -0.6513
16341TIP3   OH270437   2.888   5.215   5.457  0.1768 -0.2535 -0.3724
16341TIP3    H170438   2.852   5.271   5.525 -0.2817 -1.6160  0.5492
16341TIP3    H270439   2.858   5.254   5.375 -1.7092 -0.1813  0.2987
16342TIP3   OH270440   6.559   2.752   4.649 -0.0696 -0.3758  1.1817
16342TIP3    H170441   6.571   2.764   4.555 -0.6643 -1.1333  1.0025
16342TIP3    H270442   6.561   2.841   4.685 -0.8743  0.0006  0.3271
16343TIP3   OH270443   5.877   4.632   1.066  0.8240  0.5451  0.3438
16343TIP3    H170444   5.834   4.565   1.014 -0.8740  1.2834  0.6896
16343TIP3    H270445   5.891   4.705   1.005  0.0799  0.8952  0.5660
16344TIP3   OH270446   4.495   2.766   1.283  0.4626  0.0783 -0.0870
16344TIP3    H170447   4.536   2.813   1.356 -0.3360  0.2282  0.2782
16344TIP3    H270448   4.486   2.833   1.214  1.5846 -0.1604 -0.4921
16345TIP3   OH270449   2.510   5.264   1.358 -0.3057 -0.6107  0.1287
16345TIP3    H170450   2.551   5.286   1.274  0.0932 -0.1533  0.4363
16345TIP3    H270451   2.575   5.209   1.402 -0.7277 -1.2720 -0.0690
16346TIP3   OH270452   4.267   3.254  12.711  0.8639  0.3975 -0.1245
16346TIP3    H170453   4.214   3.317  12.759 -0.0697 -1.4392  1.3868
16346TIP3    H270454   4.313   3.306  12.645  0.4672  2.6918  1.3103
16347TIP3   OH270455   4.339   1.959  13.383 -0.7641  0.0966  0.8295
16347TIP3    H170456   4.421   1.921  13.350 -0.0028  0.6548  2.0342
16347TIP3    H270457   4.271   1.902  13.347 -0.1146  1.3092 -2.6488
16348TIP3   OH270458   2.293   4.298   3.744 -0.4232  0.2898  0.3121
16348TIP3    H170459   2.360   4.357   3.708 -1.0046  1.1177  0.5619
16348TIP3    H270460   2.335   4.212   3.744  0.0707  0.4979 -1.0936
16349TIP3   OH270461   3.063   1.870  13.002 -0.1016  0.5398  0.6077
16349TIP3    H170462   3.072   1.877  12.907  0.5282  1.2232  0.7099
16349TIP3    H270463   3.118   1.940  13.037  0.5104 -0.3538  1.5114
16350TIP3   OH270464   1.352   0.365   2.998 -0.1202  0.3986 -0.5713
16350TIP3    H170465   1.327   0.425   3.069 -0.1170 -0.1337 -0.1131
16350TIP3    H270466   1.375   0.422   2.925 -0.4221  0.9485 -0.2409
16351TIP3   OH270467   3.354   3.764   4.543 -0.0334 -0.4333  0.2891
16351TIP3    H170468   3.426   3.747   4.605  0.8543  1.0227 -0.2989
16351TIP3    H270469   3.343   3.680   4.498  0.8071 -0.8932  0.8906
16352TIP3   OH270470   4.111   2.242   3.743 -0.5232 -0.2971 -0.5119
16352TIP3    H170471   4.061   2.161   3.754 -2.1576  0.2821 -2.9808
16352TIP3    H270472   4.064   2.307   3.796  0.8298 -0.8596  1.5294
16353TIP3   OH270473   2.660   3.781  14.859 -0.4463  0.9460  0.0251
16353TIP3    H170474   2.580   3.749  14.817  0.7928 -3.4494  0.4449
16353TIP3    H270475   2.638   3.787  14.952  0.1087 -2.7293  0.5488
16354TIP3   OH270476   6.194   6.537   2.543 -0.8012  0.2472 -0.0631
16354TIP3    H170477   6.101   6.556   2.536 -0.9330 -0.3133  0.1212
16354TIP3    H270478   6.201   6.473   2.613 -0.4167 -0.6401 -0.8806
16355TIP3   OH270479   4.625   6.169  16.408 -0.5581 -0.4112  0.1758
16355TIP3    H170480   4.678   6.221  16.348 -0.0405  1.7001  2.3263
16355TIP3    H270481   4.689   6.124  16.464 -1.0327 -0.7736  0.4372
16356TIP3   OH270482   2.157   3.452   1.213 -0.4519 -0.0921 -0.1461
16356TIP3    H170483   2.097   3.481   1.282  0.4673  0.6483  0.3803
16356TIP3    H270484   2.192   3.369   1.244 -0.8936 -0.3169 -0.2548
16357TIP3   OH270485   5.523   3.305  15.136  0.1568  0.0942 -0.5171
16357TIP3    H170486   5.488   3.321  15.223 -1.8818  2.9524 -1.6851
16357TIP3    H270487   5.618   3.310  15.147 -0.0798  3.0964  1.2188
16358TIP3   OH270488   0.570   3.052  14.032 -0.4122 -0.2210 -0.4057
16358TIP3    H170489   0.642   3.026  13.974 -1.0485 -0.1219 -1.2537
16358TIP3    H270490   0.607   3.044  14.120  0.2246 -1.4506 -0.7633
16359TIP3   OH270491   1.153   4.659   4.387 -0.2997  0.2510  0.3998
16359TIP3    H170492   1.058   4.649   4.388 -0.5444  2.2306  1.0748
16359TIP3    H270493   1.168   4.741   4.340  0.9920  0.5357  1.2575
16360TIP3   OH270494   3.073   2.867  16.926  0.2002  0.1311  0.7538
16360TIP3    H170495   3.054   2.843  16.836 -0.1905 -1.1555  1.1525
16360TIP3    H270496   3.121   2.792  16.961 -1.1944 -0.1748  2.1087
16361TIP3   OH270497   3.439   0.909   2.208  0.6675 -0.3361  0.4020
16361TIP3    H170498   3.533   0.923   2.197  1.0317  0.1700  3.3105
16361TIP3    H270499   3.433   0.830   2.263 -0.7366 -1.4617 -1.2464
16362TIP3   OH270500   3.068   2.612  15.139  0.5369  0.4300 -0.0917
16362TIP3    H170501   3.084   2.701  15.169  0.2321  1.0228 -1.5681
16362TIP3    H270502   2.980   2.615  15.100 -0.1047 -0.8968  1.1374
16363TIP3   OH270503   0.482   4.287  12.044  0.1631  0.4831  0.1162
16363TIP3    H170504   0.445   4.359  12.095  0.5196  1.8123 -1.4313
16363TIP3    H270505   0.419   4.272  11.974  0.5531 -0.0637 -0.1214
16364TIP3   OH270506   6.596   2.336   4.813 -0.0866 -0.1275  0.5531
16364TIP3    H170507   6.600   2.350   4.908 -1.1346 -0.7027  0.6900
16364TIP3    H270508   6.504   2.349   4.790  0.3029  0.9398 -0.5577
16365TIP3   OH270509   5.717   1.417  16.574 -0.3161 -0.0019  0.2375
16365TIP3    H170510   5.798   1.414  16.524  0.5382  0.8604  1.5098
16365TIP3    H270511   5.652   1.378  16.516  1.2429 -1.9541 -0.3417
16366TIP3   OH270512   0.012   0.454   4.880 -0.3821  0.4389 -0.6415
16366TIP3    H170513   0.013   0.542   4.842  1.6346  0.9913  0.5724
16366TIP3    H270514  -0.021   0.467   4.969  0.1146  0.0095 -0.3907
16367TIP3   OH270515   5.845   1.566  11.998  0.8146  0.1543  0.2939
16367TIP3    H170516   5.807   1.497  11.943 -0.0623 -0.0206  1.0987
16367TIP3    H270517   5.780   1.636  11.997  0.5007 -0.0909  1.5745
16368TIP3   OH270518   3.496   2.701   3.973 -0.4692  0.0506  0.5202
16368TIP3    H170519   3.438   2.767   3.935 -0.3177  0.0114  0.2154
16368TIP3    H270520   3.474   2.700   4.066 -3.0794 -2.1120 -0.0077
16369TIP3   OH270521   6.367   0.489  17.134 -0.2845 -0.2851 -0.6002
16369TIP3    H170522   6.354   0.584  17.134  1.8849  0.0691 -1.0616
16369TIP3    H270523   6.399   0.469  17.222  0.6502 -0.3220 -0.9298
16370TIP3   OH270524   5.765   3.752   5.902  0.2754 -0.1686 -0.0704
16370TIP3    H170525   5.802   3.673   5.940 -0.6009 -0.3824  0.3745
16370TIP3    H270526   5.756   3.732   5.808  0.7881 -0.2989 -0.0934
16371TIP3   OH270527   5.275   2.531   2.946  0.1394  0.1738 -0.1722
16371TIP3    H170528   5.247   2.576   2.867 -1.2245 -1.4437 -0.6547
16371TIP3    H270529   5.362   2.498   2.926  0.3035  0.8224 -0.5377
16372TIP3   OH270530   2.209   1.508   0.795  0.6033 -0.0799  0.5300
16372TIP3    H170531   2.127   1.494   0.843  0.3104 -1.1449 -0.2411
16372TIP3    H270532   2.197   1.593   0.751  0.9713  1.0382  2.4562
16373TIP3   OH270533   2.679   4.006   4.939  0.2440  0.1590 -0.6165
16373TIP3    H170534   2.690   4.004   5.034  2.7428  1.3585 -0.8041
16373TIP3    H270535   2.591   4.041   4.926  0.0263  0.4096  1.2467
16374TIP3   OH270536   4.048   4.897   5.805  0.4673  0.1758 -0.1094
16374TIP3    H170537   3.967   4.847   5.811  0.3705  0.4288  0.8515
16374TIP3    H270538   4.031   4.978   5.853  1.3337  0.1685  0.2329
16375TIP3   OH270539   0.684   4.665   2.796  0.1339 -0.3508  0.0421
16375TIP3    H170540   0.611   4.715   2.759 -0.9222  0.0115  2.4449
16375TIP3    H270541   0.695   4.591   2.736 -2.2203 -0.4157 -0.4058
16376TIP3   OH270542   5.056   5.505   4.738  0.1834 -0.1248 -0.8934
16376TIP3    H170543   5.049   5.557   4.657  0.1982  2.8389  0.8785
16376TIP3    H270544   5.147   5.514   4.764  0.0926 -0.7501 -0.3405
16377TIP3   OH270545   5.475   4.644  15.939 -0.0474 -0.7484  0.2743
16377TIP3    H170546   5.433   4.729  15.933 -1.2328 -1.0817  2.4842
16377TIP3    H270547   5.444   4.596  15.862  0.3906  0.6806 -0.8291
16378TIP3   OH270548   3.000   2.661   2.935 -0.3642 -0.0673 -0.6388
16378TIP3    H170549   2.952   2.744   2.926 -1.2126 -0.4087  0.5677
16378TIP3    H270550   3.018   2.634   2.845 -1.9962  0.3374 -1.1139
16379TIP3   OH270551   1.644   2.932   0.997 -0.1085  0.3112  0.0254
16379TIP3    H170552   1.628   3.020   0.963 -1.0093 -0.3018 -1.2584
16379TIP3    H270553   1.688   2.886   0.925 -2.4697 -1.1662 -0.6370
16380TIP3   OH270554   4.315   1.985  11.325 -0.5641 -0.0476 -0.2214
16380TIP3    H170555   4.279   2.054  11.270  0.6389 -0.1115 -1.1173
16380TIP3    H270556   4.306   1.905  11.274  0.9657 -0.0376 -0.5399
16381TIP3   OH270557   5.344   6.444   0.887 -0.4409  0.6802 -0.0902
16381TIP3    H170558   5.417   6.505   0.897 -0.0759  0.2554 -0.1466
16381TIP3    H270559   5.297   6.477   0.810  0.3084  0.3422 -0.7104
16382TIP3   OH270560   3.235   0.711  14.132 -0.4309 -0.1644 -0.0250
16382TIP3    H170561   3.259   0.772  14.202 -0.8905 -0.8030  0.7078
16382TIP3    H270562   3.158   0.749  14.091  0.5228  0.8139 -0.9878
16383TIP3   OH270563   0.849   2.893  13.962  0.0194  0.0446  0.5136
16383TIP3    H170564   0.794   2.815  13.971 -1.5924  1.0308 -0.2791
16383TIP3    H270565   0.927   2.873  14.014  0.1954 -2.5463 -0.5869
16384TIP3   OH270566   6.241   5.182   0.985 -0.2640  0.0021  0.3486
16384TIP3    H170567   6.306   5.169   1.054  0.6639 -0.2823 -0.5547
16384TIP3    H270568   6.183   5.106   0.991 -1.8800  1.2854  2.5495
16385TIP3   OH270569   2.134   6.049  10.562  0.2170  0.3212 -0.0821
16385TIP3    H170570   2.047   6.087  10.548  0.0371  0.4013  1.1315
16385TIP3    H270571   2.184   6.119  10.604  0.3936 -0.2170  0.6213
16386TIP3   OH270572   6.228   4.703   2.718  0.2912 -0.1174 -0.3979
16386TIP3    H170573   6.305   4.758   2.727  1.3362 -1.2587 -1.8604
16386TIP3    H270574   6.218   4.691   2.623 -1.4645 -0.3079 -0.2214
16387TIP3   OH270575   2.819   3.149  12.304 -0.4799  0.0289 -0.1422
16387TIP3    H170576   2.805   3.100  12.385  1.3813 -0.8499 -0.2961
16387TIP3    H270577   2.738   3.198  12.291 -1.2652 -0.7247  1.6120
16388TIP3   OH270578   5.889   0.103  16.700 -0.2099  0.4755  0.5573
16388TIP3    H170579   5.916   0.159  16.628  0.8623  0.5850  1.0367
16388TIP3    H270580   5.960   0.108  16.763 -0.3472 -0.9736  0.8676
16389TIP3   OH270581   2.167   1.214  15.691 -0.3270  0.2891  0.0807
16389TIP3    H170582   2.107   1.288  15.678 -1.1010 -0.3504 -0.1005
16389TIP3    H270583   2.163   1.197  15.785 -1.1295 -0.3050 -0.0479
16390TIP3   OH270584   2.681   0.351   1.381 -0.1829 -0.0639  0.3145
16390TIP3    H170585   2.663   0.273   1.433  0.8140 -0.3994  0.1847
16390TIP3    H270586   2.752   0.396   1.427 -1.8913  1.7231  1.3352
16391TIP3   OH270587   2.851   1.266  14.861  0.4557 -0.1904 -0.6999
16391TIP3    H170588   2.783   1.282  14.926 -0.0291 -0.7211 -1.0732
16391TIP3    H270589   2.843   1.339  14.800 -0.5693 -0.8684 -1.4024
16392TIP3   OH270590   6.737   5.216   0.976 -0.3601 -0.2754 -0.0300
16392TIP3    H170591   6.789   5.246   1.050  1.2379  1.1067 -1.6090
16392TIP3    H270592   6.654   5.263   0.985 -0.1695 -0.0947  0.8623
16393TIP3   OH270593   2.749   0.294   2.316  0.6519 -0.0054  0.0000
16393TIP3    H170594   2.695   0.223   2.350 -0.5312  0.5488 -0.6556
16393TIP3    H270595   2.708   0.374   2.350  0.9563  0.4324 -0.6393
16394TIP3   OH270596   2.105   5.521  14.188 -0.2009 -0.1121  0.3303
16394TIP3    H170597   2.080   5.499  14.098  0.0503  2.4781 -0.4469
16394TIP3    H270598   2.166   5.451  14.214 -0.7190 -1.2144 -1.2669
16395TIP3   OH270599   1.364   1.761  17.012 -0.3242  0.4523 -0.2164
16395TIP3    H170600   1.303   1.687  16.999  0.6945 -0.3936 -0.3280
16395TIP3    H270601   1.423   1.756  16.937  1.5633 -0.4429  1.2336
16396TIP3   OH270602   2.908   4.100   5.504  0.3950  0.0501  0.4323
16396TIP3    H170603   2.926   4.063   5.418 -0.0486 -1.1520  0.8325
16396TIP3    H270604   2.876   4.189   5.486  0.4918 -0.1195 -0.6233
16397TIP3   OH270605   6.349   6.478   5.806  0.1799  0.4213 -0.0308
16397TIP3    H170606   6.269   6.523   5.834 -1.1060 -1.4684 -0.5006
16397TIP3    H270607   6.328   6.443   5.719  1.8542  0.6214 -0.5644
16398TIP3   OH270608   5.500   4.246  12.365  0.7075  0.2077 -0.3094
16398TIP3    H170609   5.420   4.284  12.329  0.9762  1.7258  0.6241
16398TIP3    H270610   5.571   4.291  12.319  1.0341  0.6331  0.5926
16399TIP3   OH270611   5.044   6.313   1.603  0.5549  0.2358 -0.5383
16399TIP3    H170612   5.039   6.244   1.536 -2.9649  0.8312 -1.0815
16399TIP3    H270613   5.064   6.266   1.684  0.7753 -1.0945 -1.3383
16400TIP3   OH270614   4.301   2.360   3.895  0.1785  1.0409  0.1229
16400TIP3    H170615   4.260   2.297   3.836  0.8691  0.8460 -0.1628
16400TIP3    H270616   4.288   2.445   3.853 -0.6256  1.0876  0.4371
16401TIP3   OH270617   1.126   0.517   3.363  0.4160 -0.2832  0.0986
16401TIP3    H170618   1.051   0.567   3.331 -1.0051 -2.9082 -0.9601
16401TIP3    H270619   1.184   0.511   3.287  0.4383 -0.5010  0.1338
16402TIP3   OH270620   4.312   2.480   0.707 -0.3639 -0.2977  1.0571
16402TIP3    H170621   4.221   2.508   0.707 -0.8730 -1.8604  0.9896
16402TIP3    H270622   4.352   2.529   0.635 -1.2901 -0.0522  0.6982
16403TIP3   OH270623   2.784   3.320  11.060 -1.0644 -0.4216  0.5114
16403TIP3    H170624   2.784   3.386  11.130 -3.4943 -0.8397  0.9878
16403TIP3    H270625   2.784   3.236  11.107 -1.6011 -0.7182 -0.0118
16404TIP3   OH270626   0.368   0.656   0.969  0.3070 -0.5018 -0.1928
16404TIP3    H170627   0.376   0.711   0.891 -1.8940 -1.4941 -1.2111
16404TIP3    H270628   0.278   0.669   0.999  0.9301 -0.5729  1.9064
16405TIP3   OH270629   0.704   4.134   5.267  0.0219 -0.0681 -0.4222
16405TIP3    H170630   0.613   4.104   5.264 -0.1460  0.2446  0.8354
16405TIP3    H270631   0.699   4.227   5.248 -0.0847  0.1986  0.8084
16406TIP3   OH270632   1.271   3.069  13.638 -0.2612  0.3139  0.6639
16406TIP3    H170633   1.286   2.978  13.612  2.7588  1.1595 -1.0380
16406TIP3    H270634   1.296   3.072  13.730  1.0677 -0.3308  0.3491
16407TIP3   OH270635   2.049   2.869   1.981 -0.1776  0.0598 -0.5275
16407TIP3    H170636   2.052   2.964   1.978  0.2106  0.0935  0.3694
16407TIP3    H270637   1.957   2.847   1.990 -0.1093  0.5356  2.5636
16408TIP3   OH270638   6.430   2.542   1.255  0.1366 -0.1096 -0.2698
16408TIP3    H170639   6.377   2.468   1.225  0.0358 -0.3298  0.4150
16408TIP3    H270640   6.384   2.619   1.223  1.4215 -0.3453 -2.9152
16409TIP3   OH270641   4.030   1.935  12.508 -0.3690 -0.4599 -0.0227
16409TIP3    H170642   3.957   1.894  12.554 -0.7659  0.3785  0.1077
16409TIP3    H270643   4.044   2.018  12.553  0.7448 -0.6544  0.0225
16410TIP3   OH270644   0.637   2.172  13.885 -0.0929  0.0402 -0.3421
16410TIP3    H170645   0.664   2.100  13.941  0.6004 -0.4962 -1.3287
16410TIP3    H270646   0.620   2.245  13.945 -0.7797 -0.9192  0.6681
16411TIP3   OH270647   0.278   0.304  15.908  0.8030  0.5300 -0.1823
16411TIP3    H170648   0.363   0.346  15.919  0.6647  1.6737 -2.7579
16411TIP3    H270649   0.290   0.245  15.833  0.2003 -1.9697  1.5469
16412TIP3   OH270650   1.804   6.343   4.371  0.0097  0.1112 -0.0647
16412TIP3    H170651   1.844   6.358   4.456 -1.5612  1.3054  0.5170
16412TIP3    H270652   1.714   6.315   4.391 -0.7144  1.4107 -1.3083
16413TIP3   OH270653   2.699   2.840   3.718 -0.1646 -0.2369  0.1537
16413TIP3    H170654   2.709   2.751   3.684 -1.1286  0.1536 -1.2007
16413TIP3    H270655   2.766   2.891   3.673  1.2255 -0.4666  1.8358
16414TIP3   OH270656   4.697   5.148  15.523 -0.1020 -0.5314 -0.5817
16414TIP3    H170657   4.754   5.092  15.470 -2.7191 -1.9856 -2.0699
16414TIP3    H270658   4.701   5.234  15.481 -0.8494 -1.2435 -2.1931
16415TIP3   OH270659   0.583   2.267   4.093 -0.1303  0.1724 -0.1920
16415TIP3    H170660   0.640   2.343   4.088 -1.0579  0.9171  0.0678
16415TIP3    H270661   0.642   2.192   4.102  0.7823  1.0336  1.5695
16416TIP3   OH270662   5.936   1.127  16.049  0.4204  0.3763 -0.2458
16416TIP3    H170663   5.906   1.163  16.133  0.9855 -1.4205  0.7930
16416TIP3    H270664   6.019   1.084  16.070  0.0092 -1.0897 -1.4665
16417TIP3   OH270665   6.433   0.945   4.107  0.2318  0.7931  0.1606
16417TIP3    H170666   6.386   0.874   4.152 -2.1280  1.2218 -1.4155
16417TIP3    H270667   6.459   1.004   4.177  1.2652 -1.0329  1.4123
16418TIP3   OH270668   1.118   6.636  13.219  0.1984  0.3590 -0.9118
16418TIP3    H170669   1.103   6.715  13.271  0.2263 -0.0358 -0.3020
16418TIP3    H270670   1.034   6.621  13.175 -0.0066  0.3514 -0.5163
16419TIP3   OH270671   4.875   4.638   5.134  0.0157 -0.3523 -0.4323
16419TIP3    H170672   4.887   4.600   5.221 -1.4491 -1.1218 -0.5302
16419TIP3    H270673   4.798   4.594   5.099 -1.1401  1.9548 -0.9876
16420TIP3   OH270674   3.626   2.556   1.208  0.3681  0.3728 -0.2717
16420TIP3    H170675   3.633   2.578   1.116  0.3363 -1.0256 -0.6287
16420TIP3    H270676   3.700   2.599   1.250  0.2063  1.2621 -0.8921
16421TIP3   OH270677   4.370   3.404  13.661  0.3728 -0.0777  0.5732
16421TIP3    H170678   4.399   3.313  13.647  0.0800 -0.3076  1.4184
16421TIP3    H270679   4.402   3.426  13.748 -0.6817  0.1829  0.9053
16422TIP3   OH270680   3.703   5.092  14.713 -0.2206  0.0366 -0.5805
16422TIP3    H170681   3.773   5.136  14.761 -0.6332  0.2366 -0.1541
16422TIP3    H270682   3.683   5.151  14.640  0.2794 -0.1797 -0.9007
16423TIP3   OH270683   6.075   6.556   6.519  0.2463  0.6520  0.3444
16423TIP3    H170684   6.062   6.550   6.614  1.6440 -1.3682  0.4790
16423TIP3    H270685   6.169   6.571   6.509  0.4191 -0.9457 -0.7229
16424TIP3   OH270686   3.807   5.965   4.913 -0.0805  0.2201 -0.1699
16424TIP3    H170687   3.870   5.957   4.984 -0.8656  0.2549  0.5395
16424TIP3    H270688   3.837   5.903   4.847  1.2128  0.8923 -0.2414
16425TIP3   OH270689   1.501   4.027   0.279  0.1396 -0.4063 -0.0077
16425TIP3    H170690   1.420   4.013   0.328  0.3987 -2.5956 -0.1048
16425TIP3    H270691   1.471   4.053   0.191 -0.3252  2.8365  0.9865
16426TIP3   OH270692   0.911   2.806   2.281 -0.2862  0.2496 -0.1612
16426TIP3    H170693   0.988   2.861   2.269  0.5871 -0.8954  0.0943
16426TIP3    H270694   0.868   2.805   2.196  0.5856 -0.0028 -0.6053
16427TIP3   OH270695   2.528   2.153  16.289  0.6508 -0.1441 -0.6707
16427TIP3    H170696   2.553   2.234  16.244  1.3946 -0.1597 -0.2945
16427TIP3    H270697   2.446   2.127  16.247 -0.1048  1.2995 -0.1865
16428TIP3   OH270698   0.499   0.126   6.197  0.3449  0.2738  0.1487
16428TIP3    H170699   0.528   0.192   6.261  0.5843  0.3477 -0.0309
16428TIP3    H270700   0.536   0.044   6.229  0.6346  0.3442 -0.0010
16429TIP3   OH270701   3.499   5.151   4.684  0.4628  0.0305 -0.1032
16429TIP3    H170702   3.467   5.097   4.757 -0.4239  0.2051 -0.3562
16429TIP3    H270703   3.564   5.096   4.641  1.0789 -0.0434  0.8708
16430TIP3   OH270704   4.109   1.518  12.400  0.6118  0.3545 -0.0014
16430TIP3    H170705   4.015   1.501  12.392  0.2543  2.6025 -1.2443
16430TIP3    H270706   4.150   1.433  12.382 -1.1356 -0.6863  0.6138
16431TIP3   OH270707   1.043   5.952  16.582  0.6012 -0.2335  0.6118
16431TIP3    H170708   1.009   5.942  16.671 -0.5642 -1.0544  0.1012
16431TIP3    H270709   1.013   5.874  16.536  1.8643 -0.2090 -0.3064
16432TIP3   OH270710   6.204   2.264  13.217 -0.1495  0.0791 -0.2704
16432TIP3    H170711   6.119   2.257  13.174  0.8498 -1.3737 -2.1562
16432TIP3    H270712   6.260   2.307  13.152  0.8312  0.0342  0.5234
16433TIP3   OH270713   6.412   5.846  12.452 -0.3227 -0.4870  0.3386
16433TIP3    H170714   6.469   5.855  12.528 -0.7062 -0.4053  0.6218
16433TIP3    H270715   6.422   5.929  12.405 -0.6570 -0.2325  0.7055
16434TIP3   OH270716   0.183   1.075  13.642 -0.1271 -0.3171 -0.5873
16434TIP3    H170717   0.237   0.997  13.627 -1.3824 -1.4566  0.5758
16434TIP3    H270718   0.202   1.132  13.567  0.2267 -2.0751 -1.8944
16435TIP3   OH270719   6.229   5.303  12.362  0.0734  0.1480 -0.6077
16435TIP3    H170720   6.319   5.331  12.347  0.4157 -1.4839 -1.8772
16435TIP3    H270721   6.225   5.285  12.456  0.2491  2.7768 -0.0102
16436TIP3   OH270722   5.007   1.333   1.959  0.1731  0.3664 -0.6007
16436TIP3    H170723   5.065   1.328   2.036 -0.6520  0.7037  0.0593
16436TIP3    H270724   4.986   1.427   1.952 -2.5342 -0.0085  0.9182
16437TIP3   OH270725   2.610   4.732   3.679 -0.0769 -0.4729  0.2179
16437TIP3    H170726   2.576   4.645   3.656 -2.7071  0.8754 -1.4642
16437TIP3    H270727   2.546   4.793   3.643  1.6474  2.2085  1.3956
16438TIP3   OH270728   2.909   1.002  12.939  0.3755  0.4398 -0.0343
16438TIP3    H170729   2.881   1.093  12.942  0.2648  0.4439 -0.9161
16438TIP3    H270730   2.832   0.954  12.907  0.8581  0.2430 -0.9517
16439TIP3   OH270731   4.425   5.878  13.088  0.2885 -0.0641 -0.0342
16439TIP3    H170732   4.372   5.956  13.073  3.3740  2.2618  0.1435
16439TIP3    H270733   4.401   5.818  13.018 -1.7682  1.2480 -0.5343
16440TIP3   OH270734   5.765   1.342  15.348 -0.4968 -0.9938  0.2804
16440TIP3    H170735   5.819   1.421  15.339 -1.7122 -0.2423 -0.7219
16440TIP3    H270736   5.820   1.273  15.312  0.4945 -0.5727  0.9449
16441TIP3   OH270737   4.549   4.650   5.945  0.4542 -0.5681  0.0099
16441TIP3    H170738   4.487   4.685   6.009  0.9443  1.4360 -0.5586
16441TIP3    H270739   4.527   4.557   5.940 -0.1998 -0.6165  2.3856
16442TIP3   OH270740   1.931   0.359  11.809 -0.3172 -0.3493 -0.0767
16442TIP3    H170741   1.836   0.370  11.813 -0.2897  0.1107 -0.6128
16442TIP3    H270742   1.944   0.278  11.761 -0.4416 -0.5930  0.2951
16443TIP3   OH270743   3.955   2.506  13.497 -0.0164  0.1526  0.1193
16443TIP3    H170744   3.875   2.522  13.546  0.2658 -0.4320  0.7779
16443TIP3    H270745   4.002   2.590  13.500 -0.1690  0.2249  0.5283
16444TIP3   OH270746   0.227   5.130   5.181  0.2780  0.1848  0.0766
16444TIP3    H170747   0.249   5.223   5.179  2.2574 -0.2475  0.0449
16444TIP3    H270748   0.260   5.099   5.265  1.5690 -0.9180 -0.7997
16445TIP3   OH270749   6.501   6.592  13.142  0.0461 -0.0695  0.1565
16445TIP3    H170750   6.569   6.537  13.102  0.6699  1.4610 -0.9841
16445TIP3    H270751   6.496   6.669  13.085  0.1181  1.6799  2.3838
16446TIP3   OH270752   0.058   1.839  16.184 -0.0377 -0.0589 -0.4811
16446TIP3    H170753   0.043   1.799  16.270  3.7812  2.5023  1.6984
16446TIP3    H270754   0.130   1.789  16.147  0.5890  0.8741 -0.5722
16447TIP3   OH270755   0.932   4.997   4.857  0.1427  0.8321  0.1705
16447TIP3    H170756   0.956   4.936   4.787  0.5551  0.8145  0.3257
16447TIP3    H270757   0.960   4.954   4.937  0.0945  1.0619  0.3126
16448TIP3   OH270758   5.844   3.078   4.529  0.0020  0.1052 -0.3110
16448TIP3    H170759   5.789   3.000   4.539 -0.3951 -0.0608 -3.1225
16448TIP3    H270760   5.918   3.049   4.477  0.2224  1.4546 -0.7790
16449TIP3   OH270761   6.353   0.228   5.958 -0.1556 -0.3806 -0.3002
16449TIP3    H170762   6.288   0.159   5.975 -1.0416  0.7726  1.3983
16449TIP3    H270763   6.401   0.235   6.041  1.3165 -0.3422 -1.1375
16450TIP3   OH270764   1.326   0.046   3.577 -0.0376  0.8379 -0.1352
16450TIP3    H170765   1.412   0.022   3.612  0.3859  0.1215 -1.6034
16450TIP3    H270766   1.264  -0.008   3.627  0.3969  0.9535  0.5432
16451TIP3   OH270767   6.060   3.356   4.117  0.2560  0.0318 -0.0297
16451TIP3    H170768   6.146   3.353   4.158  0.0163 -0.8693  0.4340
16451TIP3    H270769   6.048   3.448   4.093  1.8587 -0.0196 -1.2348
16452TIP3   OH270770   0.956   2.880   4.734 -0.0970 -0.3536 -0.6672
16452TIP3    H170771   0.992   2.924   4.657  1.6732 -2.5976 -1.1960
16452TIP3    H270772   0.886   2.824   4.700  0.4200 -1.0480 -0.6017
16453TIP3   OH270773   3.015   0.224   1.872  0.5187 -0.2843  0.5226
16453TIP3    H170774   3.042   0.133   1.862  1.1648 -0.0190 -0.2392
16453TIP3    H270775   2.920   0.222   1.862  0.6701 -0.6783 -1.2226
16454TIP3   OH270776   2.791   6.347   2.306  0.4798 -0.1181  0.0294
16454TIP3    H170777   2.794   6.265   2.256 -1.3565 -0.6072  0.6414
16454TIP3    H270778   2.860   6.338   2.371  0.3337 -1.1718  0.0611
16455TIP3   OH270779   6.199   0.847   0.168  0.0765 -0.2267 -0.1635
16455TIP3    H170780   6.254   0.778   0.205 -1.0139 -0.7410  0.5284
16455TIP3    H270781   6.253   0.926   0.175 -0.3348 -0.1107  3.3189
16456TIP3   OH270782   3.706   4.939  12.526  0.2987 -0.5754 -0.0322
16456TIP3    H170783   3.694   4.853  12.484  1.5515 -1.1050  0.6452
16456TIP3    H270784   3.799   4.959  12.514  0.0525  0.6308 -0.0507
16457TIP3   OH270785   2.788   2.386  13.182  0.2139  0.1646 -0.4588
16457TIP3    H170786   2.839   2.430  13.114 -1.3646  0.2966 -1.6202
16457TIP3    H270787   2.726   2.453  13.212 -0.7372 -0.5923 -0.6769
16458TIP3   OH270788   6.256   6.102   1.595  0.5555  0.3582 -0.6451
16458TIP3    H170789   6.255   6.187   1.552 -0.6098  0.5099 -0.3421
16458TIP3    H270790   6.262   6.039   1.522  1.6385  0.6863 -0.8567
16459TIP3   OH270791   1.917   5.956   3.408  0.0171  0.2171  0.3679
16459TIP3    H170792   1.912   6.016   3.482  0.2371 -1.9873  2.2853
16459TIP3    H270793   1.999   5.978   3.364 -0.8300  2.5391 -0.1857
16460TIP3   OH270794   4.931   6.591  16.455  0.0927  0.4678 -0.2248
16460TIP3    H170795   4.949   6.684  16.469 -2.2120  1.0485 -0.7568
16460TIP3    H270796   4.911   6.585  16.362  2.4671 -1.0266 -0.7119
16461TIP3   OH270797   4.144   0.631  16.089  0.0022 -0.2721 -0.2011
16461TIP3    H170798   4.095   0.572  16.032 -0.8911 -0.6380  0.9033
16461TIP3    H270799   4.180   0.697  16.030 -0.3077 -1.0220 -1.2639
16462TIP3   OH270800   4.473   1.769   5.287  0.0744 -0.6099  0.5630
16462TIP3    H170801   4.427   1.821   5.353 -0.0353  0.5212 -0.3695
16462TIP3    H270802   4.426   1.787   5.206  0.8325 -1.1698 -0.0063
16463TIP3   OH270803   6.464   1.640   4.481  0.2480  0.2932  0.3900
16463TIP3    H170804   6.555   1.609   4.476 -0.1246 -0.7220 -0.4934
16463TIP3    H270805   6.421   1.577   4.538 -0.0285  0.4567  0.3600
16464TIP3   OH270806   5.141   1.687   0.683  0.1287  0.0918 -0.1318
16464TIP3    H170807   5.120   1.690   0.590  1.0692 -1.6411 -0.4544
16464TIP3    H270808   5.094   1.761   0.721 -0.4457  0.7099 -1.9403
16465TIP3   OH270809   3.316   3.861  16.915  0.4668  0.2297 -0.5048
16465TIP3    H170810   3.404   3.853  16.877  0.1679 -2.6930 -0.8394
16465TIP3    H270811   3.262   3.896  16.844  0.9089 -0.2603 -1.0930
16466TIP3   OH270812   4.011   1.445   2.706 -0.5883 -0.1944 -0.0575
16466TIP3    H170813   4.048   1.363   2.739 -1.7225 -1.0407 -0.7714
16466TIP3    H270814   3.932   1.458   2.758 -0.0303  0.8527  0.5437
16467TIP3   OH270815   5.255   5.617  11.550 -0.2616 -0.0906  0.1666
16467TIP3    H170816   5.254   5.527  11.583  1.7989 -0.3289 -0.2849
16467TIP3    H270817   5.261   5.607  11.455 -1.4776  0.5734 -0.0067
16468TIP3   OH270818   0.747   1.253   1.040  0.5844 -0.1974  0.1593
16468TIP3    H170819   0.667   1.218   1.000  0.6539 -0.4625  0.2516
16468TIP3    H270820   0.739   1.231   1.133  0.1005  1.0125  0.4289
16469TIP3   OH270821   6.764   1.166  17.020  0.2200  0.2990  0.0814
16469TIP3    H170822   6.841   1.119  17.053  0.6643  1.0029  0.0496
16469TIP3    H270823   6.713   1.186  17.098 -0.5734 -1.2435  0.0108
16470TIP3   OH270824   2.652   4.235   2.744  0.1362 -0.2248 -1.3153
16470TIP3    H170825   2.652   4.329   2.725  1.1003  0.4453  1.4932
16470TIP3    H270826   2.721   4.199   2.687  0.0599  0.8179 -2.1055
16471TIP3   OH270827   0.131   5.430  13.314 -0.0302  0.3588  0.3928
16471TIP3    H170828   0.057   5.458  13.368 -0.2287  2.0654 -0.6789
16471TIP3    H270829   0.174   5.511  13.288  1.1258 -0.5110 -0.5304
16472TIP3   OH270830   6.234   3.317  14.718 -0.4892  0.3179  0.4874
16472TIP3    H170831   6.192   3.381  14.776  0.9687  0.2873  1.6314
16472TIP3    H270832   6.287   3.370  14.659  0.1489  0.2205  0.9636
16473TIP3   OH270833   6.372   2.115   4.990 -0.6732 -0.1930  0.1578
16473TIP3    H170834   6.293   2.068   5.014 -1.3262  0.2486 -1.0574
16473TIP3    H270835   6.359   2.204   5.024 -0.1897 -0.4126  0.9484
16474TIP3   OH270836   2.272   4.927   4.108 -0.0490 -0.2354  0.0210
16474TIP3    H170837   2.265   4.845   4.059 -1.6790  0.3388 -0.7723
16474TIP3    H270838   2.306   4.990   4.045 -1.2446  0.2814 -0.1295
16475TIP3   OH270839   1.324   0.153   0.086  0.2319  0.0272  0.0690
16475TIP3    H170840   1.392   0.219   0.074  0.3906 -0.1516 -0.0217
16475TIP3    H270841   1.367   0.082   0.134  0.0237  0.0509  0.2962
16476TIP3   OH270842   4.632   0.113  12.229 -0.8882 -0.3238  0.0073
16476TIP3    H170843   4.698   0.056  12.268  0.3847  0.0084 -1.5827
16476TIP3    H270844   4.607   0.173  12.300  0.0426 -0.8510  0.7993
16477TIP3   OH270845   3.469   1.471   3.157  0.3427  0.1404 -0.0084
16477TIP3    H170846   3.522   1.524   3.217  1.3651 -0.4272 -0.3687
16477TIP3    H270847   3.508   1.383   3.163 -0.9062 -0.4202  0.1003
16478TIP3   OH270848   4.143   6.747  11.572 -0.3346  0.4483 -0.8836
16478TIP3    H170849   4.091   6.681  11.617 -0.1846  0.8662 -0.0671
16478TIP3    H270850   4.138   6.724  11.480 -0.7780 -0.3467 -0.6655
16479TIP3   OH270851   0.672   5.289  11.235 -0.0365 -0.2379 -0.2477
16479TIP3    H170852   0.732   5.358  11.210  0.0929 -0.5887 -0.9411
16479TIP3    H270853   0.633   5.319  11.317  1.5482 -0.3001  0.5629
16480TIP3   OH270854   0.980   4.542   1.473  0.2709  0.3959  0.1751
16480TIP3    H170855   0.990   4.448   1.457 -1.4056  0.3399 -0.8203
16480TIP3    H270856   1.040   4.584   1.412  0.4674 -0.0172  0.0836
16481TIP3   OH270857   1.037   1.371  13.673  0.3173  0.4078  0.2432
16481TIP3    H170858   1.124   1.404  13.653  0.7918 -2.0641 -2.2925
16481TIP3    H270859   0.977   1.434  13.632  1.0261  0.5178 -0.6424
16482TIP3   OH270860   4.824   1.288   2.798 -0.3012  0.2600 -0.2029
16482TIP3    H170861   4.902   1.244   2.765 -0.2427  0.1741  0.0508
16482TIP3    H270862   4.758   1.273   2.730 -0.6582 -1.3217  0.4515
16483TIP3   OH270863   2.003   0.816  14.875 -0.1918  0.0581 -0.3346
16483TIP3    H170864   2.077   0.875  14.862 -0.3297  0.6095  1.1968
16483TIP3    H270865   2.036   0.747  14.933 -0.5129 -0.4335 -0.7257
16484TIP3   OH270866   1.540   2.123  12.941  0.3787  0.2968 -0.2331
16484TIP3    H170867   1.574   2.050  12.994 -1.9157 -0.9134 -0.2896
16484TIP3    H270868   1.510   2.187  13.005  2.7574  1.4607 -0.1824
16485TIP3   OH270869   4.399   2.945  11.811 -0.0369  0.3774  0.2109
16485TIP3    H170870   4.391   2.937  11.716  0.2597  0.8998  0.1371
16485TIP3    H270871   4.312   2.974  11.840 -0.1929 -0.0026  0.1266
16486TIP3   OH270872   0.368   5.815  16.072 -0.0015 -0.1055 -0.3672
16486TIP3    H170873   0.459   5.792  16.055 -0.1835 -1.5116  0.3535
16486TIP3    H270874   0.322   5.731  16.073 -1.1785  0.5155  0.0050
16487TIP3   OH270875   1.026   0.485  16.831 -0.5761  0.4936 -0.4758
16487TIP3    H170876   0.957   0.546  16.859 -1.7280 -1.3124  0.8515
16487TIP3    H270877   1.016   0.410  16.890  2.8757  0.3561  0.1164
16488TIP3   OH270878   0.685   2.784  14.300 -0.2390  0.1895  0.4088
16488TIP3    H170879   0.745   2.734  14.355  2.1549  2.4828  0.0722
16488TIP3    H270880   0.659   2.859  14.354 -4.9078 -1.8096  1.4532
16489TIP3   OH270881   5.421   6.228   5.790  0.7094 -0.3011 -0.4356
16489TIP3    H170882   5.367   6.298   5.827 -1.1030 -2.1331  0.5871
16489TIP3    H270883   5.402   6.152   5.845  3.6314 -1.3175 -0.6463
16490TIP3   OH270884   6.170   2.119   5.960  0.5280  0.4829  0.5560
16490TIP3    H170885   6.178   2.141   6.053  0.3225  0.2429  0.6308
16490TIP3    H270886   6.076   2.122   5.942  0.5149 -0.0790  0.5079
16491TIP3   OH270887   1.132   3.429   3.641 -0.4714 -0.2872  0.4679
16491TIP3    H170888   1.193   3.357   3.624  0.7486  1.0082 -0.8490
16491TIP3    H270889   1.180   3.488   3.698 -1.5260 -0.5421  1.6660
16492TIP3   OH270890   1.346   5.620  16.818  0.4522  0.1086 -0.2792
16492TIP3    H170891   1.272   5.561  16.830 -0.1055  1.1534  1.9294
16492TIP3    H270892   1.423   5.564  16.826 -0.0171 -0.9126 -2.1777
16493TIP3   OH270893   4.671   2.295  15.609  0.1224 -0.8815  0.0353
16493TIP3    H170894   4.600   2.312  15.547  0.0069  0.3525  0.4744
16493TIP3    H270895   4.667   2.369  15.671  2.1453 -0.4695 -0.2597
16494TIP3   OH270896   4.340   4.965  12.783 -0.4055  0.5494  0.4075
16494TIP3    H170897   4.401   4.899  12.751  1.2752  1.6512  1.1780
16494TIP3    H270898   4.320   5.020  12.707  0.6135  0.9462  0.4171
16495TIP3   OH270899   1.556   5.625  11.245  0.0687  0.1757 -0.5534
16495TIP3    H170900   1.497   5.596  11.176  0.3755 -0.6287 -0.4919
16495TIP3    H270901   1.565   5.548  11.302 -1.3629  1.2388  1.2361
16496TIP3   OH270902   1.353   0.605  11.387 -0.0305 -0.0046  0.1000
16496TIP3    H170903   1.351   0.662  11.310 -0.0940 -0.8614 -0.5555
16496TIP3    H270904   1.279   0.545  11.374  1.2040 -1.5259 -0.2709
16497TIP3   OH270905   4.237   4.854   2.898 -0.6712  0.1628  0.1914
16497TIP3    H170906   4.176   4.851   2.971 -1.2685 -2.2158 -0.2945
16497TIP3    H270907   4.322   4.835   2.937 -0.8306 -0.1135  0.4111
16498TIP3   OH270908   1.342   1.823   2.120 -0.2256 -0.8651 -0.0483
16498TIP3    H170909   1.370   1.914   2.108  1.4223 -1.5174 -1.4681
16498TIP3    H270910   1.396   1.791   2.192  0.3918 -1.1971 -0.6569
16499TIP3   OH270911   2.597   0.241  10.849 -0.0772 -0.1435  0.0003
16499TIP3    H170912   2.568   0.331  10.834  0.0649 -0.0597  0.2186
16499TIP3    H270913   2.559   0.191  10.777 -1.3371 -0.1623  0.6393
16500TIP3   OH270914   1.348   0.014   3.924 -0.4416  0.5231  0.2772
16500TIP3    H170915   1.363  -0.064   3.871 -0.4765  1.8223 -1.7647
16500TIP3    H270916   1.410   0.006   3.996  0.2007 -0.9357 -0.3867
16501TIP3   OH270917   4.006   4.617   1.785  0.7433  0.5177 -0.2559
16501TIP3    H170918   4.067   4.545   1.768  1.6350  1.1770  0.0342
16501TIP3    H270919   4.021   4.678   1.712 -1.5117 -0.5127 -1.6692
16502TIP3   OH270920   1.812   4.143   2.349 -0.3911  0.4180 -0.3613
16502TIP3    H170921   1.842   4.105   2.432 -4.6384 -0.2054  1.1736
16502TIP3    H270922   1.856   4.092   2.281  1.5965 -0.5058  1.5010
16503TIP3   OH270923   1.379   6.109  16.922  0.0021  0.6283 -0.0627
16503TIP3    H170924   1.403   6.104  16.830 -0.2322  0.0534 -0.0961
16503TIP3    H270925   1.316   6.038  16.935  1.9494 -1.0156  1.1226
16504TIP3   OH270926   5.636   5.471   6.349  0.6479  0.2880  0.0999
16504TIP3    H170927   5.590   5.419   6.414 -0.6035 -0.8596 -1.6155
16504TIP3    H270928   5.657   5.409   6.279  0.1947  1.8320 -1.4772
16505TIP3   OH270929   5.233   2.861   2.052 -0.1032 -0.2334 -0.9770
16505TIP3    H170930   5.144   2.861   2.087 -0.0366  0.4296 -0.7952
16505TIP3    H270931   5.238   2.781   1.999  0.3486 -2.2952  1.8894
16506TIP3   OH270932   3.265   1.719   3.130  0.1144 -0.0806  0.5624
16506TIP3    H170933   3.189   1.667   3.103  1.5212 -0.9552 -2.0722
16506TIP3    H270934   3.340   1.663   3.111  1.5177  1.3126  1.7448
16507TIP3   OH270935   1.609   4.192  15.645  0.2805 -0.6882 -0.3286
16507TIP3    H170936   1.550   4.255  15.685  2.3367 -0.7389  3.1905
16507TIP3    H270937   1.640   4.236  15.565 -3.0424  0.0120 -1.3576
16508TIP3   OH270938   5.554   5.709   3.573 -0.3706  0.0411 -0.2921
16508TIP3    H170939   5.636   5.748   3.541 -0.2938  0.7372  0.6935
16508TIP3    H270940   5.506   5.783   3.612 -0.9900 -0.5530  0.0964
16509TIP3   OH270941   5.466   0.122  13.718  0.1260  0.0675 -0.1829
16509TIP3    H170942   5.539   0.060  13.720 -1.0079 -1.3840 -1.3592
16509TIP3    H270943   5.418   0.104  13.799  0.3231  0.0846 -0.0599
16510TIP3   OH270944   5.511   1.452  15.655 -0.0470 -0.1984  0.0188
16510TIP3    H170945   5.456   1.384  15.694 -1.3277  0.7721 -0.0384
16510TIP3    H270946   5.545   1.413  15.574 -0.2761 -0.9703  0.2907
16511TIP3   OH270947   3.716   2.619  14.922 -0.9082 -0.2275  0.4454
16511TIP3    H170948   3.789   2.564  14.949 -0.4787 -0.6621 -1.4640
16511TIP3    H270949   3.641   2.586  14.971 -0.5916 -2.3471 -0.4079
16512TIP3   OH270950   0.616   2.790  13.598 -0.0894 -0.4110 -0.2532
16512TIP3    H170951   0.688   2.742  13.638  0.2320 -0.1846 -0.5465
16512TIP3    H270952   0.603   2.747  13.513 -0.7288 -0.8547  0.0570
16513TIP3   OH270953   0.303   1.152   3.774 -0.2674 -0.0359  0.1909
16513TIP3    H170954   0.249   1.220   3.814  0.1159 -0.0059  0.6757
16513TIP3    H270955   0.373   1.137   3.838 -0.6167 -1.2252  0.3164
16514TIP3   OH270956   5.740   6.252   4.268 -0.0557  0.5580 -0.1830
16514TIP3    H170957   5.822   6.287   4.235  0.5263  1.3936  1.9312
16514TIP3    H270958   5.701   6.325   4.317 -0.4487 -0.7247  1.5377
16515TIP3   OH270959   2.824   3.604   6.150 -0.2025 -0.2679 -0.6092
16515TIP3    H170960   2.882   3.663   6.198 -0.3255  0.5305 -1.4187
16515TIP3    H270961   2.880   3.529   6.127  0.6666  0.6915 -1.7737
16516TIP3   OH270962   4.088   2.082  16.820 -0.2254  0.7465 -0.5227
16516TIP3    H170963   4.034   2.075  16.742 -0.8883  2.0874 -0.2245
16516TIP3    H270964   4.157   2.144  16.796  0.1748  0.3686 -0.3602
16517TIP3   OH270965   6.575   4.394   1.807 -0.0132  0.3703  0.2762
16517TIP3    H170966   6.501   4.400   1.868 -0.3739  0.9909 -0.2178
16517TIP3    H270967   6.604   4.484   1.796  0.2084  0.2305 -0.2883
16518TIP3   OH270968   1.389   4.700   5.838  0.1509  0.5451 -1.0890
16518TIP3    H170969   1.300   4.682   5.869  0.1878 -0.3607 -1.4762
16518TIP3    H270970   1.421   4.770   5.896 -1.1112  1.4967 -1.5080
16519TIP3   OH270971   5.468   1.430   1.379 -0.2733  0.0886  0.4673
16519TIP3    H170972   5.521   1.443   1.300 -1.9403  3.2138 -0.3196
16519TIP3    H270973   5.522   1.466   1.450 -0.9880  2.8293 -0.2614
16520TIP3   OH270974   5.772   0.096   0.454 -0.3114 -0.1791 -0.3962
16520TIP3    H170975   5.817   0.179   0.436 -1.4908  0.2179 -1.5985
16520TIP3    H270976   5.826   0.029   0.411 -0.7199  0.2695 -1.6387
16521TIP3   OH270977   3.551   0.996   3.166  0.5741 -0.6171 -0.2618
16521TIP3    H170978   3.640   1.025   3.185 -0.4311  1.8422  1.2171
16521TIP3    H270979   3.513   0.976   3.252 -0.2290 -1.9721 -0.8946
16522TIP3   OH270980   6.149   0.805   0.971  0.4820 -0.6252  0.0495
16522TIP3    H170981   6.198   0.874   1.016  3.0710 -2.0535 -0.3465
16522TIP3    H270982   6.139   0.837   0.882  1.2548 -0.5437 -0.0149
16523TIP3   OH270983   4.455   1.579  15.489 -0.0336 -0.4628  0.2217
16523TIP3    H170984   4.466   1.674  15.492 -0.8237 -0.3210 -0.9361
16523TIP3    H270985   4.440   1.555  15.581  0.1453  0.5208  0.5295
16524TIP3   OH270986   3.895   0.839  16.417  0.2490  0.0398 -0.1902
16524TIP3    H170987   3.854   0.772  16.362  0.0924  0.2565 -0.3463
16524TIP3    H270988   3.871   0.922  16.373 -0.4916  0.2609  0.6037
16525TIP3   OH270989   1.441   1.506  14.706 -0.7215  0.3103 -0.7073
16525TIP3    H170990   1.479   1.565  14.641 -0.2042  1.1330  0.3015
16525TIP3    H270991   1.472   1.540  14.790 -0.6112 -1.2712 -0.0787
16526TIP3   OH270992   5.890   1.650   2.499 -0.1179  0.2552  0.5546
16526TIP3    H170993   5.947   1.581   2.466 -1.3570  0.4674 -2.3542
16526TIP3    H270994   5.810   1.642   2.447 -0.0131  4.3384 -0.5740
16527TIP3   OH270995   5.402   2.262  17.002 -0.0504  0.6912  0.3351
16527TIP3    H170996   5.412   2.186  17.061  0.2251 -1.5204 -2.3438
16527TIP3    H270997   5.490   2.298  16.994  0.3913 -0.5161 -0.5306
16528TIP3   OH270998   2.246   2.242  12.922  0.4445  0.4355  0.7312
16528TIP3    H170999   2.259   2.336  12.913  2.0909  0.0748 -1.6573
16528TIP3    H271000   2.331   2.210  12.955  0.8885 -0.4601 -1.1607
16529TIP3   OH271001   1.050   3.473  15.284  0.6456 -0.0839 -0.3785
16529TIP3    H171002   1.019   3.522  15.360  2.5635  1.4237 -0.4971
16529TIP3    H271003   1.105   3.403  15.321  0.7885  0.0537 -0.3277
16530TIP3   OH271004   3.418   1.693   1.355 -0.2220 -0.3102 -0.9578
16530TIP3    H171005   3.341   1.636   1.362  1.1261 -2.0260  1.7513
16530TIP3    H271006   3.468   1.675   1.434  1.7248  2.6706 -1.3412
16531TIP3   OH271007   0.768   0.682  13.427  0.3592 -0.4877 -0.4537
16531TIP3    H171008   0.853   0.639  13.441  0.5275 -0.2548 -0.7584
16531TIP3    H271009   0.779   0.770  13.464  0.3507 -0.3513 -0.7771
16532TIP3   OH271010   6.354   2.237  16.374 -0.2827  0.1549 -0.7266
16532TIP3    H171011   6.338   2.330  16.359 -0.4904  0.4944  1.2940
16532TIP3    H271012   6.269   2.195  16.357 -1.0335  0.7674  1.2431
16533TIP3   OH271013   1.710   4.136   3.595  0.6837  0.0479 -0.1144
16533TIP3    H171014   1.755   4.187   3.662  0.7533 -0.1811  0.0115
16533TIP3    H271015   1.767   4.141   3.519 -0.0107  1.4080 -0.5794
16534TIP3   OH271016   0.065   3.464   0.035  0.0781 -0.2752 -0.1809
16534TIP3    H171017  -0.023   3.481   0.000 -0.0170 -0.9702 -0.3024
16534TIP3    H271018   0.114   3.430  -0.040  0.2009 -0.7011  0.0863
16535TIP3   OH271019   5.219   4.882  12.990  0.3841 -0.2623 -0.1400
16535TIP3    H171020   5.272   4.877  12.910  1.4515 -2.3640  0.6040
16535TIP3    H271021   5.132   4.851  12.963  0.2147  0.7680 -0.8377
16536TIP3   OH271022   1.335   4.757   2.721  0.2590 -0.1046 -0.2272
16536TIP3    H171023   1.392   4.830   2.699  2.3712 -1.6058 -0.0760
16536TIP3    H271024   1.391   4.680   2.713 -1.3773 -1.5561  1.3714
16537TIP3   OH271025   4.897   5.434   2.607  0.5350 -0.0071  0.1530
16537TIP3    H171026   4.981   5.409   2.570  0.3886  0.9264 -0.8506
16537TIP3    H271027   4.919   5.498   2.675  0.5396  2.8358 -2.3197
16538TIP3   OH271028   3.428   0.560   2.488 -0.3996  0.1838  0.3543
16538TIP3    H171029   3.478   0.611   2.424  1.1051 -1.3770  0.2034
16538TIP3    H271030   3.487   0.552   2.563 -1.4467  0.4396  1.2408
16539TIP3   OH271031   3.952   6.349  11.377 -0.0242  0.5710  0.6896
16539TIP3    H171032   3.879   6.305  11.332 -0.6318 -0.6149  2.7403
16539TIP3    H271033   3.913   6.428  11.413  0.4181  1.4136 -0.5865
16540TIP3   OH271034   0.580   0.572  12.670  0.5930 -0.0765  0.0570
16540TIP3    H171035   0.537   0.602  12.750  0.4303  0.5602 -0.2600
16540TIP3    H271036   0.661   0.624  12.665  0.1652  0.5528 -0.6505
16541TIP3   OH271037   1.389   1.887   5.142 -0.4924 -0.1272 -0.2438
16541TIP3    H171038   1.444   1.923   5.211 -1.2853  2.2661 -0.7687
16541TIP3    H271039   1.439   1.902   5.061 -0.4159 -1.1471 -0.4037
16542TIP3   OH271040   3.034   4.425  16.130  0.3887 -0.4554 -0.0430
16542TIP3    H171041   2.943   4.451  16.146  0.6640 -0.1155  1.0269
16542TIP3    H271042   3.033   4.329  16.133  0.1234 -0.4440  0.3193
16543TIP3   OH271043   2.380   2.821   4.838 -0.0195  0.1372 -0.3158
16543TIP3    H171044   2.288   2.838   4.817 -0.1197 -0.6415 -0.5559
16543TIP3    H271045   2.424   2.905   4.826 -0.4067  0.1500 -1.8417
16544TIP3   OH271046   0.069   4.050  15.646  0.3253  0.0773 -0.5099
16544TIP3    H171047   0.006   4.046  15.574  1.0484 -1.3059 -1.1018
16544TIP3    H271048   0.023   4.011  15.720 -0.3621  1.3527 -0.2236
16545TIP3   OH271049   5.379   1.726   3.977  0.2768  0.2148 -0.1181
16545TIP3    H171050   5.284   1.721   3.976  0.1704  1.5564  0.4174
16545TIP3    H271051   5.398   1.790   4.046  1.5447  0.3416 -0.5643
16546TIP3   OH271052   5.023   1.265   2.444  0.0680  0.4046 -0.8269
16546TIP3    H171053   4.970   1.195   2.485  1.1329  0.4225  0.6781
16546TIP3    H271054   4.963   1.307   2.382 -0.7786 -1.4679 -1.3568
16547TIP3   OH271055   1.567   0.595  16.369 -0.2340  0.4274  0.0640
16547TIP3    H171056   1.534   0.678  16.403 -0.9833 -0.0031  0.4147
16547TIP3    H271057   1.503   0.569  16.303  0.0291  0.1546 -0.0846
16548TIP3   OH271058   3.921   3.481  14.179 -0.8147 -0.0883  0.2358
16548TIP3    H171059   3.852   3.534  14.219 -2.1200 -1.1511 -0.5414
16548TIP3    H271060   3.876   3.404  14.145  0.8577 -1.1491  0.2866
16549TIP3   OH271061   0.465   6.540  11.135  0.0952 -0.4220 -0.1181
16549TIP3    H171062   0.469   6.599  11.059 -1.7384 -1.5676 -1.1782
16549TIP3    H271063   0.524   6.580  11.199 -0.5794  2.2390 -1.0081
16550TIP3   OH271064   2.511   6.044   6.380  0.7987 -0.0006  0.1781
16550TIP3    H171065   2.523   6.039   6.285  0.4666  0.4496  0.1100
16550TIP3    H271066   2.578   5.986   6.416  0.8745 -0.2348 -0.3345
16551TIP3   OH271067   2.246   5.300   5.488  0.1386 -0.0091  0.7498
16551TIP3    H171068   2.248   5.271   5.396 -1.9543 -1.5850  1.0930
16551TIP3    H271069   2.188   5.236   5.531 -1.1529  2.2368  2.5883
16552TIP3   OH271070   3.565   1.946  11.107  0.0351  0.2930  0.3420
16552TIP3    H171071   3.554   1.859  11.070  0.1216  0.1437  0.6605
16552TIP3    H271072   3.598   1.999  11.035  0.0131  0.0546  0.1549
16553TIP3   OH271073   3.648   2.745   5.087  0.4263 -0.3540 -0.3992
16553TIP3    H171074   3.595   2.729   5.008 -0.5683  0.0494  0.1703
16553TIP3    H271075   3.645   2.661   5.134  2.1227 -1.0214 -1.3969
16554TIP3   OH271076   5.894   5.632  16.307 -0.2131 -0.3073  0.0414
16554TIP3    H171077   5.843   5.565  16.353  2.0621 -1.8511  0.4693
16554TIP3    H271078   5.939   5.584  16.237  1.0449  0.8671  0.0129
16555TIP3   OH271079   1.976   0.112  14.299 -0.3707  0.4386  0.1374
16555TIP3    H171080   1.912   0.114  14.228 -1.3308 -0.3124  0.9467
16555TIP3    H271081   2.031   0.189  14.284 -0.3830  0.1512 -1.5530
16556TIP3   OH271082   4.673   4.350  17.161 -0.6725  0.5695  0.0074
16556TIP3    H171083   4.743   4.405  17.196 -0.7726  1.4217 -1.0787
16556TIP3    H271084   4.614   4.412  17.118 -0.4222 -0.4419 -1.8834
16557TIP3   OH271085   3.230   4.317  14.770  0.3778  0.0943 -0.1918
16557TIP3    H171086   3.274   4.303  14.854 -0.8287  1.1116  0.6665
16557TIP3    H271087   3.263   4.401  14.739 -0.8838  0.8812  0.4733
16558TIP3   OH271088   2.968   3.403   4.491  0.1689  0.3116 -0.4778
16558TIP3    H171089   2.918   3.376   4.567 -2.2019 -0.2103 -2.1077
16558TIP3    H271090   2.998   3.492   4.511  0.4066 -0.1513  1.3695
16559TIP3   OH271091   0.585   4.890   3.029 -0.3569  0.9548  0.1791
16559TIP3    H171092   0.672   4.855   3.050  0.0619  0.2948 -2.3272
16559TIP3    H271093   0.525   4.842   3.086  0.7339 -0.1226  0.4538
16560TIP3   OH271094   2.488   3.240   0.896 -0.5534  0.2612  0.2238
16560TIP3    H171095   2.515   3.228   0.987  1.1519  0.7562 -0.1883
16560TIP3    H271096   2.567   3.223   0.845 -2.0617 -2.5704 -1.3801
16561TIP3   OH271097   5.133   2.143   1.736  0.6125  0.3747 -0.3817
16561TIP3    H171098   5.151   2.066   1.790  0.0848  0.2418 -0.3906
16561TIP3    H271099   5.135   2.217   1.797 -0.3844  0.1792 -0.1067
16562TIP3   OH271100   0.076   6.528  12.250 -0.5027 -0.1699  0.0441
16562TIP3    H171101   0.119   6.607  12.283  1.0154 -0.9642  0.0524
16562TIP3    H271102   0.013   6.504  12.319 -0.0547  0.3050  0.6290
16563TIP3   OH271103   2.152   1.017   1.808 -0.1809  0.0337  0.2539
16563TIP3    H171104   2.206   1.093   1.830  1.9280 -1.4185  0.4062
16563TIP3    H271105   2.126   1.032   1.717 -1.1619  1.6627  0.7567
16564TIP3   OH271106   2.437   4.966   1.260 -0.0059 -0.2984  0.1820
16564TIP3    H171107   2.477   4.910   1.194 -1.2182 -0.8509 -0.1135
16564TIP3    H271108   2.447   5.055   1.227  2.0884 -0.2728  0.7329
16565TIP3   OH271109   1.368   4.041   6.163  0.0787 -0.5016  0.3906
16565TIP3    H171110   1.408   3.981   6.226 -1.5883 -0.2451  1.7792
16565TIP3    H271111   1.442   4.086   6.122  1.2357 -0.2676  2.5839
16566TIP3   OH271112   1.606   2.556   3.632  0.0640 -0.1362 -0.4359
16566TIP3    H171113   1.552   2.519   3.562 -0.6237 -0.6639  0.3563
16566TIP3    H271114   1.611   2.650   3.611 -0.8469 -0.1451 -0.7345
16567TIP3   OH271115   4.851   5.978   6.380  0.3768 -0.3315  0.8307
16567TIP3    H171116   4.768   6.007   6.418  0.1113 -0.7651  0.5851
16567TIP3    H271117   4.917   6.000   6.446  0.2147  1.0240  0.5710
16568TIP3   OH271118   5.838   0.069  14.310  0.1579 -0.2002  0.1764
16568TIP3    H171119   5.821  -0.021  14.337  0.1289 -0.5121 -0.8349
16568TIP3    H271120   5.821   0.121  14.389 -0.8225 -0.9745  0.5070
16569TIP3   OH271121   5.110   2.337  10.848 -0.2546 -0.2387  0.4219
16569TIP3    H171122   5.131   2.255  10.804 -0.4393 -1.1909  2.0111
16569TIP3    H271123   5.188   2.390  10.839  0.6414 -1.3900  1.0634
16570TIP3   OH271124   2.009   1.995  14.514 -0.0831  0.6906  0.0663
16570TIP3    H171125   2.043   1.978  14.602  0.0202  0.5250 -0.0043
16570TIP3    H271126   2.083   1.977  14.456 -0.5267 -0.5511 -0.1526
16571TIP3   OH271127   6.547   0.119  16.502  0.0513  0.0006 -0.4417
16571TIP3    H171128   6.578   0.174  16.575  0.2672 -0.6742 -0.0139
16571TIP3    H271129   6.570   0.169  16.423  0.0079  0.6425 -0.0595
16572TIP3   OH271130   5.385   1.990  10.553  0.0401  0.1802  0.0206
16572TIP3    H171131   5.394   2.056  10.485  1.1210 -0.5252 -0.5444
16572TIP3    H271132   5.464   1.937  10.547 -0.1278 -0.2930  1.4110
16573TIP3   OH271133   4.596   6.190   4.766  0.2145  0.4539  0.5169
16573TIP3    H171134   4.612   6.140   4.847  0.1345 -0.8031 -0.2139
16573TIP3    H271135   4.521   6.145   4.726  1.0080  0.2980 -0.8463
16574TIP3   OH271136   2.669   0.819   0.563 -0.1188  0.4951  0.8698
16574TIP3    H171137   2.704   0.861   0.484 -0.1723 -0.2726  0.4290
16574TIP3    H271138   2.577   0.804   0.544  0.0724 -0.5563  0.6808
16575TIP3   OH271139   0.555   4.726  12.808 -0.1946 -0.0983  0.2281
16575TIP3    H171140   0.459   4.728  12.799 -0.1027 -1.4751 -1.4947
16575TIP3    H271141   0.586   4.785  12.739  0.2019  1.5145  1.7287
16576TIP3   OH271142   4.065   0.129   2.800 -0.1639  0.0021  0.3324
16576TIP3    H171143   4.130   0.174   2.854 -0.3520  0.9933 -0.2317
16576TIP3    H271144   4.046   0.191   2.729 -0.6601 -0.8567 -0.3109
16577TIP3   OH271145   0.518   2.475  13.881 -0.0922 -0.0090  0.0373
16577TIP3    H171146   0.470   2.417  13.939 -0.6661 -0.0740 -0.4866
16577TIP3    H271147   0.450   2.516  13.826  0.4907 -0.5759 -1.1410
16578TIP3   OH271148   1.858   1.681  12.261  0.2398  0.1986 -0.0829
16578TIP3    H171149   1.769   1.715  12.249  0.2869  0.9557  1.4340
16578TIP3    H271150   1.884   1.714  12.347  1.7813 -0.4895 -0.2632
16579TIP3   OH271151   5.822   6.511   3.106  0.1158  0.2136  0.0594
16579TIP3    H171152   5.838   6.494   3.013  0.6871 -0.6431  0.3005
16579TIP3    H271153   5.898   6.474   3.150  0.5966  1.9251  0.7768
16580TIP3   OH271154   2.392   3.872   5.152 -0.9532  0.1601 -0.0946
16580TIP3    H171155   2.466   3.927   5.177 -0.5202 -0.3460 -0.2427
16580TIP3    H271156   2.414   3.840   5.065 -1.1897 -0.2569 -0.0047
16581TIP3   OH271157   0.644   1.101  15.328  1.0714 -0.1543 -0.2053
16581TIP3    H171158   0.688   1.179  15.362 -0.2501  0.6594 -0.2965
16581TIP3    H271159   0.599   1.131  15.249 -1.8069 -0.2462  1.2630
16582TIP3   OH271160   4.365   5.488  13.380  0.1966 -0.4778 -0.1753
16582TIP3    H171161   4.276   5.463  13.406 -1.0478  2.8514 -0.7121
16582TIP3    H271162   4.368   5.470  13.286  0.2154 -0.8914 -0.0974
16583TIP3   OH271163   3.776   1.308  13.434 -0.6051 -0.3818  0.0828
16583TIP3    H171164   3.871   1.303  13.422 -0.6142  1.0984 -0.9013
16583TIP3    H271165   3.741   1.256  13.361 -0.5466  1.0891 -1.0375
16584TIP3   OH271166   0.766   6.437   5.126 -0.5101  0.2860  0.4100
16584TIP3    H171167   0.680   6.453   5.088 -0.2812 -1.3311 -0.9459
16584TIP3    H271168   0.752   6.442   5.221 -1.7134  1.6747  0.1944
16585TIP3   OH271169   1.037   3.153  15.300  0.0456  0.4717 -0.2408
16585TIP3    H171170   1.124   3.191  15.313  0.3693 -0.4746  0.4981
16585TIP3    H271171   1.045   3.062  15.330 -1.4301  0.6255  0.7551
16586TIP3   OH271172   1.107   4.538   0.759  0.0007 -0.0191 -0.1825
16586TIP3    H171173   1.166   4.610   0.782  2.2493 -1.9441  0.5263
16586TIP3    H271174   1.023   4.562   0.798  1.2932  1.1943  2.0747
16587TIP3   OH271175   0.042   3.769   1.303  0.3042  0.2258 -0.5625
16587TIP3    H171176   0.023   3.847   1.357 -2.3968 -1.7314  1.5703
16587TIP3    H271177  -0.032   3.763   1.243  0.9404 -0.2649 -1.3096
16588TIP3   OH271178   1.519   5.139  11.089 -0.1130  0.4941 -0.1840
16588TIP3    H171179   1.545   5.222  11.048 -2.2255  0.7102 -1.2344
16588TIP3    H271180   1.424   5.144  11.094 -0.2819 -1.8344 -0.1756
16589TIP3   OH271181   2.453   6.032  15.724  0.0723  0.0352 -0.6140
16589TIP3    H171182   2.376   5.990  15.764 -0.5402  0.3270 -1.4512
16589TIP3    H271183   2.522   6.021  15.789 -0.0402 -2.3093 -0.7854
16590TIP3   OH271184   5.943   0.535   5.227 -0.8250 -0.1724 -0.2606
16590TIP3    H171185   5.944   0.569   5.316  0.8789  0.3887 -0.4559
16590TIP3    H271186   5.979   0.446   5.235  1.5848  0.6862 -0.6133
16591TIP3   OH271187   1.692   0.086  11.164  0.4403  0.4986 -0.3510
16591TIP3    H171188   1.765   0.096  11.103  0.2047  2.2908 -0.3826
16591TIP3    H271189   1.724   0.025  11.230  0.8064 -1.2818 -2.0753
16592TIP3   OH271190   0.195   6.745  15.788  0.2279  0.4294  0.2268
16592TIP3    H171191   0.289   6.753  15.805  0.3223  1.5969 -0.7103
16592TIP3    H271192   0.189   6.720  15.696 -0.3823  1.1834  0.0505
16593TIP3   OH271193   2.783   3.326  14.395  0.1605  0.2330 -0.0456
16593TIP3    H171194   2.766   3.420  14.392  1.0496  0.4024 -0.0856
16593TIP3    H271195   2.878   3.319  14.389  0.0360 -0.7204 -1.0378
16594TIP3   OH271196   1.823   0.578   1.369 -0.5505  0.2564  0.0306
16594TIP3    H171197   1.865   0.579   1.454  0.0504  0.0580 -0.2567
16594TIP3    H271198   1.768   0.657   1.367  0.2899  0.8515  0.1699
16595TIP3   OH271199   1.578   5.382  12.755  0.4282 -0.2697 -0.1596
16595TIP3    H171200   1.529   5.341  12.683 -1.3589  1.4029  0.0191
16595TIP3    H271201   1.521   5.373  12.831  1.9168 -1.2374  0.8963
16596TIP3   OH271202   5.355   2.381   2.319  0.0219  0.3804  0.3424
16596TIP3    H171203   5.368   2.356   2.228 -0.7149  0.6223  0.1642
16596TIP3    H271204   5.380   2.303   2.369 -1.0987 -0.3305 -0.1509
16597TIP3   OH271205   3.630   0.509   0.965 -0.5365 -0.3576  0.3487
16597TIP3    H171206   3.709   0.529   1.015 -1.1689 -0.7930  1.5972
16597TIP3    H271207   3.579   0.453   1.024  0.1968 -3.8971 -2.0717
16598TIP3   OH271208   1.034   6.229  13.561  0.0175 -0.5781 -0.2711
16598TIP3    H171209   1.001   6.158  13.505 -0.7370 -0.1370 -0.4127
16598TIP3    H271210   1.068   6.294  13.500  0.1790 -0.5713 -0.1726
16599TIP3   OH271211   1.875   2.512   3.500 -0.2114  0.1415  0.0343
16599TIP3    H171212   1.892   2.457   3.576  2.1119  0.8096  0.0756
16599TIP3    H271213   1.839   2.452   3.435  0.4731 -1.0392  0.7034
16600TIP3   OH271214   2.672   6.246   0.424  0.5485  0.0698  0.1674
16600TIP3    H171215   2.635   6.198   0.349  1.4285 -0.2335 -0.0834
16600TIP3    H271216   2.636   6.201   0.500  1.2649 -0.9454 -0.0679
16601TIP3   OH271217   3.378   2.720  11.963  0.5097  0.3200 -0.3300
16601TIP3    H171218   3.308   2.657  11.945  0.6645 -0.4359  1.4958
16601TIP3    H271219   3.441   2.707  11.892 -0.3643 -0.2317 -1.0191
16602TIP3   OH271220   5.734   4.075   5.425 -0.1113 -0.7648 -0.4968
16602TIP3    H171221   5.686   4.055   5.505  1.4522  0.0389  0.7144
16602TIP3    H271222   5.814   4.023   5.432  0.8413  0.6250 -0.6405
16603TIP3   OH271223   6.039   2.068   3.306 -0.3276 -0.3153 -0.3973
16603TIP3    H171224   6.057   2.150   3.353 -1.5444  1.0801 -2.2357
16603TIP3    H271225   6.095   2.073   3.229 -0.1059 -1.4623 -0.3306
16604TIP3   OH271226   6.707   4.338   5.802 -0.5460  0.3427 -0.0516
16604TIP3    H171227   6.707   4.409   5.867  0.0602 -0.8691  1.3417
16604TIP3    H271228   6.770   4.365   5.736 -0.7868  1.3748  0.1221
16605TIP3   OH271229   3.597   5.611   0.297 -0.1385 -0.6624 -0.1468
16605TIP3    H171230   3.579   5.662   0.217  0.3099  2.1392  1.3889
16605TIP3    H271231   3.692   5.604   0.300 -0.0224  0.8580  0.9752
16606TIP3   OH271232   4.402   5.419   4.245  0.1278 -0.1370 -0.1659
16606TIP3    H171233   4.311   5.440   4.225  0.3031 -0.2588 -1.1276
16606TIP3    H271234   4.398   5.371   4.328 -0.6082  0.4999  0.1772
16607TIP3   OH271235   0.896   2.906   5.697  0.0636  0.4731  0.7221
16607TIP3    H171236   0.959   2.973   5.723  0.7384 -0.1153  0.6317
16607TIP3    H271237   0.934   2.867   5.619 -1.8719  2.1585 -1.2084
16608TIP3   OH271238   3.952   2.114   0.590  0.1299  0.3175  0.4052
16608TIP3    H171239   4.012   2.087   0.659  0.2647 -0.0205  0.1597
16608TIP3    H271240   3.913   2.195   0.622  0.3931  0.3069  0.7570
16609TIP3   OH271241   2.836   5.995   1.553  0.2978  0.0222 -0.6728
16609TIP3    H171242   2.864   5.985   1.644  1.1842 -1.3566 -1.0759
16609TIP3    H271243   2.768   5.929   1.542 -2.0861  2.2150 -0.1892
16610TIP3   OH271244   4.862   1.482   0.810 -0.2772 -0.2331  0.3752
16610TIP3    H171245   4.943   1.516   0.769  1.3610 -0.7729  2.9490
16610TIP3    H271246   4.814   1.561   0.836  0.4598  0.1217  0.7005
16611TIP3   OH271247   5.727   0.438   3.448 -0.4584  0.2869  0.2758
16611TIP3    H171248   5.709   0.411   3.538 -3.1201  0.4265 -0.1308
16611TIP3    H271249   5.711   0.533   3.449  0.7006  0.4971 -0.1001
16612TIP3   OH271250   4.426   5.631   5.144 -0.4472  0.7311 -0.5118
16612TIP3    H171251   4.437   5.549   5.191  2.3535  1.6121  0.5990
16612TIP3    H271252   4.365   5.682   5.197 -0.8469  0.0338 -0.2893
16613TIP3   OH271253   4.863   5.366  11.121 -0.2506  0.1304  0.2151
16613TIP3    H171254   4.789   5.326  11.076 -0.7113  0.7658  0.3898
16613TIP3    H271255   4.832   5.454  11.143  0.7588  0.6119 -0.2272
16614TIP3   OH271256   5.075   1.086  13.127  0.4209 -0.0107  0.0632
16614TIP3    H171257   5.079   1.055  13.036  0.8676 -1.5428  0.5792
16614TIP3    H271258   5.167   1.094  13.153  0.3077  1.2018  0.1453
16615TIP3   OH271259   4.605   1.003   2.581  0.1880 -0.0489 -0.9434
16615TIP3    H171260   4.563   0.968   2.503 -3.2262  1.1113  0.2133
16615TIP3    H271261   4.548   1.075   2.609  3.2172  1.9536  0.6257
16616TIP3   OH271262   6.351   0.218   5.094 -0.3884 -0.0937 -0.0889
16616TIP3    H171263   6.279   0.171   5.137 -0.9724  0.2151 -0.7107
16616TIP3    H271264   6.316   0.243   5.009  0.4658  0.0591 -0.4053
16617TIP3   OH271265   3.765   4.301  11.266 -0.4684  0.2746  0.5940
16617TIP3    H171266   3.713   4.254  11.330  0.8345 -0.2734  1.2996
16617TIP3    H271267   3.779   4.387  11.304 -1.3390  0.6299  0.1303
16618TIP3   OH271268   4.560   0.700  15.971 -0.3112  0.0968 -0.6402
16618TIP3    H171269   4.515   0.617  15.959  0.1618 -0.2251 -0.1914
16618TIP3    H271270   4.619   0.707  15.896 -0.1382 -0.1122 -0.5245
16619TIP3   OH271271   5.139   3.707   3.855  0.7879  0.3996  0.4388
16619TIP3    H171272   5.151   3.802   3.857 -0.0744  0.5739  4.1827
16619TIP3    H271273   5.059   3.692   3.905  1.0413 -2.3450  0.1465
16620TIP3   OH271274   4.847   1.499   5.507  0.0281 -0.4154  0.3391
16620TIP3    H171275   4.819   1.542   5.426  1.2692  0.0367  0.1385
16620TIP3    H271276   4.934   1.535   5.525  0.5233 -1.8288  0.9086
16621TIP3   OH271277   4.209   4.528  16.832  0.4374  0.1843  0.1129
16621TIP3    H171278   4.283   4.540  16.891 -0.8512 -0.3484  1.9350
16621TIP3    H271279   4.183   4.436  16.844 -1.0549  0.5900  0.2303
16622TIP3   OH271280   5.986   6.380  12.698  0.1544  0.0439 -0.0722
16622TIP3    H171281   5.991   6.357  12.791  2.3155  2.9791  0.6585
16622TIP3    H271282   5.958   6.471  12.697  1.1370  0.3878 -2.2464
16623TIP3   OH271283   1.748   0.424  13.636  0.0611 -0.4394 -0.1092
16623TIP3    H171284   1.773   0.341  13.594 -0.6674 -0.1435 -1.1660
16623TIP3    H271285   1.667   0.449  13.593  1.1170  1.6832 -1.0154
16624TIP3   OH271286   1.073   4.994   0.787  0.1371  0.1947  0.1276
16624TIP3    H171287   1.006   5.000   0.855 -0.3244 -0.5240 -0.2519
16624TIP3    H271288   1.150   5.036   0.825 -0.1108 -0.2206  1.1102
16625TIP3   OH271289   5.697   4.249   1.057  0.2158  0.0359 -0.1900
16625TIP3    H171290   5.667   4.329   1.015 -2.8438 -0.6505  0.4583
16625TIP3    H271291   5.635   4.235   1.129  0.1199 -3.3187 -0.7818
16626TIP3   OH271292   2.682   3.538  14.713 -0.1147 -0.7750  0.4535
16626TIP3    H171293   2.704   3.611  14.771 -3.1448  1.3781 -0.7981
16626TIP3    H271294   2.713   3.566  14.627  0.1323 -1.7459  0.2144
16627TIP3   OH271295   1.151   1.241   6.103 -0.1087 -0.3223  0.3212
16627TIP3    H171296   1.080   1.203   6.053 -1.2901  1.4029  0.5724
16627TIP3    H271297   1.107   1.290   6.173  1.3339  0.5377  0.6700
16628TIP3   OH271298   3.545   5.923  14.695  0.3566  0.7128  0.0597
16628TIP3    H171299   3.542   5.930  14.600 -0.5601  0.7026  0.0812
16628TIP3    H271300   3.541   5.829  14.713  0.5394  0.7135  0.1143
16629TIP3   OH271301   0.591   5.731  10.298  0.2524  0.7341  0.1117
16629TIP3    H171302   0.545   5.659  10.256 -0.6450  1.4124 -0.0872
16629TIP3    H271303   0.527   5.769  10.358  1.1296  0.5573  1.1840
16630TIP3   OH271304   5.321   1.967  12.822  0.8836  0.9966 -0.2287
16630TIP3    H171305   5.307   1.992  12.914  2.0040  1.0251 -0.0487
16630TIP3    H271306   5.241   1.994  12.777  0.3820  1.1115  0.7202
16631TIP3   OH271307   4.412   5.177   0.740 -0.0675  0.3767 -0.2511
16631TIP3    H171308   4.416   5.153   0.832 -1.1390 -1.0037 -0.5182
16631TIP3    H271309   4.502   5.170   0.709  0.2396  0.4768  0.6029
16632TIP3   OH271310   2.889   2.149   5.661  0.0790 -0.0501 -0.1575
16632TIP3    H171311   2.971   2.166   5.614 -0.3986  1.6671 -0.4339
16632TIP3    H271312   2.824   2.203   5.616 -1.3450 -1.7504 -0.2476
16633TIP3   OH271313   4.160   1.122  12.587 -0.0318  0.7841 -0.3678
16633TIP3    H171314   4.102   1.145  12.659  0.1112 -0.2529  0.0974
16633TIP3    H271315   4.248   1.123  12.626  0.1086  0.8290 -0.6822
16634TIP3   OH271316   6.429   2.651   4.887  0.0345  1.0250 -0.1152
16634TIP3    H171317   6.519   2.649   4.921 -0.6587 -1.5644  1.8751
16634TIP3    H271318   6.440   2.657   4.792  2.4246 -0.9290 -0.0741
16635TIP3   OH271319   3.796   2.124   1.883 -0.4314  0.6502  0.2256
16635TIP3    H171320   3.820   2.210   1.849  1.5262 -0.2202 -0.7629
16635TIP3    H271321   3.847   2.114   1.963  0.7846 -0.2851 -0.6331
16636TIP3   OH271322   2.844   1.965   6.136 -0.0754 -0.4699 -0.6120
16636TIP3    H171323   2.817   1.927   6.219 -1.7698  0.6441 -0.5856
16636TIP3    H271324   2.804   1.909   6.070  1.0689 -1.2128 -0.7080
16637TIP3   OH271325   1.982   6.150  14.078  0.3121  0.0558  0.1529
16637TIP3    H171326   1.987   6.176  14.170  0.4433  0.2694  0.0857
16637TIP3    H271327   2.006   6.229  14.029  1.0864 -0.2930 -0.0450
16638TIP3   OH271328   2.633   2.733  11.690 -0.3647 -0.1654 -0.0385
16638TIP3    H171329   2.643   2.757  11.597  2.7145  2.0184  0.6768
16638TIP3    H271330   2.595   2.811  11.730 -0.6254 -0.6745  0.7179
16639TIP3   OH271331   5.447   0.924  16.215 -0.0168 -0.1730  0.0975
16639TIP3    H171332   5.507   0.933  16.140 -0.3015 -1.2114 -0.2665
16639TIP3    H271333   5.361   0.911  16.176 -0.1026 -1.1849  0.5944
16640TIP3   OH271334   1.284   6.745   4.240  0.1136  0.1372  0.1596
16640TIP3    H171335   1.232   6.679   4.193  0.5150 -0.0074 -0.0809
16640TIP3    H271336   1.332   6.694   4.306  1.1492  0.0586 -0.6451
16641TIP3   OH271337   2.668   5.435   5.922 -0.8221  0.0204  0.0450
16641TIP3    H171338   2.611   5.359   5.938 -1.4992  0.4561 -0.2338
16641TIP3    H271339   2.610   5.510   5.934 -0.1647  0.4960  0.2908
16642TIP3   OH271340   2.191   2.273  10.701  0.8363  0.0654  0.5095
16642TIP3    H171341   2.254   2.245  10.634 -0.9710 -0.5916 -0.9832
16642TIP3    H271342   2.188   2.200  10.763  1.9599  0.3679  0.9603
16643TIP3   OH271343   3.576   1.496  13.992  0.4736  0.2097  0.0902
16643TIP3    H171344   3.668   1.520  13.984  0.9443 -1.5529 -0.0485
16643TIP3    H271345   3.533   1.543  13.920  1.5831 -0.4707 -1.0519
16644TIP3   OH271346   5.278   3.611   5.059  0.1709  0.8046 -0.6657
16644TIP3    H171347   5.336   3.617   4.983  3.7361  2.1741  1.8678
16644TIP3    H271348   5.315   3.672   5.123 -2.6890 -0.1030  2.1542
16645TIP3   OH271349   3.574   1.505  13.371  0.0015  0.1567  0.1026
16645TIP3    H171350   3.586   1.494  13.277 -4.3740 -1.2855 -0.4950
16645TIP3    H271351   3.623   1.433  13.410  1.8920  0.7809 -0.9884
16646TIP3   OH271352   2.161   3.697  15.487  0.2427 -0.2369 -0.4076
16646TIP3    H171353   2.069   3.716  15.502  0.6147  0.7444  0.9516
16646TIP3    H271354   2.178   3.724  15.397 -0.1840  2.3957  0.2197
16647TIP3   OH271355   6.280   2.771   1.207 -0.3828 -0.5039  0.0064
16647TIP3    H171356   6.307   2.853   1.250  0.6380 -1.4306  1.2303
16647TIP3    H271357   6.197   2.792   1.165 -1.2922  0.6073  2.1605
16648TIP3   OH271358   3.735   0.979   0.610 -0.2303 -0.0981  0.2442
16648TIP3    H171359   3.719   1.073   0.618  2.8750  0.3694  3.2648
16648TIP3    H271360   3.717   0.944   0.697  0.6961 -1.9105 -0.2390
16649TIP3   OH271361   5.012   0.522  13.069  0.0348  0.3607 -0.0842
16649TIP3    H171362   4.979   0.574  12.996 -0.6591 -0.2308 -0.2013
16649TIP3    H271363   4.936   0.476  13.103  0.7175 -1.0270 -0.3552
16650TIP3   OH271364   0.566   0.366  15.942 -0.4354 -0.1097  0.1867
16650TIP3    H171365   0.615   0.366  15.859 -1.0523 -0.4111 -0.1851
16650TIP3    H271366   0.604   0.294  15.992  0.2933  0.3973  0.3935
16651TIP3   OH271367   1.020   5.645   3.028  0.4396  0.7185  0.1288
16651TIP3    H171368   1.020   5.558   2.988  0.2275 -0.0011  1.6216
16651TIP3    H271369   0.931   5.678   3.014  0.1431  0.1546  0.6788
16652TIP3   OH271370   1.252   0.600   4.583  0.1144  0.1060 -0.6296
16652TIP3    H171371   1.205   0.517   4.581  0.0283  0.1610 -0.8520
16652TIP3    H271372   1.246   0.629   4.674  2.1350 -1.2893  0.0160
16653TIP3   OH271373   0.233   4.049   4.813  0.4525 -0.1702 -0.2234
16653TIP3    H171374   0.142   4.022   4.805  0.3964 -0.6187  1.4612
16653TIP3    H271375   0.283   3.968   4.804  0.5159 -0.3028  1.0767
16654TIP3   OH271376   0.258   2.955   2.710 -0.3189  0.2419 -0.0445
16654TIP3    H171377   0.314   2.881   2.735  3.0331  1.3419 -3.2789
16654TIP3    H271378   0.244   2.943   2.616 -0.8476  2.9331 -0.3922
16655TIP3   OH271379   0.293   4.977  14.050  0.0811  0.1448  0.2620
16655TIP3    H171380   0.220   5.011  14.102  0.2183  0.8119  0.0287
16655TIP3    H271381   0.282   5.016  13.964  0.4647 -0.1045  0.0959
16656TIP3   OH271382   6.636   2.372   5.100  0.7585  0.0789  0.0426
16656TIP3    H171383   6.681   2.305   5.152  1.0292  0.8400  0.8130
16656TIP3    H271384   6.669   2.455   5.134 -0.6529  0.6442  0.0999
16657TIP3   OH271385   3.767   3.999  11.986 -0.5933 -0.2409  0.1401
16657TIP3    H171386   3.741   4.079  11.942 -0.2199 -0.3394 -0.2734
16657TIP3    H271387   3.773   4.022  12.079  1.0767  0.6362 -0.1522
16658TIP3   OH271388   4.353   0.406  11.123  0.1682  0.1317 -0.4357
16658TIP3    H171389   4.418   0.475  11.138  0.2770  0.3091 -1.6291
16658TIP3    H271390   4.405   0.328  11.104  0.0435 -0.2638  0.7910
16659TIP3   OH271391   0.717   3.378  16.662 -0.4919 -0.1971 -0.1340
16659TIP3    H171392   0.722   3.431  16.741  1.5291 -1.2369  0.5017
16659TIP3    H271393   0.653   3.424  16.607 -0.8663  1.3510  1.4823
16660TIP3   OH271394   5.100   3.176   4.688  0.1622 -0.3110 -0.4513
16660TIP3    H171395   5.105   3.131   4.603 -0.5017 -0.4712 -0.4182
16660TIP3    H271396   5.144   3.117   4.749  0.8130 -0.1062 -0.7153
16661TIP3   OH271397   0.036   5.786  15.590 -0.5040 -0.1547 -0.5418
16661TIP3    H171398   0.068   5.759  15.677  2.8460 -2.4488 -2.2468
16661TIP3    H271399   0.082   5.868  15.573  0.4956 -0.7623 -0.8895
16662TIP3   OH271400   3.038   5.205   1.567  0.2377  0.2121  1.1087
16662TIP3    H171401   2.989   5.251   1.635 -0.5620  0.1091  0.6290
16662TIP3    H271402   2.998   5.118   1.564 -0.5529  0.5871 -0.2726
16663TIP3   OH271403   4.522   0.727  10.817  0.2613 -0.1145  0.0505
16663TIP3    H171404   4.545   0.677  10.895 -0.7760 -0.8017 -0.0712
16663TIP3    H271405   4.448   0.680  10.779  1.7324 -0.7178 -2.2650
16664TIP3   OH271406   0.148   4.141   0.404  0.2592 -0.0941  0.1177
16664TIP3    H171407   0.153   4.075   0.335  0.0798 -1.2457  1.1749
16664TIP3    H271408   0.200   4.105   0.476 -0.5553  0.5162  1.0404
16665TIP3   OH271409   0.129   0.866  16.493 -0.3949 -0.3214  0.6292
16665TIP3    H171410   0.115   0.942  16.550 -1.5292  0.4600 -0.6197
16665TIP3    H271411   0.051   0.864  16.437 -0.1111 -2.0783  0.2502
16666TIP3   OH271412   5.889   5.300   3.716  0.0992 -0.4588  0.1040
16666TIP3    H171413   5.975   5.294   3.758  0.0334 -0.8886  0.1844
16666TIP3    H271414   5.898   5.371   3.653  0.6679 -0.8338 -0.2478
16667TIP3   OH271415   0.556   2.888   5.576  0.0793 -0.1840 -0.4463
16667TIP3    H171416   0.519   2.811   5.621  0.0299 -0.5312 -1.0640
16667TIP3    H271417   0.500   2.960   5.604 -1.1433 -0.7167 -1.4196
16668TIP3   OH271418   4.956   5.739   1.202  0.6871  0.5191 -0.0240
16668TIP3    H171419   4.876   5.723   1.251 -0.0385 -0.7449 -1.5242
16668TIP3    H271420   4.944   5.825   1.162  0.0090  0.2927 -0.3235
16669TIP3   OH271421   0.933   5.045  13.634  0.2903 -0.5243 -0.2009
16669TIP3    H171422   0.888   4.973  13.679  1.0275 -0.7755  0.1482
16669TIP3    H271423   0.903   5.039  13.543 -1.8216  0.4579  0.3572
16670TIP3   OH271424   6.099   5.057  14.278  0.6516 -0.3572 -0.5012
16670TIP3    H171425   6.177   5.043  14.331  0.4055 -0.6165 -0.2069
16670TIP3    H271426   6.131   5.054  14.187  0.8869 -1.0505 -0.3993
16671TIP3   OH271427   5.624   2.488   5.489 -0.0310  0.5562  0.3102
16671TIP3    H171428   5.558   2.510   5.423 -0.9695  1.2171  1.4457
16671TIP3    H271429   5.689   2.558   5.482 -1.0147  1.6062  1.2353
16672TIP3   OH271430   4.666   3.578   1.239  0.6948 -0.3910  0.5062
16672TIP3    H171431   4.720   3.519   1.187 -1.0975  0.1879 -2.2191
16672TIP3    H271432   4.705   3.664   1.226 -0.4979 -0.0461 -1.0679
16673TIP3   OH271433   3.181   4.772   2.320 -0.2385 -0.0708  0.2200
16673TIP3    H171434   3.249   4.730   2.373  0.1855  0.4836  0.1253
16673TIP3    H271435   3.101   4.723   2.340 -0.4236  1.0351  2.5139
16674TIP3   OH271436   5.867   3.272  14.900 -0.3268  0.0248  0.0825
16674TIP3    H171437   5.777   3.281  14.870 -0.6600  0.1333  1.0618
16674TIP3    H271438   5.893   3.184  14.871 -0.5999  0.1524 -0.5660
16675TIP3   OH271439   4.711   2.812   3.337 -0.3274  0.1735 -0.1228
16675TIP3    H171440   4.805   2.814   3.355 -0.8874 -1.3456  4.4093
16675TIP3    H271441   4.684   2.723   3.360 -3.1082  1.1047  0.6263
16676TIP3   OH271442   3.778   0.914   3.733 -0.5154  1.3570  0.0092
16676TIP3    H171443   3.857   0.918   3.680 -0.2382  0.5655  0.3438
16676TIP3    H271444   3.809   0.927   3.823 -0.6461  0.2631  0.2275
16677TIP3   OH271445   5.742   4.926   2.026  0.1384  0.4038 -0.1510
16677TIP3    H171446   5.708   4.997   2.081 -0.9852 -0.6086  0.5323
16677TIP3    H271447   5.836   4.925   2.043 -0.0414  0.7795  0.9785
16678TIP3   OH271448   3.550   0.815   0.431  0.0484  0.2146  0.3993
16678TIP3    H171449   3.484   0.883   0.418 -1.2275 -0.6999  1.7769
16678TIP3    H271450   3.608   0.852   0.497 -0.2408  0.2459  0.6410
16679TIP3   OH271451   1.790   4.131  16.010  0.4633 -0.3087  0.2045
16679TIP3    H171452   1.755   4.205  16.059 -0.2996  0.6806 -1.6912
16679TIP3    H271453   1.882   4.125  16.036  0.6320  1.5423  0.1643
16680TIP3   OH271454   1.770   2.718  16.619 -0.4353  0.0407  0.2158
16680TIP3    H171455   1.700   2.667  16.578 -0.9512  0.6541  0.3162
16680TIP3    H271456   1.733   2.747  16.703  0.0281  0.1577  0.3835
16681TIP3   OH271457   5.664   6.535   4.337 -0.0778  0.6782  0.1897
16681TIP3    H171458   5.638   6.626   4.323  1.2453  0.9045 -1.0151
16681TIP3    H271459   5.735   6.539   4.401 -0.1454  0.4737  0.2800
16682TIP3   OH271460   0.311   5.444   3.797  0.1110 -0.1614 -0.2892
16682TIP3    H171461   0.346   5.514   3.742  0.1659  0.6248  0.7226
16682TIP3    H271462   0.347   5.364   3.760 -0.0577  0.3292 -1.5499
16683TIP3   OH271463   4.791   2.206   4.783 -0.8771 -0.2724  0.3118
16683TIP3    H171464   4.881   2.190   4.811 -0.3446  1.8263 -0.0212
16683TIP3    H271465   4.739   2.140   4.829  0.7105 -0.9128  1.2634
16684TIP3   OH271466   5.604   5.743  16.472 -0.0932 -0.2363  0.1883
16684TIP3    H171467   5.586   5.682  16.400 -0.2094 -1.9577  1.6142
16684TIP3    H271468   5.518   5.775  16.499 -0.1908 -0.8248  0.5866
16685TIP3   OH271469   5.139   6.399  11.536 -0.0748  0.1329 -0.3066
16685TIP3    H171470   5.091   6.324  11.503 -0.5249  1.1156 -2.0141
16685TIP3    H271471   5.072   6.460  11.566  0.2744 -0.0170  0.8220
16686TIP3   OH271472   4.134   5.879   4.302 -0.1355  0.4946  0.2352
16686TIP3    H171473   4.079   5.851   4.229 -0.3628  1.1474  0.1514
16686TIP3    H271474   4.186   5.951   4.267  2.2724 -1.3659 -0.2952
16687TIP3   OH271475   0.802   4.372  14.171  0.1865 -0.1536  0.1316
16687TIP3    H171476   0.877   4.312  14.168  0.1732 -0.1446 -0.9463
16687TIP3    H271477   0.770   4.374  14.080 -0.9738  0.0321  0.5334
16688TIP3   OH271478   0.103   3.527   6.112 -0.6124 -0.0308 -1.1746
16688TIP3    H171479   0.058   3.454   6.069  0.5079 -2.8558  1.9693
16688TIP3    H271480   0.189   3.530   6.070  0.3559 -2.5216  0.4343
16689TIP3   OH271481   0.862   5.601   6.009 -0.6806  0.2031 -0.2192
16689TIP3    H171482   0.840   5.539   6.078  0.4788  0.2656  0.2240
16689TIP3    H271483   0.814   5.570   5.932  1.2200 -2.2973 -0.5002
16690TIP3   OH271484   5.046   0.788   6.585 -0.0317  0.0435  0.7634
16690TIP3    H171485   4.957   0.783   6.619 -0.5722  1.2984 -0.3362
16690TIP3    H271486   5.086   0.861   6.633 -0.5202  1.2612 -0.6124
16691TIP3   OH271487   6.183   1.760  14.504 -0.2344  0.0607  0.6043
16691TIP3    H171488   6.239   1.824  14.548 -0.0688  0.6873 -0.5079
16691TIP3    H271489   6.184   1.786  14.412 -1.2352 -0.7555  0.3534
16692TIP3   OH271490   2.063   6.558   3.284  0.2273  0.3918 -0.1281
16692TIP3    H171491   2.117   6.526   3.355  1.6013  0.3456 -1.1636
16692TIP3    H271492   2.119   6.620   3.237 -1.0636  1.3586 -0.4632
16693TIP3   OH271493   4.604   2.117   5.616 -0.1489  0.2551 -0.3490
16693TIP3    H171494   4.627   2.101   5.708 -0.4869  1.1752 -0.0949
16693TIP3    H271495   4.669   2.179   5.585  0.4097 -0.6140 -0.9654
16694TIP3   OH271496   1.838   0.032   5.536  0.3751 -0.3449  0.1235
16694TIP3    H171497   1.772   0.101   5.550  0.4928 -0.1504 -0.2823
16694TIP3    H271498   1.870   0.012   5.624  0.9247  0.6943  0.1664
16695TIP3   OH271499   0.115   0.117  11.311  0.0842  0.2018  0.0524
16695TIP3    H171500   0.141   0.156  11.395 -0.3969  2.3101 -0.6929
16695TIP3    H271501   0.150   0.029  11.313  0.5638  0.3775  2.2430
16696TIP3   OH271502   3.391   1.264  14.802  0.2322  0.2926 -0.5500
16696TIP3    H171503   3.415   1.173  14.822 -0.3116  0.0796 -0.8270
16696TIP3    H271504   3.445   1.287  14.727 -0.0399 -0.0072 -0.8450
16697TIP3   OH271505   0.841   2.947   3.109  0.0038 -0.0331  0.2233
16697TIP3    H171506   0.929   2.986   3.104 -0.7117  1.8562  1.0830
16697TIP3    H271507   0.857   2.855   3.128  1.8051  0.1874  0.0068
16698TIP3   OH271508   4.708   5.092   0.932  0.2335 -0.2230  0.1141
16698TIP3    H171509   4.716   5.157   0.862  0.6448  0.6665  0.9626
16698TIP3    H271510   4.760   5.018   0.901  2.3706  1.0453  0.4372
16699TIP3   OH271511   2.556   4.709  16.646  0.3800  0.5291 -0.2494
16699TIP3    H171512   2.584   4.677  16.732  0.1635 -3.0912 -1.3494
16699TIP3    H271513   2.461   4.716  16.653 -0.2017 -3.6802 -1.0743
16700TIP3   OH271514   4.224   4.759  16.030  0.2530 -0.4267  0.6806
16700TIP3    H171515   4.252   4.733  16.118 -0.8565 -0.8337  0.9300
16700TIP3    H271516   4.257   4.848  16.020  0.7273 -0.5149  1.3608
16701TIP3   OH271517   0.041   5.125  16.781  0.5005  0.0543  0.1172
16701TIP3    H171518  -0.014   5.051  16.753 -0.7001  1.2937 -0.9474
16701TIP3    H271519   0.088   5.092  16.857  0.0029 -1.8099 -0.3289
16702TIP3   OH271520   5.661   2.824   4.838  0.1433 -0.0603 -0.1215
16702TIP3    H171521   5.639   2.858   4.751 -1.9874 -1.0755 -0.0543
16702TIP3    H271522   5.691   2.901   4.886  3.8484  0.1454 -2.3551
16703TIP3   OH271523   0.781   2.029   3.100  0.0005  0.7811 -0.0032
16703TIP3    H171524   0.788   2.014   3.195  1.8729  0.8475 -0.0946
16703TIP3    H271525   0.757   2.121   3.093 -2.0443  0.3213  0.4064
16704TIP3   OH271526   0.683   1.129  16.719  0.3931 -0.4575  0.0521
16704TIP3    H171527   0.753   1.162  16.663  0.2942 -1.3749 -0.6132
16704TIP3    H271528   0.728   1.094  16.796  0.5216  0.8672  0.6185
16705TIP3   OH271529   5.030   5.592   4.064  0.1469  0.2207  0.2030
16705TIP3    H171530   4.980   5.660   4.018  0.9678  1.6971  1.3841
16705TIP3    H271531   4.975   5.569   4.139  0.7381  1.1158  0.9415
16706TIP3   OH271532   2.440   4.466   2.675  0.1540 -0.7102  0.3354
16706TIP3    H171533   2.346   4.462   2.693  0.1312 -0.4128  0.2975
16706TIP3    H271534   2.454   4.406   2.603 -0.2908  0.4765 -0.7790
16707TIP3   OH271535   4.474   4.204  12.102  0.4414  0.3691 -0.2005
16707TIP3    H171536   4.498   4.118  12.138  0.6733  0.4885 -0.0651
16707TIP3    H271537   4.427   4.184  12.021 -0.7928  0.0658  0.5629
16708TIP3   OH271538   2.368   4.225   6.577 -0.1874  0.7320 -0.9446
16708TIP3    H171539   2.352   4.158   6.511 -0.8884  0.4289 -0.4737
16708TIP3    H271540   2.389   4.304   6.527 -1.5063  0.7147 -1.5412
16709TIP3   OH271541   1.590   5.769   1.417  0.2597  0.2516  0.0471
16709TIP3    H171542   1.650   5.695   1.407 -0.5610 -0.2960 -1.1743
16709TIP3    H271543   1.610   5.826   1.343  1.0283  1.3849  1.0997
16710TIP3   OH271544   3.698   0.914   4.452 -0.0343 -0.2871 -0.4740
16710TIP3    H171545   3.617   0.908   4.502  0.4259 -1.9500  0.1152
16710TIP3    H271546   3.673   0.962   4.373 -2.1477 -2.6183 -1.3550
16711TIP3   OH271547   4.143   5.087   0.098 -0.0156  0.3499 -0.0312
16711TIP3    H171548   4.207   5.154   0.072  0.7445  0.3377  1.6965
16711TIP3    H271549   4.195   5.007   0.110 -0.7418 -0.2807 -0.9438
16712TIP3   OH271550   5.871   1.066  14.898  0.4197  0.8642  0.4772
16712TIP3    H171551   5.927   1.002  14.942  0.7970  0.9770  0.1677
16712TIP3    H271552   5.792   1.017  14.875  0.6473  0.5436  0.3708
16713TIP3   OH271553   6.087   5.104  11.281  0.2382  0.1275  0.6578
16713TIP3    H171554   6.043   5.184  11.309  2.5505  1.4793  0.7095
16713TIP3    H271555   6.133   5.129  11.201 -0.9048 -1.8638 -0.7088
16714TIP3   OH271556   1.061   4.311  13.130  0.1704 -0.4451  0.3229
16714TIP3    H171557   1.083   4.392  13.084  1.8609 -0.0964  1.6179
16714TIP3    H271558   1.141   4.258  13.126 -0.6353 -1.7139  0.2318
16715TIP3   OH271559   3.193   0.092   3.269 -0.5950  0.0382  0.8045
16715TIP3    H171560   3.164   0.138   3.191  2.0136 -0.1934 -0.4111
16715TIP3    H271561   3.137   0.014   3.273 -2.1260  1.0714  0.4004
16716TIP3   OH271562   0.756   2.072  13.529  0.3038 -0.1261  0.4844
16716TIP3    H171563   0.818   2.131  13.573 -0.0557  1.0219 -0.4792
16716TIP3    H271564   0.693   2.131  13.488  0.6194 -1.1136 -1.5698
16717TIP3   OH271565   6.708   4.925   5.050 -0.0473 -0.1960  0.4390
16717TIP3    H171566   6.774   4.918   5.118 -0.9991 -1.2718  1.2899
16717TIP3    H271567   6.626   4.902   5.093 -1.2281  2.3092 -0.2770
16718TIP3   OH271568   3.624   3.708   2.049  0.0981 -0.1449 -0.0397
16718TIP3    H171569   3.633   3.664   2.134  0.7617  0.7881  0.3970
16718TIP3    H271570   3.661   3.796   2.064 -3.1555  1.3933 -0.2580
16719TIP3   OH271571   4.386   2.539   1.378  0.2091  0.2006  0.0053
16719TIP3    H171572   4.337   2.590   1.443 -0.3291 -1.8490  1.3049
16719TIP3    H271573   4.426   2.605   1.321 -2.1983  2.0062  0.2437
16720TIP3   OH271574   0.048   0.764  14.386  0.3019  0.2507  0.5220
16720TIP3    H171575   0.128   0.716  14.407 -0.0810 -0.3318  0.7004
16720TIP3    H271576   0.008   0.715  14.315 -1.0440 -0.8319  1.9357
16721TIP3   OH271577   4.077   5.727  14.340 -0.2498  0.0574  0.6105
16721TIP3    H171578   4.086   5.797  14.404 -0.7708 -1.0593  1.9521
16721TIP3    H271579   4.160   5.726  14.293  0.4118  0.4360  1.7536
16722TIP3   OH271580   0.878   5.390  15.250 -0.2591 -0.3719  0.3410
16722TIP3    H171581   0.905   5.365  15.338  2.1517 -0.0907 -0.2575
16722TIP3    H271582   0.854   5.482  15.257 -0.7959 -0.5400  0.8219
16723TIP3   OH271583   3.473   3.875  11.504  0.5394  0.5278  0.1717
16723TIP3    H171584   3.478   3.820  11.582 -0.5856 -0.1380 -0.2104
16723TIP3    H271585   3.397   3.842  11.456  1.7296  0.3270 -1.6625
16724TIP3   OH271586   4.252   5.701   1.891  0.1576 -0.2262 -0.2152
16724TIP3    H171587   4.256   5.796   1.908 -1.7135  0.0778 -1.2567
16724TIP3    H271588   4.265   5.694   1.797 -0.5958 -0.9334 -0.2692
16725TIP3   OH271589   3.823   4.677  15.896 -0.1898  0.4192  0.3576
16725TIP3    H171590   3.753   4.640  15.841  0.4660 -0.5013  0.1164
16725TIP3    H271591   3.868   4.601  15.932 -1.0212  0.9819  2.7896
16726TIP3   OH271592   3.375   4.075  17.128 -0.0520  0.5057  0.0365
16726TIP3    H171593   3.365   4.064  17.033  0.7429 -0.5502  0.0514
16726TIP3    H271594   3.422   4.157  17.138  0.7984  0.1031 -0.5508
16727TIP3   OH271595   4.939   5.235   4.338 -0.4171 -0.3599 -0.5906
16727TIP3    H171596   4.883   5.159   4.356  1.4901 -1.5471  0.6548
16727TIP3    H271597   5.004   5.202   4.276 -0.4892  0.7345 -1.2831
16728TIP3   OH271598   0.030   4.410  13.032  0.2134  0.0832  0.1278
16728TIP3    H171599   0.102   4.469  13.052 -0.0874  0.4260  0.2200
16728TIP3    H271600  -0.003   4.440  12.948  0.5610 -0.4527 -0.2018
16729TIP3   OH271601   1.254   0.370  15.958 -0.3623  0.0951  0.1177
16729TIP3    H171602   1.312   0.293  15.957  0.3084  0.5464  1.5518
16729TIP3    H271603   1.197   0.358  15.882 -0.6349 -2.1022  0.5871
16730TIP3   OH271604   1.367   3.722   1.733  0.6179 -0.5812  0.6263
16730TIP3    H171605   1.297   3.707   1.670  2.3563 -0.8910 -1.3525
16730TIP3    H271606   1.359   3.814   1.757 -0.4862 -0.6315  0.4853
16731TIP3   OH271607   3.563   3.993  14.981  0.5943  0.2191 -0.5600
16731TIP3    H171608   3.489   3.933  14.991  1.2192 -0.7791 -1.6438
16731TIP3    H271609   3.623   3.970  15.052  0.3184  0.3525 -0.2813
16732TIP3   OH271610   3.662   6.478  15.849 -0.5811  0.1076  0.0793
16732TIP3    H171611   3.636   6.483  15.758 -1.5731 -1.3019  0.2462
16732TIP3    H271612   3.756   6.496  15.849 -0.9777  2.4569 -0.9000
16733TIP3   OH271613   1.336   5.950   2.362  0.2868  0.0566  0.6651
16733TIP3    H171614   1.251   5.995   2.362  0.9787  1.4051  0.8997
16733TIP3    H271615   1.381   5.984   2.285 -0.4438 -2.8513 -1.2245
16734TIP3   OH271616   3.999   0.217  14.319  0.1516 -0.3457 -0.2329
16734TIP3    H171617   3.974   0.297  14.274  0.3504 -0.1390  0.0170
16734TIP3    H271618   4.078   0.187  14.273  0.8464  0.3206  0.4864
16735TIP3   OH271619   3.481   2.850   0.350 -0.1638  0.2564 -0.1486
16735TIP3    H171620   3.566   2.834   0.308 -0.1408 -0.3627  0.1288
16735TIP3    H271621   3.501   2.909   0.422  0.0369  0.0929 -0.0703
16736TIP3   OH271622   0.785   3.424  15.179 -0.8446 -0.7535  0.1584
16736TIP3    H171623   0.734   3.484  15.233 -1.2462 -1.9464  1.1320
16736TIP3    H271624   0.876   3.449  15.196 -0.9776  2.0564 -2.3538
16737TIP3   OH271625   0.217   0.961  13.954 -0.0320 -0.4970 -0.3657
16737TIP3    H171626   0.197   1.020  13.881  0.7015 -0.1050 -0.2573
16737TIP3    H271627   0.176   1.002  14.030  0.0547 -0.3781 -0.3817
16738TIP3   OH271628   2.198   3.959   4.083 -0.0469 -0.2310 -0.2922
16738TIP3    H171629   2.210   3.920   3.996 -0.9150  1.9947 -1.4980
16738TIP3    H271630   2.244   3.900   4.142 -0.7423 -2.6914 -2.0261
16739TIP3   OH271631   5.224   4.145   0.022 -0.1953 -0.9603 -0.5021
16739TIP3    H171632   5.155   4.186  -0.030 -0.2426  0.3396  0.5113
16739TIP3    H271633   5.305   4.187  -0.009 -0.2117 -0.2693  0.3524
16740TIP3   OH271634   3.372   5.093   5.902 -0.1113  0.1143 -0.3788
16740TIP3    H171635   3.401   5.150   5.973 -2.3912 -1.2099  1.7757
16740TIP3    H271636   3.303   5.039   5.941 -1.1849 -1.0090 -3.5071
16741TIP3   OH271637   2.199   0.798   5.692  0.0504  0.3140  0.2395
16741TIP3    H171638   2.181   0.759   5.607 -1.3138  0.3895  0.4769
16741TIP3    H271639   2.288   0.832   5.684 -0.4374  1.3514 -1.5594
16742TIP3   OH271640   5.830   1.059   4.428 -0.2995  0.2537 -0.6921
16742TIP3    H171641   5.845   0.969   4.457 -2.0304 -0.3625 -1.5338
16742TIP3    H271642   5.826   1.052   4.333 -1.7780  0.9793 -0.6979
16743TIP3   OH271643   5.760   4.381  16.706  0.3300 -0.1738  0.0990
16743TIP3    H171644   5.834   4.354  16.761 -0.2887 -0.3738  0.8542
16743TIP3    H271645   5.798   4.392  16.619  1.3455  0.1900  0.5672
16744TIP3   OH271646   3.347   0.022   0.626  0.1543 -0.5345 -0.0546
16744TIP3    H171647   3.443   0.014   0.623  0.3472  1.5072 -0.1742
16744TIP3    H271648   3.322   0.042   0.536 -0.4116 -1.0813 -0.0284
16745TIP3   OH271649   6.239   4.402   2.795  0.6621  0.5519  1.0908
16745TIP3    H171650   6.330   4.377   2.778  0.5818  1.1265 -0.2571
16745TIP3    H271651   6.234   4.494   2.770 -0.4238  0.3860  0.6514
16746TIP3   OH271652   5.894   4.112  16.777 -1.1644  0.3649 -0.3964
16746TIP3    H171653   5.919   4.031  16.733 -0.6743 -0.6223  1.5848
16746TIP3    H271654   5.805   4.129  16.747 -0.2688  0.7622 -3.1064
16747TIP3   OH271655   4.114   0.077   4.909 -0.2633 -0.2506  0.1376
16747TIP3    H171656   4.183   0.033   4.958  0.4799 -0.3630 -0.9661
16747TIP3    H271657   4.059   0.006   4.877  0.5277 -0.3595 -1.0399
16748TIP3   OH271658   0.889   1.486  12.529  0.2598  0.3844 -0.2401
16748TIP3    H171659   0.939   1.560  12.562  1.1718 -0.2478 -0.1637
16748TIP3    H271660   0.934   1.409  12.564 -0.6269 -0.2118 -0.3691
16749TIP3   OH271661   0.233   5.368   5.597  0.1510 -0.2441 -0.4197
16749TIP3    H171662   0.281   5.303   5.546  1.7524 -0.5258  1.3482
16749TIP3    H271663   0.271   5.363   5.685 -1.2659  1.4802  0.3570
16750TIP3   OH271664   4.004   4.614  15.600  0.2270  0.3053 -0.0159
16750TIP3    H171665   3.913   4.641  15.585  0.7696  1.0966 -2.3148
16750TIP3    H271666   4.056   4.673  15.545  2.2249  0.3361  1.7973
16751TIP3   OH271667   4.798   5.955   1.482  0.1673  0.1887 -0.3185
16751TIP3    H171668   4.733   6.025   1.475 -0.1838 -0.2196 -1.3123
16751TIP3    H271669   4.763   5.896   1.549 -0.1433  0.3215 -0.3617
16752TIP3   OH271670   5.303   3.835   0.514  0.5069  0.3068 -0.5032
16752TIP3    H171671   5.344   3.812   0.430 -0.4704  0.6228 -1.0896
16752TIP3    H271672   5.209   3.837   0.494  0.1063 -1.2599  1.0020
16753TIP3   OH271673   2.060   6.145   0.838 -0.0184  0.2406  0.5334
16753TIP3    H171674   2.047   6.109   0.750  0.0193  0.3707  0.4735
16753TIP3    H271675   2.027   6.077   0.897  1.1969 -0.4193  0.4728
16754TIP3   OH271676   1.030   3.504   2.015  0.0741  0.1559 -0.0987
16754TIP3    H171677   0.940   3.523   2.041  0.7997  1.3621  1.7038
16754TIP3    H271678   1.069   3.462   2.091  0.5425 -2.2328 -1.5434
16755TIP3   OH271679   5.235   5.894   2.808  0.2072 -0.2440  0.6462
16755TIP3    H171680   5.265   5.908   2.898  0.9041  0.7072  0.2708
16755TIP3    H271681   5.280   5.960   2.756  1.6972 -2.2942 -0.8084
16756TIP3   OH271682   4.463   3.026  14.960  0.1933  0.2866  0.8123
16756TIP3    H171683   4.502   3.099  15.007 -0.7819  1.6839 -0.4509
16756TIP3    H271684   4.369   3.039  14.970 -0.0250  0.3383 -1.0458
16757TIP3   OH271685   6.044   2.028   6.291  0.3589 -0.1100 -0.1324
16757TIP3    H171686   6.069   2.112   6.254  0.6912 -0.3447 -0.4555
16757TIP3    H271687   5.950   2.019   6.271  0.2291  0.3576  0.2575
16758TIP3   OH271688   4.355   2.408  16.116  0.0311  0.3685  0.0842
16758TIP3    H171689   4.399   2.472  16.172 -0.3861  0.9985 -0.2974
16758TIP3    H271690   4.415   2.333  16.113  1.8570  1.7672 -1.6484
16759TIP3   OH271691   6.503   5.228  14.149  0.3208 -0.5292 -0.6279
16759TIP3    H171692   6.480   5.278  14.072 -0.1343 -0.1536 -0.2499
16759TIP3    H271693   6.541   5.292  14.210 -0.1249 -0.6617 -0.2029
16760TIP3   OH271694   4.789   1.655  15.480 -0.3865  0.4552 -0.4458
16760TIP3    H171695   4.861   1.599  15.451  0.3109  0.8225  0.4939
16760TIP3    H271696   4.721   1.645  15.413  0.7962  0.6150 -1.7115
16761TIP3   OH271697   6.759   1.083   3.954 -0.3839  0.0556 -0.0391
16761TIP3    H171698   6.690   1.138   3.991  1.3508  1.6949  0.9927
16761TIP3    H271699   6.747   0.998   3.994 -0.5764  0.8812  1.7477
16762TIP3   OH271700   3.953   6.132   2.115  0.3440 -0.0253  0.4514
16762TIP3    H171701   3.932   6.208   2.062 -2.3728 -0.8803  0.1589
16762TIP3    H271702   4.029   6.159   2.168 -0.1824  2.6347 -0.0397
16763TIP3   OH271703   4.645   1.268   6.857  0.3126 -0.2126  0.6616
16763TIP3    H171704   4.565   1.276   6.805 -0.2763  0.2949  1.6107
16763TIP3    H271705   4.713   1.309   6.803  0.1489 -1.4809 -0.5613
16764TIP3   OH271706   4.972   2.627  13.032 -0.6541 -0.1661 -0.2995
16764TIP3    H171707   4.956   2.719  13.054  1.4118 -0.2113  1.8719
16764TIP3    H271708   4.911   2.578  13.088  0.2333 -0.1235  0.7526
16765TIP3   OH271709   0.801   5.593  14.038  0.1740 -0.1442  0.4314
16765TIP3    H171710   0.820   5.685  14.017  0.8830 -0.0282  1.5026
16765TIP3    H271711   0.717   5.596  14.084 -1.3126 -0.3851 -2.1214
16766TIP3   OH271712   5.732   2.354  17.063  0.0673 -0.0090 -0.5949
16766TIP3    H171713   5.752   2.278  17.010 -0.6208 -1.9193  1.6950
16766TIP3    H271714   5.785   2.342  17.142 -1.0576  1.1701  0.3839
16767TIP3   OH271715   0.755   3.287  15.883 -0.3086  0.0626  0.0611
16767TIP3    H171716   0.679   3.276  15.940 -1.7012  3.2357 -0.9729
16767TIP3    H271717   0.829   3.298  15.943 -1.6152  2.5315  1.3545
16768TIP3   OH271718   5.691   4.905  11.508  0.4973  0.1564 -0.7717
16768TIP3    H171719   5.777   4.875  11.478  0.0911 -0.7268 -1.0823
16768TIP3    H271720   5.707   4.994  11.540  2.0926 -0.9703  1.8382
16769TIP3   OH271721   2.155   5.659   1.294  0.7080  0.0381  0.4955
16769TIP3    H171722   2.074   5.669   1.244  1.1974 -0.8554 -0.5367
16769TIP3    H271723   2.152   5.569   1.326  0.9541  0.2342  1.0778
16770TIP3   OH271724   4.756   3.276  10.853  0.1137 -0.5756 -0.4258
16770TIP3    H171725   4.783   3.186  10.834 -0.4120 -1.2079  1.5341
16770TIP3    H271726   4.805   3.330  10.792 -0.8027 -2.2894 -2.8435
16771TIP3   OH271727   3.103   4.092  12.123 -0.0571  0.4070  0.1416
16771TIP3    H171728   3.101   4.139  12.040 -0.4574 -0.7570 -0.5301
16771TIP3    H271729   3.033   4.132  12.175  0.1955  1.1404 -0.0611
16772TIP3   OH271730   1.883   5.097  11.522 -0.3691 -0.1527 -0.1754
16772TIP3    H171731   1.886   5.076  11.429  3.7346 -1.3697  0.0477
16772TIP3    H271732   1.890   5.012  11.566 -0.9717  0.5006  1.2444
16773TIP3   OH271733   0.317   6.549   3.949 -0.2986 -0.4221 -0.1909
16773TIP3    H171734   0.250   6.618   3.958 -1.0929 -1.3607  1.5741
16773TIP3    H271735   0.364   6.573   3.870 -0.1823  2.4647  0.6174
16774TIP3   OH271736   3.138   5.993   3.509  0.2084 -0.3344  0.2908
16774TIP3    H171737   3.111   6.035   3.590 -1.6592 -1.6081  0.3916
16774TIP3    H271738   3.075   6.024   3.444  1.0470 -0.1399 -0.4535
16775TIP3   OH271739   4.986   0.290  17.157  0.0814 -0.2047  0.2397
16775TIP3    H171740   5.014   0.247  17.076 -1.2141 -1.6963  0.5281
16775TIP3    H271741   5.058   0.348  17.180  1.0535 -0.7635 -1.2577
16776TIP3   OH271742   1.068   1.348  13.953  0.6287 -0.2518  0.1058
16776TIP3    H171743   1.050   1.362  13.860 -0.6741 -1.7405  0.0823
16776TIP3    H271744   1.011   1.411  13.998  0.4590 -0.2524 -0.1039
16777TIP3   OH271745   2.132   1.849   5.038  0.0092 -0.4718 -0.4508
16777TIP3    H171746   2.155   1.759   5.063 -0.3625 -1.2051 -2.5016
16777TIP3    H271747   2.208   1.901   5.063  1.2056 -1.7596 -1.1948
16778TIP3   OH271748   3.314   4.968  12.318 -0.1278 -0.7262  0.0149
16778TIP3    H171749   3.246   4.900  12.321 -1.2861  0.4049  0.4006
16778TIP3    H271750   3.348   4.963  12.229 -0.4889 -1.5203 -0.0917
16779TIP3   OH271751   1.974   2.973   4.592 -0.0402  0.4216 -0.9706
16779TIP3    H171752   1.953   2.948   4.502 -0.1132  1.1508 -1.1621
16779TIP3    H271753   1.902   3.030   4.619 -1.8629 -2.5036  0.7872
16780TIP3   OH271754   2.375   1.494   2.210  0.2935  0.0273  0.0036
16780TIP3    H171755   2.380   1.534   2.123  1.6332  0.6889  0.3592
16780TIP3    H271756   2.419   1.410   2.201  1.0938  0.4106  0.1860
16781TIP3   OH271757   0.457   6.287   5.558  0.1789 -0.2568  0.5014
16781TIP3    H171758   0.530   6.229   5.538  0.8994  0.7312  0.1791
16781TIP3    H271759   0.402   6.285   5.480  0.9934  0.6442 -0.1130
16782TIP3   OH271760   2.816   1.381   5.828 -0.0715 -0.4803  0.1068
16782TIP3    H171761   2.890   1.346   5.878  1.4775  1.4080 -0.7491
16782TIP3    H271762   2.845   1.468   5.800 -1.8357 -0.4949 -2.0018
16783TIP3   OH271763   3.756   1.326   1.914 -0.6522 -0.1999  0.3217
16783TIP3    H171764   3.712   1.270   1.978 -1.6057 -0.4349 -0.5159
16783TIP3    H271765   3.693   1.396   1.896 -0.9205 -0.8042 -1.2514
16784TIP3   OH271766   5.173   6.335  16.833  0.4433  0.1548 -0.2633
16784TIP3    H171767   5.262   6.311  16.807  0.4306 -0.7286  0.4513
16784TIP3    H271768   5.184   6.414  16.886  1.0870 -1.2106  1.7564
16785TIP3   OH271769   0.963   2.806  11.497 -0.0625  0.3749 -0.7536
16785TIP3    H171770   0.953   2.828  11.404 -0.1774 -1.3219 -1.1695
16785TIP3    H271771   1.055   2.783  11.506 -0.2828 -0.5068 -0.6958
16786TIP3   OH271772   5.358   5.460  15.616  0.0027 -0.3530 -0.0253
16786TIP3    H171773   5.284   5.519  15.628  0.8850  0.4139  2.3834
16786TIP3    H271774   5.324   5.373  15.633 -1.2291 -0.6369 -3.2386
16787TIP3   OH271775   1.418   2.779  11.752  0.3454  0.1017  0.3616
16787TIP3    H171776   1.477   2.794  11.826  1.9689 -1.6296 -0.4799
16787TIP3    H271777   1.477   2.765  11.678 -1.2338  3.2459 -1.6648
16788TIP3   OH271778   0.828   0.909  13.585 -0.1033  0.0360  0.0434
16788TIP3    H171779   0.893   0.976  13.561  1.0396 -1.1227 -0.1828
16788TIP3    H271780   0.837   0.900  13.680  0.0868 -0.1414  0.0092
16789TIP3   OH271781   1.739   6.470  12.092 -0.5619  0.5531 -0.3547
16789TIP3    H171782   1.723   6.386  12.136  0.0862 -0.8662 -2.6592
16789TIP3    H271783   1.669   6.527  12.123 -1.3112 -0.9740  0.9222
16790TIP3   OH271784   4.680   5.441   4.031  0.3238  0.8426  0.3228
16790TIP3    H171785   4.611   5.466   4.093  0.7958  0.9219  0.8303
16790TIP3    H271786   4.697   5.521   3.981 -0.5716  0.5814 -0.4314
16791TIP3   OH271787   1.792   4.347  11.713 -0.3574  0.7643 -0.0947
16791TIP3    H171788   1.825   4.360  11.802 -0.0201 -0.1576 -0.0725
16791TIP3    H271789   1.804   4.254  11.696 -3.2480  0.2846  0.0262
16792TIP3   OH271790   5.318   3.678  13.796 -0.0348  0.2141 -0.2109
16792TIP3    H171791   5.272   3.761  13.813 -0.9853 -0.4107  0.3647
16792TIP3    H271792   5.381   3.672  13.868 -1.2493 -0.4342  0.8577
16793TIP3   OH271793   0.160   4.248  13.537 -0.3848 -0.3480 -0.0948
16793TIP3    H171794   0.144   4.274  13.628 -0.2119  2.0732 -0.6850
16793TIP3    H271795   0.203   4.163  13.543 -2.5769 -1.4233  1.9724
16794TIP3   OH271796   2.373   2.988   1.820 -0.9709  0.2587 -0.1440
16794TIP3    H171797   2.438   2.982   1.750  1.1326 -1.9678  1.7998
16794TIP3    H271798   2.356   2.897   1.845 -1.6657  0.9370  2.1546
16795TIP3   OH271799   5.628   1.614   0.255  0.2503 -0.2716  0.1766
16795TIP3    H171800   5.640   1.682   0.189 -2.5888  1.0423  0.8536
16795TIP3    H271801   5.596   1.539   0.206  0.8471 -0.2379 -0.2725
16796TIP3   OH271802   0.522   1.938   3.729  0.4474 -0.4641  0.6133
16796TIP3    H171803   0.549   1.846   3.726  1.5203 -0.1614  0.4312
16796TIP3    H271804   0.519   1.964   3.637  0.4122 -0.2498  0.6766
16797TIP3   OH271805   3.772   0.083  14.378 -0.3703 -0.0659  0.4116
16797TIP3    H171806   3.786  -0.012  14.382  0.0648 -0.0339 -0.1761
16797TIP3    H271807   3.850   0.117  14.335 -1.1593  0.3962 -0.7246
16798TIP3   OH271808   0.382   4.508  11.191 -0.8012  0.1761  0.5436
16798TIP3    H171809   0.365   4.424  11.149 -0.0508  0.6783 -0.8246
16798TIP3    H271810   0.442   4.489  11.263 -0.8315 -0.4826  0.3930
16799TIP3   OH271811   2.343   6.467  13.294  0.4534  0.7360 -0.8244
16799TIP3    H171812   2.394   6.457  13.213 -1.9615 -0.3726 -2.3231
16799TIP3    H271813   2.253   6.449  13.267 -0.1805 -2.2834  2.6258
16800TIP3   OH271814   0.097   0.137   0.650  0.6295  0.1056  0.5378
16800TIP3    H171815   0.164   0.090   0.699  0.1554  1.2034  2.3375
16800TIP3    H271816   0.014   0.105   0.685  0.2525  0.1674 -0.2834
16801TIP3   OH271817   5.723   2.933   1.673 -0.4209 -0.4725 -0.4219
16801TIP3    H171818   5.750   3.001   1.735 -0.3129 -0.2339 -0.7245
16801TIP3    H271819   5.724   2.977   1.588 -1.3310 -0.5803 -0.4947
16802TIP3   OH271820   6.349   4.861  12.100 -0.4512 -0.4335 -0.2050
16802TIP3    H171821   6.272   4.886  12.151  0.2012 -2.3106  1.8267
16802TIP3    H271822   6.379   4.942  12.060 -2.6077  0.5973  0.1367
16803TIP3   OH271823   6.135   0.055   2.808  0.2904 -0.0326  0.0645
16803TIP3    H171824   6.056   0.001   2.816  0.8113 -0.6329  1.5428
16803TIP3    H271825   6.148   0.065   2.714 -1.2336 -0.3822 -0.2126
16804TIP3   OH271826   1.703   0.110   0.462  0.2848  0.5632 -0.0130
16804TIP3    H171827   1.682   0.198   0.432  1.4397  1.1523  0.8398
16804TIP3    H271828   1.798   0.103   0.453  0.1866 -0.7031 -0.3290
16805TIP3   OH271829   2.794   5.243   0.029 -0.0494  0.5481 -0.1715
16805TIP3    H171830   2.853   5.178   0.067 -0.6092 -0.4256 -0.9131
16805TIP3    H271831   2.755   5.287   0.104  0.5420  0.2132  0.3403
16806TIP3   OH271832   1.637   3.227   4.070  0.2327 -0.2305  0.2293
16806TIP3    H171833   1.585   3.181   4.137  1.0940 -0.4304  0.7832
16806TIP3    H271834   1.700   3.161   4.041  0.9762  0.3698  0.4642
16807TIP3   OH271835   3.689   2.786   3.639 -0.1874  0.0447  0.2721
16807TIP3    H171836   3.600   2.807   3.613 -0.5737 -1.5542  0.2060
16807TIP3    H271837   3.726   2.741   3.563  1.8041  3.4651 -0.9871
16808TIP3   OH271838   3.838   3.024   5.414  0.1328 -0.3650 -0.3410
16808TIP3    H171839   3.772   2.959   5.439  1.6894 -2.0554 -0.4408
16808TIP3    H271840   3.802   3.065   5.335 -0.3670 -1.9559 -0.9798
16809TIP3   OH271841   1.723   3.710  11.395  0.4937  0.4404 -0.0245
16809TIP3    H171842   1.703   3.730  11.486  1.0752  1.3348 -0.0864
16809TIP3    H271843   1.793   3.771  11.371  2.4951 -1.7869 -0.1702
16810TIP3   OH271844   2.479   3.340  10.169  0.5485  0.1759  0.7916
16810TIP3    H171845   2.394   3.350  10.211 -0.0014 -1.9525  0.3127
16810TIP3    H271846   2.527   3.278  10.226  1.2118  0.2023  0.2799
16811TIP3   OH271847   5.585   2.932   4.598 -0.0462 -0.4280 -0.3290
16811TIP3    H171848   5.571   3.025   4.617 -0.1909 -0.6324  0.6175
16811TIP3    H271849   5.513   2.909   4.540  0.3210  0.1868 -1.0456
16812TIP3   OH271850   6.528   4.033   4.990 -0.1892  0.9848  0.4993
16812TIP3    H171851   6.444   4.047   4.945  0.5456  0.8641 -0.9437
16812TIP3    H271852   6.540   3.938   4.989  0.0083  1.0074  0.6654
16813TIP3   OH271853   5.349   3.676   2.128 -0.6208  0.3117 -0.1348
16813TIP3    H171854   5.274   3.622   2.102 -0.4588 -0.1136  0.2711
16813TIP3    H271855   5.401   3.685   2.048  2.0284 -4.3477  0.7168
16814TIP3   OH271856   4.327   5.949  11.849 -0.4028 -0.4255  0.5708
16814TIP3    H171857   4.299   6.040  11.839 -3.0025 -1.2823 -0.7913
16814TIP3    H271858   4.419   5.949  11.822 -0.5158  1.6975  0.0289
16815TIP3   OH271859   0.337   0.749   2.246 -0.1094  0.7317  0.1650
16815TIP3    H171860   0.395   0.795   2.306  0.6523 -1.2156  1.0179
16815TIP3    H271861   0.250   0.758   2.285 -0.4165  3.3546 -0.9302
16816TIP3   OH271862   6.538   0.347   0.125 -0.0809 -0.0008 -0.2005
16816TIP3    H171863   6.500   0.383   0.205  0.0747 -0.9861  0.3271
16816TIP3    H271864   6.560   0.257   0.147  0.7930 -0.0170 -1.0851
16817TIP3   OH271865   3.221   5.135   5.337 -0.3004  0.1420 -0.6831
16817TIP3    H171866   3.182   5.113   5.422 -1.5133 -0.9255 -1.4867
16817TIP3    H271867   3.228   5.230   5.338 -1.2675  0.2185  0.2096
16818TIP3   OH271868   4.314   5.386  12.235  0.6487 -0.2147 -0.2616
16818TIP3    H171869   4.251   5.341  12.179 -0.1726 -0.1403  0.5746
16818TIP3    H271870   4.298   5.350  12.322  0.6949  0.9182  0.2329
16819TIP3   OH271871   3.903   1.941  12.960 -0.6460 -0.2687  0.2272
16819TIP3    H171872   3.984   1.937  12.909 -1.3126  0.7634 -0.9754
16819TIP3    H271873   3.931   1.932  13.051  0.9322  1.1116 -0.0866
16820TIP3   OH271874   2.103   0.595  14.994 -0.5519 -0.3716  0.0399
16820TIP3    H171875   2.189   0.618  15.029 -0.3407  1.4447 -1.5008
16820TIP3    H271876   2.049   0.578  15.071  0.7611  0.1619  1.1024
16821TIP3   OH271877   5.697   2.619   0.777  0.0599  0.2531 -0.4507
16821TIP3    H171878   5.628   2.652   0.834 -0.7315 -0.7697 -0.7899
16821TIP3    H271879   5.732   2.542   0.823  0.8365  0.6392 -0.3806
16822TIP3   OH271880   6.634   0.460   2.475 -0.0180  0.3484  0.1106
16822TIP3    H171881   6.595   0.389   2.424 -1.4273 -1.1394  3.0308
16822TIP3    H271882   6.723   0.468   2.440 -0.4694 -1.4230 -1.6547
16823TIP3   OH271883   0.610   3.399   4.507 -0.0974  0.2942 -0.2829
16823TIP3    H171884   0.680   3.382   4.443 -0.4942 -1.7541 -0.2372
16823TIP3    H271885   0.624   3.334   4.575 -0.7716  1.2893  0.8352
16824TIP3   OH271886   2.451   3.456   5.224  0.2822  0.0499  0.5007
16824TIP3    H171887   2.436   3.482   5.133  0.4572  0.8651  0.6940
16824TIP3    H271888   2.429   3.363   5.226  1.6768 -0.3502 -0.7071
16825TIP3   OH271889   3.674   2.587  11.322 -0.6630 -0.1868  0.1843
16825TIP3    H171890   3.766   2.580  11.295 -0.1633  1.7805  1.2268
16825TIP3    H271891   3.633   2.642  11.255 -1.6230 -2.5201 -1.3093
16826TIP3   OH271892   4.948   4.183  11.398 -0.8241 -0.0475 -0.1591
16826TIP3    H171893   4.974   4.111  11.456  0.8702  0.0240 -0.7712
16826TIP3    H271894   4.905   4.139  11.324 -1.4674 -0.2699  0.3382
16827TIP3   OH271895   1.385   2.594   1.757 -0.5464  0.3327  0.7933
16827TIP3    H171896   1.301   2.566   1.720 -0.5649  1.5348 -0.1354
16827TIP3    H271897   1.400   2.680   1.719  0.2454  0.9232  2.3430
16828TIP3   OH271898   6.405   1.903  12.756  0.2608  0.0340  0.1577
16828TIP3    H171899   6.456   1.937  12.830  2.2095  0.2885 -1.2203
16828TIP3    H271900   6.471   1.877  12.692 -1.3647 -0.6152 -1.3181
16829TIP3   OH271901   5.183   0.675   0.182  0.4835 -0.0198  0.0154
16829TIP3    H171902   5.249   0.660   0.114 -1.0642 -2.1931 -1.1496
16829TIP3    H271903   5.196   0.603   0.244  1.4244  1.5450  1.7567
16830TIP3   OH271904   2.278   3.464  11.492  0.0665  0.0126  0.1429
16830TIP3    H171905   2.360   3.486  11.449  0.1927  0.7148  0.7048
16830TIP3    H271906   2.228   3.546  11.489 -0.8604 -0.5648 -0.7201
16831TIP3   OH271907   2.438   5.142   0.719 -0.6727  0.1693  0.0160
16831TIP3    H171908   2.440   5.053   0.755  0.9917 -0.1077 -0.6470
16831TIP3    H271909   2.354   5.148   0.675 -0.0144 -1.8505 -1.7033
16832TIP3   OH271910   0.460   2.688   1.377 -0.3956 -0.0578  0.3709
16832TIP3    H171911   0.380   2.685   1.326 -0.8105  0.9660  0.9154
16832TIP3    H271912   0.476   2.598   1.404 -0.9315 -0.3856 -0.3914
16833TIP3   OH271913   4.290   0.769   0.699  0.4040  0.2610 -0.3652
16833TIP3    H171914   4.227   0.776   0.770  0.6628  1.1082 -0.2028
16833TIP3    H271915   4.274   0.847   0.645  1.4785  0.6535 -0.1646
16834TIP3   OH271916   4.755   1.161  11.993  0.3077  0.6166 -0.0606
16834TIP3    H171917   4.802   1.094  12.043  0.7741  2.2462  1.7893
16834TIP3    H271918   4.689   1.194  12.053  0.9188  2.6709 -0.4519
16835TIP3   OH271919   4.965   3.209  13.827 -0.0031  0.2657 -0.0753
16835TIP3    H171920   5.008   3.247  13.903 -2.1990  0.8291  0.9688
16835TIP3    H271921   4.940   3.121  13.854 -2.5643  1.1278  0.7056
16836TIP3   OH271922   2.454   2.037  14.282  0.3044 -0.6815  0.2070
16836TIP3    H171923   2.495   2.082  14.355  0.4422 -0.6616  0.1197
16836TIP3    H271924   2.518   1.969  14.257  0.6553 -0.1334 -0.4479
16837TIP3   OH271925   3.784   2.198  13.069 -0.0704 -0.5104 -0.2805
16837TIP3    H171926   3.744   2.180  13.154  0.3285 -0.8493 -0.1586
16837TIP3    H271927   3.785   2.113  13.025  1.1980 -0.6621  0.0180
16838TIP3   OH271928   2.412   6.739   5.794 -0.3151 -0.0707  0.4659
16838TIP3    H171929   2.470   6.662   5.797  0.6050  0.6280  1.3347
16838TIP3    H271930   2.470   6.813   5.812 -1.0222  0.9551 -1.2286
16839TIP3   OH271931   1.352   1.590  13.193  0.6902 -0.0901 -0.6563
16839TIP3    H171932   1.395   1.612  13.111  1.6820  1.6235  0.2686
16839TIP3    H271933   1.403   1.518  13.229  3.2700  2.2155  0.6589
16840TIP3   OH271934   4.389   5.454  16.491 -0.6843  0.1454  0.4690
16840TIP3    H171935   4.309   5.507  16.490 -0.0408  1.1548 -1.6008
16840TIP3    H271936   4.459   5.515  16.515  0.0076  0.2050 -1.5437
16841TIP3   OH271937   5.601   3.095   4.280 -0.0707 -0.3856 -0.1065
16841TIP3    H171938   5.523   3.139   4.314 -0.7602 -0.4813 -1.5166
16841TIP3    H271939   5.674   3.147   4.315 -0.7362 -0.3766  1.3428
16842TIP3   OH271940   6.740   0.859   1.995  0.4864 -0.2822 -0.3399
16842TIP3    H171941   6.781   0.857   2.081  1.1305 -0.0424 -0.6359
16842TIP3    H271942   6.662   0.912   2.007  0.6204 -0.1726  0.0779
16843TIP3   OH271943   0.005   0.979   5.043  0.6371 -0.3546  0.0654
16843TIP3    H171944  -0.036   0.909   5.094 -0.0840 -0.4456 -0.6167
16843TIP3    H271945   0.010   0.943   4.954  0.4653  0.3719 -0.2459
16844TIP3   OH271946   1.333   3.400   1.714 -0.9342  0.7151 -0.3415
16844TIP3    H171947   1.406   3.452   1.745 -0.1784  0.1758 -1.1441
16844TIP3    H271948   1.269   3.464   1.682 -0.0329  1.1584 -1.2983
16845TIP3   OH271949   2.788   5.484   3.238 -0.1270  0.5556  0.0037
16845TIP3    H171950   2.812   5.426   3.165 -0.5131 -2.5519  2.1506
16845TIP3    H271951   2.872   5.510   3.276  0.0588  1.7725 -1.1545
16846TIP3   OH271952   0.712   1.873   2.646  0.0441  0.1331  0.4136
16846TIP3    H171953   0.741   1.935   2.712 -1.2460 -0.2777  1.4068
16846TIP3    H271954   0.791   1.853   2.595  0.1691  4.1917 -1.3874
16847TIP3   OH271955   2.900   5.316   3.052  0.1254  0.3356  0.3391
16847TIP3    H171956   2.857   5.257   3.114  0.1392  0.5008  0.5048
16847TIP3    H271957   2.993   5.298   3.061  0.1357  0.4440  0.4525
16848TIP3   OH271958   0.392   3.707   0.165  0.7396  0.1491 -0.2554
16848TIP3    H171959   0.345   3.701   0.082 -2.1554 -1.8284  1.3561
16848TIP3    H271960   0.458   3.637   0.161 -2.1719 -2.9385  0.5060
16849TIP3   OH271961   0.459   2.300   2.314  0.4048  0.5014 -0.3877
16849TIP3    H171962   0.531   2.352   2.349 -0.1167  0.7406  0.3670
16849TIP3    H271963   0.440   2.340   2.229 -0.0138  1.5931  0.1961
16850TIP3   OH271964   5.156   1.714   0.407 -1.0635  0.6704  0.0755
16850TIP3    H171965   5.117   1.743   0.325 -2.1090  1.8541  0.9591
16850TIP3    H271966   5.201   1.792   0.441  0.1687 -0.0621  0.1826
16851TIP3   OH271967   3.341   4.659   5.291  0.5455  0.0725 -0.1174
16851TIP3    H171968   3.328   4.608   5.211  0.9358 -1.6417  0.8653
16851TIP3    H271969   3.434   4.677   5.294  0.8785 -1.5575  0.8684
16852TIP3   OH271970   0.982   0.086   5.780 -0.6339  0.1901 -0.1771
16852TIP3    H171971   0.898   0.078   5.734 -0.7617 -0.8149  0.2138
16852TIP3    H271972   0.973   0.166   5.832 -0.7322  0.9837 -1.3689
16853TIP3   OH271973   4.833   5.452  14.555  0.4507 -0.4476  0.1820
16853TIP3    H171974   4.888   5.435  14.631  1.9472 -2.6851 -1.2526
16853TIP3    H271975   4.870   5.531  14.515  0.4074  0.0530  1.1263
16854TIP3   OH271976   2.672   5.243  16.738  0.7122  0.6062 -0.5932
16854TIP3    H171977   2.579   5.246  16.760  1.2648  1.5172  1.9432
16854TIP3    H271978   2.688   5.325  16.691  0.3815  0.8232 -0.3324
16855TIP3   OH271979   4.251   4.837  14.817  0.0301 -0.5174 -0.1290
16855TIP3    H171980   4.288   4.755  14.850 -1.0828 -1.1270 -0.3777
16855TIP3    H271981   4.213   4.814  14.732  0.0501  0.3463 -0.3807
16856TIP3   OH271982   2.052   1.789  11.165  0.7766  0.1819  0.4240
16856TIP3    H171983   2.146   1.772  11.173  0.6519  0.0292  1.9712
16856TIP3    H271984   2.021   1.793  11.256 -0.4834  1.4973 -0.0200
16857TIP3   OH271985   3.396   0.192   2.373 -0.5911  0.5301  0.0059
16857TIP3    H171986   3.425   0.241   2.296  0.3287  0.1968  0.1281
16857TIP3    H271987   3.310   0.228   2.394  0.3845  2.6932  0.5706
16858TIP3   OH271988   1.030   4.100  16.177  0.3791 -0.2664  0.3076
16858TIP3    H171989   1.074   4.016  16.193  1.3142  0.2388  0.4185
16858TIP3    H271990   0.937   4.077  16.170  0.5972 -1.2794  0.5898
16859TIP3   OH271991   1.792   5.031   5.489 -0.2432  0.0420  0.2789
16859TIP3    H171992   1.848   4.972   5.539  0.6926  1.2426  0.6801
16859TIP3    H271993   1.840   5.114   5.486 -0.7583  0.3255 -1.6953
16860TIP3   OH271994   1.180   2.785  16.613 -0.4832  0.2144 -0.3114
16860TIP3    H171995   1.226   2.701  16.616  0.8753  0.9103 -0.9001
16860TIP3    H271996   1.247   2.849  16.636 -2.1097  0.9547  2.8828
16861TIP3   OH271997   6.648   4.694   5.814  0.1503  0.2614  0.0461
16861TIP3    H171998   6.673   4.651   5.896 -0.7136  0.6890  0.5534
16861TIP3    H271999   6.552   4.691   5.814  0.1464 -0.8707 -1.5850
16862TIP3   OH272000   0.909   5.575  12.993 -0.3933 -0.5031  0.3445
16862TIP3    H172001   0.883   5.587  13.085 -1.0462  0.8452  0.0124
16862TIP3    H272002   0.973   5.504  12.995 -1.3977 -1.4085  1.6747
16863TIP3   OH272003   0.073   3.186  13.667 -0.4129  0.1770 -0.3716
16863TIP3    H172004   0.055   3.280  13.662  0.3089  0.3137 -0.4540
16863TIP3    H272005   0.080   3.158  13.575 -1.5602 -0.1496 -0.3744
16864TIP3   OH272006   4.772   3.471  15.683 -0.4147 -0.4211 -0.2108
16864TIP3    H172007   4.727   3.483  15.600 -0.0026 -0.9140 -0.5171
16864TIP3    H272008   4.822   3.551  15.696 -1.7831  0.3702  0.4121
16865TIP3   OH272009   3.994   1.427   5.306 -0.2008 -0.6133 -0.3474
16865TIP3    H172010   3.979   1.348   5.253 -1.5988  0.1052 -1.0751
16865TIP3    H272011   3.925   1.426   5.372  0.8142 -0.8688  0.7413
16866TIP3   OH272012   6.577   0.830  12.694 -0.0987  0.1416  0.2790
16866TIP3    H172013   6.653   0.884  12.673  0.7104 -0.8041  0.7171
16866TIP3    H272014   6.533   0.877  12.765 -0.4692  1.1659 -0.6026
16867TIP3   OH272015   6.295   0.271  13.923 -0.4366 -0.3189 -0.8577
16867TIP3    H172016   6.278   0.192  13.975  0.0809 -0.1304 -0.3852
16867TIP3    H272017   6.209   0.312  13.912 -0.4277  0.1937  0.7683
16868TIP3   OH272018   5.884   2.215  14.779  0.8754  0.1946 -0.8141
16868TIP3    H172019   5.905   2.171  14.697 -0.7504 -1.0349 -0.6118
16868TIP3    H272020   5.789   2.220  14.781  0.9253  1.6072  0.3090
16869TIP3   OH272021   0.806   5.224  11.860  0.4230 -0.5448 -0.0417
16869TIP3    H172022   0.862   5.233  11.782  2.7735  0.5777  1.6388
16869TIP3    H272023   0.744   5.297  11.853  0.4510 -0.5899 -0.9630
16870TIP3   OH272024   2.420   5.883  10.696 -0.1502 -0.4935  0.8733
16870TIP3    H172025   2.416   5.973  10.729  0.2262 -1.3685  3.6101
16870TIP3    H272026   2.493   5.843  10.744  1.3032 -1.6705 -2.0453
16871TIP3   OH272027   3.318   2.537   0.806  0.4451 -0.3936 -0.3572
16871TIP3    H172028   3.361   2.471   0.861 -0.5953 -0.4930  0.3612
16871TIP3    H272029   3.306   2.612   0.863 -0.8525 -0.5776 -0.3635
16872TIP3   OH272030   3.955   5.953   1.428 -0.1083  0.7965  0.5319
16872TIP3    H172031   3.973   5.910   1.511 -0.4522  0.7575  0.5905
16872TIP3    H272032   3.871   5.915   1.400 -0.2070  1.1274  0.3803
16873TIP3   OH272033   1.811   1.624  14.759 -0.1736  0.1088  0.3165
16873TIP3    H172034   1.740   1.608  14.696 -0.0457 -0.9937  0.4362
16873TIP3    H272035   1.822   1.540  14.804  0.7504  0.4689  0.7738
16874TIP3   OH272036   1.084   1.948   3.901  0.0316  0.4439 -0.4023
16874TIP3    H172037   1.175   1.952   3.931 -0.2795  0.7394  0.5614
16874TIP3    H272038   1.036   2.000   3.965 -0.6091  1.5737 -1.7678
16875TIP3   OH272039   2.992   1.517   1.218  0.2805  0.8349 -0.4399
16875TIP3    H172040   2.998   1.608   1.191 -0.0239  1.2500  0.7938
16875TIP3    H272041   2.957   1.471   1.142  0.4770  1.7404 -1.0898
16876TIP3   OH272042   5.196   0.875  14.047 -0.0908  0.4393 -0.1116
16876TIP3    H172043   5.244   0.796  14.070  0.5734  0.8880  0.0551
16876TIP3    H272044   5.188   0.871  13.952 -4.2157 -2.2263  0.0694
16877TIP3   OH272045   3.518   5.298  12.070 -0.6524 -0.1569  0.1645
16877TIP3    H172046   3.572   5.302  11.991 -0.7485 -0.5317  0.0778
16877TIP3    H272047   3.562   5.234  12.125 -0.6047  0.0799  0.4004
16878TIP3   OH272048   2.733   1.785  14.564 -0.0103  0.3217 -0.2203
16878TIP3    H172049   2.807   1.735  14.528 -0.1741  0.3325 -0.5682
16878TIP3    H272050   2.690   1.823  14.488  0.1287  1.0231  0.0422
16879TIP3   OH272051   6.559   5.514   1.636 -0.2049 -0.9018 -0.2733
16879TIP3    H172052   6.552   5.458   1.558 -0.4906 -1.2815  0.0238
16879TIP3    H272053   6.538   5.602   1.604 -1.3538 -1.2202 -0.4263
16880TIP3   OH272054   0.591   3.278  16.358 -0.5432 -0.2791 -0.6324
16880TIP3    H172055   0.594   3.368  16.391  1.1804 -0.2844 -0.6670
16880TIP3    H272056   0.679   3.263  16.323 -0.3189 -2.4772  0.7327
16881TIP3   OH272057   6.306   0.939   4.611 -0.0873 -0.4762 -0.1437
16881TIP3    H172058   6.253   0.972   4.683 -0.1481  0.3213 -0.5369
16881TIP3    H272059   6.245   0.929   4.538  0.6443  3.0095 -1.4239
16882TIP3   OH272060   4.190   4.180  14.492  0.5448  0.9103 -0.3027
16882TIP3    H172061   4.097   4.164  14.510  1.0014  0.0390  1.4262
16882TIP3    H272062   4.189   4.251  14.427 -1.3319  0.1459 -1.2023
16883TIP3   OH272063   1.155   6.130   2.310  0.0822  0.1511  0.1333
16883TIP3    H172064   1.145   6.212   2.359 -0.6095  0.4565 -0.4899
16883TIP3    H272065   1.094   6.139   2.236  0.0748 -0.8823 -0.0013
16884TIP3   OH272066   4.787   1.680   6.576 -0.2740  0.3759  0.7201
16884TIP3    H172067   4.773   1.767   6.538 -2.1541 -0.4234 -0.5591
16884TIP3    H272068   4.842   1.635   6.512 -0.6141  0.1296  0.5971
16885TIP3   OH272069   3.979   0.745   1.838  0.4122 -0.3995  0.4745
16885TIP3    H172070   3.918   0.677   1.867  0.2917 -0.2389  0.5944
16885TIP3    H272071   3.931   0.827   1.848  0.3228 -0.3454 -0.2781
16886TIP3   OH272072   4.240   0.561  13.980 -0.3024  0.0792 -0.4946
16886TIP3    H172073   4.160   0.604  13.949 -0.3367  1.2114  1.0525
16886TIP3    H272074   4.229   0.469  13.953 -2.9030 -0.1607  1.0525
16887TIP3   OH272075   1.750   0.316   2.140  0.3777 -0.3313  0.9231
16887TIP3    H172076   1.825   0.364   2.176  0.7742 -0.3012  0.0770
16887TIP3    H272077   1.786   0.264   2.069  0.2579 -3.1478  2.7634
16888TIP3   OH272078   6.408   5.759   2.904 -0.4374  0.2503 -0.3476
16888TIP3    H172079   6.447   5.708   2.834 -1.2572 -0.6455 -0.1765
16888TIP3    H272080   6.409   5.700   2.980 -1.2290  0.5536 -0.0941
16889TIP3   OH272081   1.639   3.315   3.621  0.0388 -0.4730  0.0493
16889TIP3    H172082   1.664   3.390   3.675 -0.2140  0.0842 -0.5922
16889TIP3    H272083   1.716   3.258   3.620 -0.0247 -0.5905  1.1530
16890TIP3   OH272084   4.185   3.814  16.535  0.8295 -0.8645 -0.7208
16890TIP3    H172085   4.119   3.864  16.488 -0.9660 -1.8508  0.6196
16890TIP3    H272086   4.199   3.736  16.481 -2.3573 -2.7541  0.9066
16891TIP3   OH272087   2.108   5.032  12.192 -1.1339  0.0916  0.2099
16891TIP3    H172088   2.173   4.992  12.135  0.9181  0.4464  2.1579
16891TIP3    H272089   2.078   5.109  12.144 -1.1509 -0.8203 -1.2987
16892TIP3   OH272090   2.853   2.216  11.070  0.2565 -0.0710 -0.8010
16892TIP3    H172091   2.762   2.196  11.046  0.0035  0.5318 -0.3805
16892TIP3    H272092   2.906   2.168  11.007 -0.3274 -1.5257 -0.2175
16893TIP3   OH272093   2.247   2.297   5.455  0.2253 -0.1007  0.3045
16893TIP3    H172094   2.170   2.245   5.430  0.7419 -0.3717 -0.7591
16893TIP3    H272095   2.226   2.329   5.543 -1.4814  0.5658 -0.3101
16894TIP3   OH272096   3.071   3.722  11.682  0.1978 -0.8345 -0.0610
16894TIP3    H172097   3.091   3.808  11.645 -2.5488 -0.4354 -0.7814
16894TIP3    H272098   3.123   3.718  11.762  1.4801  0.8748 -0.7400
16895TIP3   OH272099   1.217   1.864  15.109 -0.4759 -0.6916 -0.0503
16895TIP3    H172100   1.302   1.856  15.152 -1.7432 -0.9107  2.5930
16895TIP3    H272101   1.195   1.774  15.082 -1.6302 -1.4392  3.0348
16896TIP3   OH272102   0.663   0.253  12.117 -0.2679  0.1005 -0.2760
16896TIP3    H172103   0.696   0.310  12.048  1.7494 -1.6322 -0.8449
16896TIP3    H272104   0.678   0.302  12.198  0.5733  0.7543 -0.8073
16897TIP3   OH272105   3.160   2.811  15.939  0.4680  0.2675 -0.2768
16897TIP3    H172106   3.073   2.823  15.900  0.0670  1.1165  0.8457
16897TIP3    H272107   3.181   2.719  15.923 -0.1487  0.3228 -1.5221
16898TIP3   OH272108   0.384   5.343   6.406 -0.0203 -0.6939  0.2466
16898TIP3    H172109   0.297   5.381   6.395 -0.0359 -0.8828 -0.3223
16898TIP3    H272110   0.444   5.411   6.375  0.0935 -0.2317  1.4352
16899TIP3   OH272111   3.415   3.411  13.582 -0.6601  0.3102  0.7240
16899TIP3    H172112   3.370   3.468  13.644 -0.6689  0.5305  0.5127
16899TIP3    H272113   3.346   3.355  13.546 -0.6837  0.3073  0.7729
16900TIP3   OH272114   0.127   3.799   0.475  0.2586  0.2275  0.5342
16900TIP3    H172115   0.221   3.815   0.470  0.3402 -0.1131  0.9316
16900TIP3    H272116   0.096   3.812   0.385  0.6617  0.4739  0.4300
16901TIP3   OH272117   6.282   3.803  10.885 -0.3070  0.1225  0.0657
16901TIP3    H172118   6.361   3.762  10.919 -0.4462 -0.3860 -0.2110
16901TIP3    H272119   6.251   3.743  10.817 -0.5819  0.6284 -0.2625
16902TIP3   OH272120   6.544   1.785   1.811 -0.0105  0.0446  0.6268
16902TIP3    H172121   6.510   1.874   1.801  0.0449 -0.0375 -0.4179
16902TIP3    H272122   6.548   1.771   1.906  0.6235  1.3910  0.8212
16903TIP3   OH272123   4.680   6.282   2.029  0.3963  0.8013 -0.2506
16903TIP3    H172124   4.769   6.268   1.996 -0.0384 -1.1957 -0.6924
16903TIP3    H272125   4.686   6.262   2.123  0.4585  0.9516 -0.2215
16904TIP3   OH272126   0.732   4.520  15.367 -0.3442 -0.1749 -0.0409
16904TIP3    H172127   0.689   4.457  15.424 -0.6664  0.2142  0.1485
16904TIP3    H272128   0.803   4.557  15.420 -0.8407  0.4164  0.2187
16905TIP3   OH272129   4.392   3.201   1.435  0.2025 -0.2539  0.5373
16905TIP3    H172130   4.460   3.263   1.408 -1.0953  0.3746 -1.5637
16905TIP3    H272131   4.333   3.253   1.490 -0.2944  0.1368 -0.3303
16906TIP3   OH272132   5.061   0.168   2.500 -0.3692 -0.2214 -0.6331
16906TIP3    H172133   5.068   0.077   2.472 -0.0953  0.0170 -1.3574
16906TIP3    H272134   5.134   0.179   2.562  0.9766  0.0822 -2.1957
16907TIP3   OH272135   1.292   0.347   2.055 -0.0364 -0.6284 -0.5475
16907TIP3    H172136   1.220   0.285   2.048  0.3801 -1.0527 -1.1441
16907TIP3    H272137   1.323   0.338   2.145  0.1450 -1.4279 -0.6864
16908TIP3   OH272138   1.003   3.001   2.017 -0.0120 -0.7828 -0.1121
16908TIP3    H172139   1.042   3.078   2.057 -2.5230 -0.3983  1.8929
16908TIP3    H272140   1.015   3.013   1.923  1.2181  1.1398  0.2572
16909TIP3   OH272141   4.683   1.389  15.584 -0.3173 -0.2604 -0.2786
16909TIP3    H172142   4.767   1.406  15.540  0.0623 -0.6837  0.2730
16909TIP3    H272143   4.621   1.446  15.538  0.4797  0.8953  0.0130
16910TIP3   OH272144   1.863   2.205  16.546  0.0176  0.0289 -0.1549
16910TIP3    H172145   1.828   2.292  16.529  1.0403  0.4970  0.0473
16910TIP3    H272146   1.923   2.217  16.620  0.7831 -0.6791 -0.6344
16911TIP3   OH272147   0.595   2.347   5.502  0.5364 -0.2331 -0.6743
16911TIP3    H172148   0.625   2.427   5.460  0.5696  0.0348 -0.1417
16911TIP3    H272149   0.502   2.342   5.481  0.1257  0.8776  0.7547
16912TIP3   OH272150   2.870   0.570  14.314 -0.2614 -0.1079  0.3157
16912TIP3    H172151   2.899   0.554  14.225  0.9116 -0.5920  0.7595
16912TIP3    H272152   2.809   0.499  14.333  0.7832 -0.9923  0.4550
16913TIP3   OH272153   6.709   5.913  13.716  0.2805 -0.2010 -0.1217
16913TIP3    H172154   6.669   5.936  13.632 -0.2313 -1.0286 -0.1190
16913TIP3    H272155   6.786   5.862  13.693 -0.0320 -0.6956 -0.0952
16914TIP3   OH272156   0.850   5.056   1.040 -0.3915 -0.0714 -0.3009
16914TIP3    H172157   0.762   5.077   1.008 -1.7109  1.0836  3.5222
16914TIP3    H272158   0.835   5.007   1.120  2.4556  0.5295  0.7122
16915TIP3   OH272159   3.056   3.194  14.446 -0.1785  0.2792 -0.2438
16915TIP3    H172160   3.068   3.283  14.412  0.3191  0.0448 -0.7022
16915TIP3    H272161   3.105   3.192  14.528 -1.1802  0.7752  0.3888
16916TIP3   OH272162   3.918   6.623   3.893  0.0261 -0.0324  0.2817
16916TIP3    H172163   3.894   6.716   3.896  0.3494  0.0386  1.7098
16916TIP3    H272164   3.844   6.577   3.933  0.0872 -0.3421  0.0451
16917TIP3   OH272165   1.432   4.063  11.227  0.4528  0.5204 -0.3591
16917TIP3    H172166   1.350   4.112  11.225 -0.7354 -1.1315 -4.7426
16917TIP3    H272167   1.412   3.985  11.278 -0.9316 -0.0302 -1.6676
16918TIP3   OH272168   1.547   1.070  16.295 -0.1561 -0.1028  0.7861
16918TIP3    H172169   1.633   1.034  16.319 -0.1282 -0.4608  0.1811
16918TIP3    H272170   1.555   1.090  16.202 -0.5120  0.5183  0.8864
16919TIP3   OH272171   3.487   3.365   2.248  0.5687  0.3122  0.1041
16919TIP3    H172172   3.529   3.442   2.287 -0.0639  1.2067 -0.9345
16919TIP3    H272173   3.397   3.370   2.279  0.6252 -0.2691  0.3779
16920TIP3   OH272174   1.749   6.372   0.861  0.7401  0.1103  0.1794
16920TIP3    H172175   1.789   6.359   0.948  1.3006  2.5233  0.3674
16920TIP3    H272176   1.823   6.374   0.801  0.4908  0.0707 -0.1299
16921TIP3   OH272177   3.881   1.415  14.838 -0.1348 -0.0872  0.0554
16921TIP3    H172178   3.905   1.452  14.923 -0.4821 -0.3559  0.2717
16921TIP3    H272179   3.920   1.328  14.837 -0.8987 -0.4353  0.3133
16922TIP3   OH272180   0.449   5.341   2.267 -0.0247 -0.1875  0.1402
16922TIP3    H172181   0.439   5.393   2.187 -0.6040 -2.5891 -1.4445
16922TIP3    H272182   0.508   5.394   2.322  1.4480  1.0053 -2.3763
16923TIP3   OH272183   2.550   2.351   2.598  0.6031  0.4917 -0.3924
16923TIP3    H172184   2.579   2.287   2.533  0.2681 -0.2454  0.1773
16923TIP3    H272185   2.461   2.324   2.620  0.8405  0.5103  0.6474
16924TIP3   OH272186   2.725   2.031   2.951 -0.5690 -0.4692  0.2098
16924TIP3    H172187   2.726   1.978   3.030  1.9734 -0.2473  0.4174
16924TIP3    H272188   2.759   2.117   2.978  2.0803 -0.8986 -1.3255
16925TIP3   OH272189   2.855   2.096  11.638 -0.3840  0.4647  0.3686
16925TIP3    H172190   2.798   2.055  11.703  0.0791 -1.1247 -0.1797
16925TIP3    H272191   2.818   2.184  11.626 -2.0418 -0.1265  0.8271
16926TIP3   OH272192   6.012   2.638  11.422  0.1165 -0.1946 -0.0222
16926TIP3    H172193   6.058   2.571  11.372 -0.2783 -0.8788  0.5247
16926TIP3    H272194   6.044   2.628  11.511  0.7692  0.9788 -0.1097
16927TIP3   OH272195   5.151   3.882  13.543  0.0612 -0.3378 -0.1256
16927TIP3    H172196   5.193   3.797  13.531  0.3495 -0.6436  2.5454
16927TIP3    H272197   5.063   3.862  13.572 -0.0041  0.2779  0.1100
16928TIP3   OH272198   6.186   4.424   4.711 -0.5967  0.5700 -0.3032
16928TIP3    H172199   6.150   4.343   4.674 -0.6587 -0.5862  2.0770
16928TIP3    H272200   6.170   4.416   4.806  0.8668  2.6261  0.1818
16929TIP3   OH272201   0.135   0.283   0.153 -0.5088 -0.4910  0.0412
16929TIP3    H172202   0.178   0.332   0.223  0.7254 -0.8225 -0.4524
16929TIP3    H272203   0.111   0.349   0.089 -0.3722 -0.3384  0.1462
16930TIP3   OH272204   1.391   2.552  13.882 -0.1665  0.8826 -0.0683
16930TIP3    H172205   1.347   2.493  13.944 -0.1010  0.4028 -0.4670
16930TIP3    H272206   1.400   2.634  13.929 -1.1959  0.8913  0.1444
16931TIP3   OH272207   6.655   0.481  10.609 -0.4994  0.2027  0.6068
16931TIP3    H172208   6.699   0.562  10.637  1.2246 -0.9054  1.2607
16931TIP3    H272209   6.577   0.475  10.665 -0.5335  1.2854  0.6959
16932TIP3   OH272210   6.220   5.361   1.768  0.1565 -0.2752  0.7474
16932TIP3    H172211   6.313   5.360   1.748 -0.3298  0.9736 -1.9522
16932TIP3    H272212   6.201   5.273   1.801  1.8661 -1.2713 -0.8034
16933TIP3   OH272213   1.676   5.672  11.528 -0.4857  0.3131 -0.5087
16933TIP3    H172214   1.633   5.682  11.442  2.4818 -0.8890 -2.2937
16933TIP3    H272215   1.760   5.718  11.518  0.2109 -0.4030  1.5413
16934TIP3   OH272216   2.954   5.285   4.226 -0.0513 -0.7284 -0.3469
16934TIP3    H172217   2.922   5.199   4.196  0.1057 -1.9936  2.7334
16934TIP3    H272218   2.884   5.317   4.283  1.4031 -0.5753  1.4422
16935TIP3   OH272219   4.438   5.450  13.121 -0.6208 -0.2260  0.5571
16935TIP3    H172220   4.507   5.398  13.160  1.1509  2.2059  0.8608
16935TIP3    H272221   4.419   5.406  13.038  2.1925 -0.3238 -0.1263
16936TIP3   OH272222   5.066   0.175   5.258 -0.2650 -0.0552 -0.1344
16936TIP3    H172223   5.159   0.157   5.273  0.3484  2.5609 -0.3381
16936TIP3    H272224   5.051   0.149   5.167 -0.2237 -2.0905  0.3900
16937TIP3   OH272225   2.120   2.005   1.160  0.3417 -0.4969  0.7025
16937TIP3    H172226   2.117   1.924   1.109  0.5794  0.0557 -0.2121
16937TIP3    H272227   2.134   2.074   1.095  1.2074  0.1757  1.5696
16938TIP3   OH272228   6.723   3.259  15.008 -0.0649 -0.6921 -0.2524
16938TIP3    H172229   6.717   3.355  15.011  0.9282 -0.6487  0.8178
16938TIP3    H272230   6.796   3.241  14.949 -2.7157 -0.9571 -3.8255
16939TIP3   OH272231   5.450   0.137  15.589 -0.1283  0.0525  0.1018
16939TIP3    H172232   5.456   0.079  15.513  0.4132 -0.5079  0.5675
16939TIP3    H272233   5.472   0.223  15.554 -3.0241  0.4269 -1.0653
16940TIP3   OH272234   5.185   5.286   2.251 -0.5115  0.3102 -0.8378
16940TIP3    H172235   5.240   5.350   2.206 -0.2208  0.6061 -0.0735
16940TIP3    H272236   5.145   5.235   2.181  0.1614  0.5733 -1.4210
16941TIP3   OH272237   1.267   6.038  15.358  0.0977  0.1277  0.5827
16941TIP3    H172238   1.280   5.985  15.279 -1.6282  1.0715 -0.4068
16941TIP3    H272239   1.353   6.073  15.378  0.6539 -0.4735 -0.6396
16942TIP3   OH272240   6.778   2.704  11.496 -0.0271 -0.0282 -0.6066
16942TIP3    H172241   6.716   2.725  11.427 -0.1349 -0.5872 -0.6880
16942TIP3    H272242   6.732   2.726  11.577 -0.4622 -0.7179 -0.6504
16943TIP3   OH272243   0.501   2.662  15.056  0.0393 -0.0492  0.0564
16943TIP3    H172244   0.527   2.750  15.083 -3.0577  1.0264 -0.1429
16943TIP3    H272245   0.525   2.607  15.131 -0.4133  1.4142  1.3473
16944TIP3   OH272246   0.697   5.619   1.074 -0.3335 -0.0625 -0.1030
16944TIP3    H172247   0.608   5.585   1.087 -0.1382 -0.3919  0.3873
16944TIP3    H272248   0.754   5.553   1.114  0.0849  0.5672  0.3578
16945TIP3   OH272249   3.051   2.738   6.010  0.0705  0.0585 -0.2460
16945TIP3    H172250   2.982   2.799   5.983  0.1893  0.0889 -0.4886
16945TIP3    H272251   3.022   2.704   6.094 -1.6304 -2.0575 -1.5860
16946TIP3   OH272252   0.173   0.479  11.958  0.2304 -0.1168 -0.3209
16946TIP3    H172253   0.131   0.492  12.043  2.2740 -0.9757  0.8973
16946TIP3    H272254   0.122   0.409  11.917  0.1104 -0.7526  0.8599
16947TIP3   OH272255   5.044   0.237  15.430 -0.0290  0.4640  0.3186
16947TIP3    H172256   4.994   0.285  15.496 -0.7022  1.6313 -0.9816
16947TIP3    H272257   5.036   0.290  15.351 -0.6387 -1.6884 -1.1651
16948TIP3   OH272258   3.725   0.888   4.926 -0.4320 -0.6726 -0.2631
16948TIP3    H172259   3.730   0.933   5.010  2.4437  0.4533 -0.9231
16948TIP3    H272260   3.720   0.795   4.949 -3.2474 -0.2904  1.0861
16949TIP3   OH272261   4.703   3.739  16.820 -0.4771 -0.1516  0.7822
16949TIP3    H172262   4.699   3.647  16.794  1.1979 -1.0658  3.3685
16949TIP3    H272263   4.727   3.786  16.740  0.3946 -2.2137 -0.2285
16950TIP3   OH272264   0.980   0.423  13.485 -0.3258  0.0577 -0.2283
16950TIP3    H172265   1.035   0.386  13.416  1.3272 -0.8661  1.4967
16950TIP3    H272266   1.036   0.487  13.530 -1.2634  0.4310  0.4558
16951TIP3   OH272267   2.645   5.584  11.382 -0.2821 -1.0845 -0.1069
16951TIP3    H172268   2.698   5.569  11.304 -0.2913 -0.2494 -0.2766
16951TIP3    H272269   2.649   5.501  11.429 -2.0668 -2.3487 -2.0338
16952TIP3   OH272270   0.312   5.986   6.065 -0.5011  0.0333 -0.4760
16952TIP3    H172271   0.337   6.021   6.151 -0.1136 -1.1420 -0.0904
16952TIP3    H272272   0.296   6.063   6.011  1.3204  0.8138  0.0477
16953TIP3   OH272273   0.030   4.472   1.210 -0.0334 -0.1361 -0.1215
16953TIP3    H172274   0.067   4.528   1.143  0.7058 -0.5009 -0.0261
16953TIP3    H272275  -0.001   4.395   1.163 -1.2206  0.4172 -0.2776
16954TIP3   OH272276   0.139   4.157  15.055 -0.5242  0.2939 -0.3377
16954TIP3    H172277   0.186   4.152  14.972 -0.2148  0.5351 -0.1790
16954TIP3    H272278   0.122   4.250  15.067  1.7682  0.6075  1.1493
16955TIP3   OH272279   6.335   2.781  11.878  0.0847  0.4881  0.1667
16955TIP3    H172280   6.356   2.693  11.848 -0.6487  0.5440 -0.5504
16955TIP3    H272281   6.418   2.828  11.874  0.2505  0.1478 -0.5850
16956TIP3   OH272282   5.744   1.246  13.076 -0.0165 -0.3617  0.3927
16956TIP3    H172283   5.723   1.335  13.046  0.4809 -0.1912  0.5352
16956TIP3    H272284   5.773   1.257  13.166  3.1034 -0.2064 -0.4967
16957TIP3   OH272285   2.564   1.135   0.774  0.3485  0.0193 -0.3011
16957TIP3    H172286   2.566   1.212   0.718  0.5086  0.8323  0.7850
16957TIP3    H272287   2.498   1.155   0.841  2.0894  0.2955  1.4395
16958TIP3   OH272288   3.462   6.617   3.284 -0.0966 -0.2018 -0.1009
16958TIP3    H172289   3.535   6.570   3.325 -0.5465  0.9682  2.2056
16958TIP3    H272290   3.427   6.673   3.354 -0.5982  2.3695 -2.2452
16959TIP3   OH272291   3.680   1.770  16.743  0.3467  0.0608  0.1168
16959TIP3    H172292   3.675   1.847  16.799 -4.0288  0.5924 -0.6966
16959TIP3    H272293   3.631   1.794  16.664  0.5187 -2.8927 -1.0220
16960TIP3   OH272294   2.807   0.176  15.409 -0.7287 -0.1413  0.5719
16960TIP3    H172295   2.799   0.258  15.361 -1.4042 -0.4491  0.1494
16960TIP3    H272296   2.785   0.199  15.499  1.1682  0.5750  0.9017
16961TIP3   OH272297   2.475   6.741  15.093 -0.0016 -0.6453  0.4854
16961TIP3    H172298   2.433   6.737  15.179  2.8758 -2.4848  1.9739
16961TIP3    H272299   2.537   6.813  15.099  2.1166 -2.3995  1.0454
16962TIP3   OH272300   4.798   5.771   3.096 -0.0985  0.2747  0.1343
16962TIP3    H172301   4.714   5.792   3.053 -0.0856 -0.1777 -0.1078
16962TIP3    H272302   4.773   5.747   3.185  0.0063  2.9505  0.9995
16963TIP3   OH272303   5.953   3.614  15.766 -0.0805  0.5368  0.0620
16963TIP3    H172304   6.017   3.580  15.702 -0.3504 -0.3568  0.2507
16963TIP3    H272305   6.007   3.653  15.834  0.2861 -0.3141  0.2763
16964TIP3   OH272306   5.536   1.536   5.081 -0.0278  0.0329  0.1809
16964TIP3    H172307   5.593   1.486   5.022 -0.1297  0.1487 -0.0156
16964TIP3    H272308   5.465   1.475   5.103  0.7826 -0.5319  1.3804
16965TIP3   OH272309   3.770   6.052   5.637  0.0440 -0.4142  0.6715
16965TIP3    H172310   3.780   6.085   5.727 -0.5748  0.7115  0.3454
16965TIP3    H272311   3.856   6.016   5.615 -0.2048 -2.2142  2.2734
16966TIP3   OH272312   2.818   6.762  16.731  0.5987 -0.1961 -0.3355
16966TIP3    H172313   2.831   6.822  16.804 -1.5439 -0.0301 -0.0424
16966TIP3    H272314   2.784   6.817  16.660 -2.6874 -1.1623  0.3578
16967TIP3   OH272315   3.986   0.571  13.823  0.1251 -0.2864  0.2402
16967TIP3    H172316   3.921   0.504  13.846 -1.8181  1.1228 -0.8593
16967TIP3    H272317   3.950   0.652  13.859  0.9504  0.6443 -0.9629
16968TIP3   OH272318   1.336   6.448  14.422  0.4703 -0.1088 -0.1976
16968TIP3    H172319   1.315   6.364  14.381 -0.1082 -0.1723  0.2109
16968TIP3    H272320   1.415   6.431  14.473 -0.3320 -0.7462  0.8845
16969TIP3   OH272321   1.929   1.054  16.778  0.6914  0.1331  0.1073
16969TIP3    H172322   1.840   1.074  16.747  0.6199 -0.9868 -0.4511
16969TIP3    H272323   1.969   1.140  16.791 -0.1072  0.6513 -0.7111
16970TIP3   OH272324   0.998   2.289  14.375  0.0993  0.0225 -0.0508
16970TIP3    H172325   0.992   2.200  14.409 -1.6238 -0.7117 -2.0808
16970TIP3    H272326   1.092   2.306  14.370  0.4642 -1.6696  0.4013
16971TIP3   OH272327   3.230   3.970  12.760  0.0833 -0.2709  0.1479
16971TIP3    H172328   3.312   4.020  12.760 -0.4154  0.5942  1.1008
16971TIP3    H272329   3.257   3.878  12.759  1.0294 -0.0035 -1.5307
16972TIP3   OH272330   2.597   3.398  12.511 -0.4879  0.1765  0.3229
16972TIP3    H172331   2.611   3.364  12.422 -4.6616  0.7189 -0.7384
16972TIP3    H272332   2.579   3.320  12.564  0.2085 -0.0075  0.2960
16973TIP3   OH272333   4.113   3.537  16.563  0.1468  0.7307  0.1343
16973TIP3    H172334   4.040   3.558  16.506 -0.0632 -1.6753 -0.6032
16973TIP3    H272335   4.074   3.528  16.650 -0.5759 -0.9502 -0.3221
16974TIP3   OH272336   2.089   6.607  11.590  0.1776 -0.7032  0.0093
16974TIP3    H172337   2.167   6.610  11.645  1.0859 -0.2417 -1.2599
16974TIP3    H272338   2.064   6.698  11.578 -0.4520 -0.8369  0.2419
16975TIP3   OH272339   5.418   4.285  12.040 -0.6729  0.1415  0.2593
16975TIP3    H172340   5.404   4.374  12.071  0.0214  1.1151 -2.0478
16975TIP3    H272341   5.341   4.267  11.985 -1.4680 -1.2325  1.7139
16976TIP3   OH272342   0.286   4.720  12.664  0.3243 -0.2922  0.2215
16976TIP3    H172343   0.253   4.766  12.587  2.2848 -0.5904 -0.8679
16976TIP3    H272344   0.208   4.697  12.713 -0.9726  0.2465 -1.4791
16977TIP3   OH272345   1.165   6.208   4.319  0.0484 -0.4488 -0.3061
16977TIP3    H172346   1.221   6.285   4.315 -0.0619 -0.4250 -1.7948
16977TIP3    H272347   1.120   6.206   4.234 -1.1223 -1.2779  0.2991
16978TIP3   OH272348   3.981   6.090   2.923  0.3121 -0.4095 -0.3123
16978TIP3    H172349   3.914   6.115   2.860 -0.9606  1.2491  1.5698
16978TIP3    H272350   4.008   6.173   2.963  1.9829 -1.2709  0.4361
16979TIP3   OH272351   6.606   2.990   2.964  0.3500  0.0413  0.1303
16979TIP3    H172352   6.524   3.029   2.934  0.0593 -0.3860  0.3538
16979TIP3    H272353   6.579   2.921   3.024  0.8995  0.3368  0.7242
16980TIP3   OH272354   0.246   6.764   1.750 -0.1931 -0.1933 -0.7261
16980TIP3    H172355   0.236   6.711   1.672 -1.7589 -0.1191 -0.5912
16980TIP3    H272356   0.202   6.715   1.819 -0.9948  0.8918 -0.4372
16981TIP3   OH272357   0.038   4.253  12.697  0.1031 -0.0159 -0.6690
16981TIP3    H172358   0.039   4.219  12.607 -2.1884 -2.0346 -0.0550
16981TIP3    H272359   0.001   4.342  12.688 -0.3607 -0.2912 -1.7087
16982TIP3   OH272360   0.663   5.340   2.082  0.3037  1.0164 -0.3989
16982TIP3    H172361   0.706   5.255   2.073  1.2119  1.3859  0.3850
16982TIP3    H272362   0.699   5.378   2.162 -2.3323  0.8444  1.0137
16983TIP3   OH272363   1.503   3.478  10.976 -0.4659 -0.1254  0.1815
16983TIP3    H172364   1.504   3.452  11.068  0.0879 -2.9469 -0.5322
16983TIP3    H272365   1.589   3.517  10.960 -1.1056  1.8511  1.1397
16984TIP3   OH272366   4.604   5.742  17.110 -0.1035 -0.2202 -0.0517
16984TIP3    H172367   4.535   5.740  17.176 -1.4681 -1.6600 -1.4256
16984TIP3    H272368   4.592   5.826  17.065 -1.8697 -1.0078 -1.1338
16985TIP3   OH272369   2.603   5.350   1.110 -0.5630  0.0229 -0.3311
16985TIP3    H172370   2.673   5.285   1.107  0.1444  0.4617  2.8461
16985TIP3    H272371   2.598   5.384   1.020  2.0559 -1.2909 -1.0932
16986TIP3   OH272372   3.178   2.554   5.300 -0.1139  0.1883  0.7465
16986TIP3    H172373   3.151   2.643   5.278 -2.1457 -0.6643 -0.4832
16986TIP3    H272374   3.097   2.509   5.320  0.8108 -1.5555  0.7324
16987TIP3   OH272375   1.458   4.994   5.727  0.1737 -0.1822 -1.0955
16987TIP3    H172376   1.379   4.983   5.781 -0.8778  0.7912 -2.3904
16987TIP3    H272377   1.515   5.050   5.780 -0.5303  0.1473 -0.6691
16988TIP3   OH272378   0.357   3.470   3.955 -0.4824  0.1484  0.0932
16988TIP3    H172379   0.420   3.461   3.884 -0.1692  0.5638  0.3170
16988TIP3    H272380   0.406   3.446   4.034 -0.1359  1.9905  0.4804
16989TIP3   OH272381   5.606   5.872  15.194 -0.1714 -0.2689  0.1806
16989TIP3    H172382   5.626   5.965  15.197 -0.2926 -0.2655  1.1275
16989TIP3    H272383   5.566   5.853  15.278  1.1727 -1.4731  0.5984
16990TIP3   OH272384   4.711   0.761  15.117  0.4120 -0.0791  0.2344
16990TIP3    H172385   4.756   0.783  15.199 -0.3715  2.7678  0.0201
16990TIP3    H272386   4.638   0.823  15.113 -3.4466 -4.0830  0.3506
16991TIP3   OH272387   6.663   1.006   1.764  0.3294  0.4213  0.6770
16991TIP3    H172388   6.582   1.025   1.812  1.1996  0.3814  2.2052
16991TIP3    H272389   6.714   0.951   1.823  1.8830  1.2056  0.1303
16992TIP3   OH272390   2.131   0.534  11.841  0.2815  0.3630  1.0528
16992TIP3    H172391   2.109   0.607  11.783 -0.5765  1.0304  2.1847
16992TIP3    H272392   2.056   0.475  11.836  0.8747 -0.3701  0.3161
16993TIP3   OH272393   4.896   5.923   6.113 -0.1840 -0.3920 -0.0924
16993TIP3    H172394   4.878   5.982   6.186  0.4223  0.1621 -0.3895
16993TIP3    H272395   4.811   5.883   6.093 -0.3133 -0.7512  1.0826
16994TIP3   OH272396   0.888   6.005  16.831  0.4151 -0.1938  0.4758
16994TIP3    H172397   0.816   6.053  16.873 -0.0574 -0.1651 -0.3459
16994TIP3    H272398   0.952   5.993  16.901 -1.0216 -1.5298  1.6305
16995TIP3   OH272399   0.789   1.015  10.733  0.0311 -0.0557 -0.1267
16995TIP3    H172400   0.767   0.925  10.758 -1.9618  1.0154  2.3751
16995TIP3    H272401   0.736   1.031  10.655 -0.6810 -0.6219  0.2210
16996TIP3   OH272402   3.969   3.294   0.593 -0.0231 -0.4674 -0.3754
16996TIP3    H172403   3.921   3.343   0.526 -2.5086 -4.8397 -2.2275
16996TIP3    H272404   3.907   3.284   0.665  0.4000 -0.9959 -0.0781
16997TIP3   OH272405   4.837   4.402  14.313 -0.5348 -0.1413 -0.1591
16997TIP3    H172406   4.769   4.461  14.279 -2.0358 -1.3881  0.5498
16997TIP3    H272407   4.835   4.414  14.407  0.5946  0.1566 -0.1612
16998TIP3   OH272408   2.322   1.825  13.973 -0.3403 -0.3717  0.2380
16998TIP3    H172409   2.333   1.896  14.035 -0.9682 -0.7698  0.8204
16998TIP3    H272410   2.348   1.746  14.021 -0.4315 -0.6342 -0.1364
16999TIP3   OH272411   1.656   1.889  13.681  0.3614 -0.8262 -0.2410
16999TIP3    H172412   1.633   1.860  13.593  1.8425  0.1443 -0.9860
16999TIP3    H272413   1.751   1.886  13.684  0.4218  0.7351  0.7455
17000TIP3   OH272414   0.586   4.543  10.656  0.1420 -0.1236  0.3157
17000TIP3    H172415   0.647   4.469  10.648 -0.4540 -0.8173  1.7540
17000TIP3    H272416   0.600   4.594  10.577  0.0809 -2.1546 -1.0945
17001TIP3   OH272417   4.476   3.884   3.958 -0.2819 -0.3998 -0.0123
17001TIP3    H172418   4.477   3.800   4.004  0.5371 -0.2291  0.3075
17001TIP3    H272419   4.565   3.894   3.925 -0.7575 -0.3374 -1.3214
17002TIP3   OH272420   6.662   1.481  17.067  0.3071  0.5293  0.2913
17002TIP3    H172421   6.618   1.423  17.130 -0.2739 -0.7685 -1.2145
17002TIP3    H272422   6.743   1.435  17.045 -1.0084 -0.8008 -2.3166
17003TIP3   OH272423   3.200   0.735  11.162  0.0300  0.3526  0.3882
17003TIP3    H172424   3.183   0.691  11.246  0.9299 -0.4624  0.1628
17003TIP3    H272425   3.113   0.749  11.124 -0.2999 -1.2125  0.4951
17004TIP3   OH272426   4.134   2.163   1.076 -0.3971  0.0057  0.1730
17004TIP3    H172427   4.187   2.176   1.155  1.1335 -0.2904 -0.7665
17004TIP3    H272428   4.044   2.169   1.107  0.1582 -0.4133  1.9966
17005TIP3   OH272429   5.386   2.195   5.039  0.1699  0.1301 -0.0364
17005TIP3    H172430   5.438   2.245   4.976  0.8216  0.6612  0.9005
17005TIP3    H272431   5.317   2.256   5.066  0.6518  0.3550  0.7117
17006TIP3   OH272432   0.643   3.121  11.491  0.0721  0.0282  0.6883
17006TIP3    H172433   0.581   3.048  11.491 -1.8703  1.5924  0.8022
17006TIP3    H272434   0.701   3.104  11.416 -2.9451  0.4077 -1.9434
17007TIP3   OH272435   3.918   2.029   3.759  0.4197  0.0278 -0.0621
17007TIP3    H172436   3.869   2.053   3.838 -1.5839  0.3214 -1.3205
17007TIP3    H272437   3.945   1.938   3.774 -1.6479 -0.5951  0.2115
17008TIP3   OH272438   3.164   5.508   1.817 -0.4932 -0.3785 -0.6923
17008TIP3    H172439   3.135   5.540   1.731 -2.5823  1.2786  0.5149
17008TIP3    H272440   3.189   5.587   1.865  1.7556 -1.3744 -0.0842
17009TIP3   OH272441   4.874   2.564  15.010  0.2184 -0.2768 -0.5373
17009TIP3    H172442   4.870   2.513  14.929  0.9492 -2.7063  0.8277
17009TIP3    H272443   4.968   2.581  15.022  0.0275  0.9363 -0.6749
17010TIP3   OH272444   5.759   6.454  16.155  0.5310 -0.3978  0.8071
17010TIP3    H172445   5.699   6.441  16.228 -0.0900 -0.2842  0.3303
17010TIP3    H272446   5.721   6.527  16.105  0.2033 -1.3348 -0.3616
17011TIP3   OH272447   3.854   3.375  11.689 -0.1421  0.0020 -0.0540
17011TIP3    H172448   3.840   3.284  11.716  0.6845  0.4531  2.0406
17011TIP3    H272449   3.940   3.398  11.724 -0.1245  1.4635 -0.9728
17012TIP3   OH272450   1.624   4.686  16.665  0.1756 -0.1637 -0.1824
17012TIP3    H172451   1.568   4.703  16.741  1.8976 -0.4922  1.2153
17012TIP3    H272452   1.682   4.762  16.661 -0.0810 -0.0060 -1.3890
17013TIP3   OH272453   2.058   2.089  15.592  0.2253  0.1402 -0.2213
17013TIP3    H172454   2.078   2.016  15.534  0.2267  2.0199 -2.7087
17013TIP3    H272455   2.132   2.091  15.654 -0.0539 -2.2400  0.3057
17014TIP3   OH272456   3.993   5.268   0.321  0.1031  0.7497 -0.0709
17014TIP3    H172457   4.001   5.356   0.285  1.8059  1.6069  2.1612
17014TIP3    H272458   4.083   5.239   0.336 -0.3777 -1.6292 -1.1988
17015TIP3   OH272459   2.527   6.076  14.288  0.6498 -0.2761  0.6035
17015TIP3    H172460   2.487   6.149  14.240  1.6094  0.2822  0.6367
17015TIP3    H272461   2.466   6.058  14.359 -0.6292 -0.8903 -0.6011
17016TIP3   OH272462   3.685   3.304  15.729  0.2241 -0.6603  0.9641
17016TIP3    H172463   3.604   3.280  15.774 -1.3395 -0.2185 -1.4320
17016TIP3    H272464   3.696   3.236  15.662  1.8066 -0.6353  1.1569
17017TIP3   OH272465   6.127   1.987   3.662  0.1793  0.2971  0.0241
17017TIP3    H172466   6.106   2.052   3.729 -1.8093  0.0165 -0.2660
17017TIP3    H272467   6.048   1.982   3.608  0.9008 -1.1477 -0.9599
17018TIP3   OH272468   2.755   2.431   4.628  0.1741 -0.2090 -0.3541
17018TIP3    H172469   2.749   2.496   4.698  0.2215  1.6139 -1.9611
17018TIP3    H272470   2.678   2.447   4.574  0.2119 -1.4825 -0.8081
17019TIP3   OH272471   0.303   5.224   0.836 -0.1255 -0.6228 -0.2508
17019TIP3    H172472   0.398   5.224   0.828 -0.2324 -1.4395 -2.1089
17019TIP3    H272473   0.285   5.181   0.920  1.1327  0.2842  0.5078
17020TIP3   OH272474   2.853   6.377  16.919  0.2785 -0.1769 -0.6773
17020TIP3    H172475   2.885   6.294  16.885 -0.5653 -0.3874 -0.9962
17020TIP3    H272476   2.931   6.423  16.948  0.9336 -0.3747 -2.0536
17021TIP3   OH272477   1.244   4.227   1.995 -0.1186  0.1811 -0.3454
17021TIP3    H172478   1.277   4.238   2.085  0.1790 -1.6909 -0.1757
17021TIP3    H272479   1.153   4.257   1.999 -0.4704 -0.9146  0.9064
17022TIP3   OH272480   3.707   0.491  13.592 -0.0115  0.8202  0.3600
17022TIP3    H172481   3.764   0.431  13.640  0.5284  0.3983 -0.7722
17022TIP3    H272482   3.620   0.475  13.627  0.0632 -0.9153 -0.2030
17023TIP3   OH272483   1.100   6.325   1.424  0.2033  0.0929 -0.2538
17023TIP3    H172484   1.058   6.357   1.345  0.9143 -1.7908 -1.4787
17023TIP3    H272485   1.076   6.232   1.428  0.9295 -0.0659  1.2368
17024TIP3   OH272486   0.402   1.270   5.237 -0.3033 -0.1148  0.5934
17024TIP3    H172487   0.434   1.324   5.309  2.2906  0.0727 -0.6048
17024TIP3    H272488   0.425   1.180   5.262  2.9658  0.1419 -0.9655
17025TIP3   OH272489   0.572   4.975   2.429  0.0046 -0.0532 -0.2465
17025TIP3    H172490   0.587   5.006   2.519  2.5014  0.1624 -0.6523
17025TIP3    H272491   0.488   5.013   2.404  0.8857  2.8625  0.8208
17026TIP3   OH272492   5.600   0.272   3.081 -0.1509 -0.2753  0.4571
17026TIP3    H172493   5.515   0.228   3.079 -0.0421 -0.4683 -0.2804
17026TIP3    H272494   5.643   0.236   3.159 -0.2448 -1.1514  0.1216
17027TIP3   OH272495   2.175   0.170   0.674 -0.6949  0.0867  0.1935
17027TIP3    H172496   2.200   0.260   0.651  2.1974 -0.7312 -0.2523
17027TIP3    H272497   2.120   0.141   0.602 -3.0601  1.9385  1.1038
17028TIP3   OH272498   4.206   0.158  17.089  0.1172 -0.8705  0.2545
17028TIP3    H172499   4.196   0.250  17.114 -0.0532 -0.9743  0.5793
17028TIP3    H272500   4.298   0.138  17.109  0.6071 -0.3285 -1.3340
17029TIP3   OH272501   0.267   4.495   0.577  0.1219  0.0119  0.3901
17029TIP3    H172502   0.347   4.480   0.526  0.7053 -0.4434  1.4188
17029TIP3    H272503   0.245   4.587   0.562 -1.0089 -0.5971 -2.4875
17030TIP3   OH272504   3.499   2.360  15.557  0.9401  0.5965 -0.1522
17030TIP3    H172505   3.485   2.346  15.463 -0.3558 -2.1044  0.3364
17030TIP3    H272506   3.587   2.327  15.573  0.1372 -1.6944 -0.0460
17031TIP3   OH272507   0.440   6.589   3.702  0.7326  0.4803 -0.0073
17031TIP3    H172508   0.492   6.668   3.685 -0.1670  0.9984 -0.4428
17031TIP3    H272509   0.465   6.529   3.632  2.3055 -0.1052  1.0029
17032TIP3   OH272510   4.423   0.306  11.909  0.4373  0.0200 -0.4073
17032TIP3    H172511   4.443   0.231  11.853  0.5223 -0.2820  0.0184
17032TIP3    H272512   4.503   0.318  11.961 -0.7120 -1.8077  2.0078
17033TIP3   OH272513   0.989   2.700   0.805  0.2558 -0.1106 -0.1187
17033TIP3    H172514   0.898   2.695   0.836 -0.2462 -0.4003 -1.5765
17033TIP3    H272515   1.005   2.794   0.793 -0.3579 -0.1347 -1.2447
17034TIP3   OH272516   2.615   4.334  17.081 -0.3097 -0.2389  0.1875
17034TIP3    H172517   2.545   4.274  17.055  0.3399 -0.7248 -0.4933
17034TIP3    H272518   2.685   4.277  17.113 -0.0993  0.2191  0.5605
17035TIP3   OH272519   3.399   5.133  13.215 -0.0047 -0.2755 -0.5324
17035TIP3    H172520   3.433   5.222  13.213  0.7572 -0.5079  1.0239
17035TIP3    H272521   3.477   5.078  13.230 -0.6334 -1.0901 -0.1884
17036TIP3   OH272522   2.325   4.655  16.935  0.1190 -0.7172  0.0271
17036TIP3    H172523   2.253   4.684  16.992  1.5875  1.2570  1.0136
17036TIP3    H272524   2.300   4.684  16.848  0.2390  1.1978  0.5652
17037TIP3   OH272525   4.554   1.471   3.173 -0.6350  0.4233  0.2018
17037TIP3    H172526   4.520   1.438   3.089  1.2805  0.7635 -0.7574
17037TIP3    H272527   4.510   1.555   3.184 -0.6829  0.5191 -0.6194
17038TIP3   OH272528   6.135   4.335  11.761 -0.0179  0.0829  0.2479
17038TIP3    H172529   6.216   4.338  11.813 -0.3004  0.3848  0.6820
17038TIP3    H272530   6.065   4.340  11.827 -0.4515 -2.3768  0.0882
17039TIP3   OH272531   2.814   5.707   3.564 -0.9907 -0.0079  0.1841
17039TIP3    H172532   2.823   5.774   3.632  0.8262  0.1327 -0.1410
17039TIP3    H272533   2.903   5.693   3.532 -1.4275 -2.1229 -0.2253
17040TIP3   OH272534   6.395   1.656  16.493  0.2501  0.1429 -0.2799
17040TIP3    H172535   6.415   1.745  16.464  1.0198  0.3119  0.7158
17040TIP3    H272536   6.478   1.622  16.526  0.3242 -1.4820 -1.9454
17041TIP3   OH272537   5.836   4.634   4.398 -0.4377 -1.0610 -0.1403
17041TIP3    H172538   5.833   4.582   4.479 -0.3265 -1.5509 -0.4451
17041TIP3    H272539   5.783   4.584   4.336 -0.4738 -0.7172 -0.3872
17042TIP3   OH272540   0.788   4.896  11.111  0.0227 -0.2759 -0.1509
17042TIP3    H172541   0.756   4.951  11.039  1.6840  1.8754  0.6314
17042TIP3    H272542   0.852   4.838  11.070 -0.9035 -0.8659 -0.8045
17043TIP3   OH272543   0.963   3.883  12.798  0.0115  0.0977 -0.1799
17043TIP3    H172544   0.869   3.864  12.793 -0.1134  0.1660  1.4664
17043TIP3    H272545   1.004   3.797  12.798 -0.2311 -0.0555  1.7059
17044TIP3   OH272546   2.142   2.617  12.037  0.2642  0.1419 -0.1258
17044TIP3    H172547   2.191   2.535  12.025 -0.9694 -0.7847  0.9832
17044TIP3    H272548   2.111   2.639  11.949  2.5724  0.7372 -0.8649
17045TIP3   OH272549   2.393   0.052   5.190 -0.2908 -0.1577  0.0474
17045TIP3    H172550   2.426   0.138   5.165 -0.2689 -0.0007  0.6210
17045TIP3    H272551   2.312   0.043   5.140 -0.5085  0.3687  0.3012
17046TIP3   OH272552   6.777   3.738  14.277 -0.6910  0.4989  0.0954
17046TIP3    H172553   6.845   3.687  14.233 -0.5600  0.1296  0.7011
17046TIP3    H272554   6.812   3.827  14.281  1.0191 -0.1666  2.7744
17047TIP3   OH272555   4.175   4.901  14.289 -0.2704  0.0736  0.6864
17047TIP3    H172556   4.173   4.992  14.260  1.6417 -0.1106 -0.2334
17047TIP3    H272557   4.110   4.857  14.235  0.4630  0.4925 -0.5962
17048TIP3   OH272558   5.772   2.990   5.637 -0.1787 -0.1422  0.5497
17048TIP3    H172559   5.854   2.963   5.595  0.2374  1.1217  0.5239
17048TIP3    H272560   5.750   3.074   5.596 -0.3440  0.5855  2.0724
17049TIP3   OH272561   0.668   5.747   3.616 -0.6608 -0.3839  0.0854
17049TIP3    H172562   0.582   5.720   3.647 -1.6224 -1.4293 -3.0635
17049TIP3    H272563   0.712   5.665   3.593  0.3416  0.2495 -0.3548
17050TIP3   OH272564   2.788   0.878  11.806 -0.2801  0.4165  0.0802
17050TIP3    H172565   2.879   0.902  11.790 -0.2876  0.8580  0.6584
17050TIP3    H272566   2.789   0.840  11.894 -0.4700 -0.6101 -0.3543
17051TIP3   OH272567   5.081   1.106   6.229 -0.3921  0.3880 -0.5692
17051TIP3    H172568   5.081   1.202   6.226  1.2027  0.4485  0.0814
17051TIP3    H272569   5.164   1.081   6.189 -0.8757 -0.7471 -0.9023
17052TIP3   OH272570   0.127   4.299   5.596 -0.1521 -0.1273  0.4222
17052TIP3    H172571   0.185   4.299   5.520  0.1740  0.4168  0.6648
17052TIP3    H272572   0.180   4.264   5.667 -0.5930 -1.0682  0.3150
17053TIP3   OH272573   3.588   6.187  13.303  0.5187 -0.2197 -0.1975
17053TIP3    H172574   3.501   6.150  13.290  0.5735 -0.3758 -0.1176
17053TIP3    H272575   3.574   6.282  13.302  0.4285 -0.2313 -0.7429
17054TIP3   OH272576   4.667   4.400  13.243 -0.5322  0.8558 -0.5142
17054TIP3    H172577   4.622   4.321  13.213 -0.0568  0.4505 -0.1723
17054TIP3    H272578   4.755   4.370  13.268 -1.2589  0.9001  2.5205
17055TIP3   OH272579   3.189   1.865   5.955  0.3060 -0.7078 -0.1557
17055TIP3    H172580   3.141   1.830   6.031  1.3461 -1.6054  0.1033
17055TIP3    H272581   3.120   1.902   5.899 -0.6099 -1.1818  0.6183
17056TIP3   OH272582   2.501   3.895   2.117  0.1219 -0.1920 -0.1991
17056TIP3    H172583   2.531   3.900   2.208 -1.5363  1.6754  0.3233
17056TIP3    H272584   2.417   3.848   2.122 -0.2153  0.3433 -0.6789
17057TIP3   OH272585   6.768   5.636   5.137  0.8996  0.3661 -0.3394
17057TIP3    H172586   6.855   5.677   5.128  0.8551  0.6760  0.5754
17057TIP3    H272587   6.744   5.650   5.228  0.8435 -1.6513  0.0086
17058TIP3   OH272588   0.597   3.007  15.972  0.0458 -0.0785  0.2454
17058TIP3    H172589   0.539   3.034  15.901  2.1151  2.9767 -0.4914
17058TIP3    H272590   0.547   3.021  16.052 -1.0274  0.1379 -0.4448
17059TIP3   OH272591   0.299   0.510   3.438 -0.1291 -0.6401 -0.4786
17059TIP3    H172592   0.391   0.522   3.463 -0.4304 -0.1591  0.4472
17059TIP3    H272593   0.302   0.488   3.345  0.9008 -0.2939 -0.5381
17060TIP3   OH272594   0.382   1.005   0.884 -0.2653  0.1026 -0.6733
17060TIP3    H172595   0.303   0.955   0.905 -1.7765  1.6200 -2.3337
17060TIP3    H272596   0.427   0.952   0.819 -0.2711 -0.4714 -0.2130
17061TIP3   OH272597   1.624   2.445  14.609  0.2689 -0.1342 -0.0043
17061TIP3    H172598   1.592   2.357  14.628  0.7881 -0.6157 -1.2893
17061TIP3    H272599   1.666   2.473  14.690 -0.9958 -0.5531  0.8323
17062TIP3   OH272600   3.109   4.670   1.540 -0.6735 -0.3822  0.1594
17062TIP3    H172601   3.197   4.664   1.577 -0.9549  1.3091  1.1617
17062TIP3    H272602   3.105   4.597   1.478  0.4710 -2.1927  2.0696
17063TIP3   OH272603   3.668   0.811  15.527 -0.9932  0.1192  0.5761
17063TIP3    H172604   3.723   0.743  15.488  0.6858  1.9915 -0.5370
17063TIP3    H272605   3.613   0.765  15.590  2.9612 -1.7369  3.0412
17064TIP3   OH272606   0.586   5.189  13.941  0.2061 -0.4512 -0.1010
17064TIP3    H172607   0.531   5.255  13.900 -0.0617 -0.3452  0.4166
17064TIP3    H272608   0.589   5.214  14.034 -1.5000 -2.2145  0.4980
17065TIP3   OH272609   1.371   1.771   5.571  0.5924 -0.0273  0.4473
17065TIP3    H172610   1.336   1.788   5.483  1.4165 -1.0475 -0.1096
17065TIP3    H272611   1.314   1.702   5.606 -0.3574  1.0764  1.1425
17066TIP3   OH272612   1.513   2.522   2.815  0.3889  0.5249 -0.5588
17066TIP3    H172613   1.434   2.536   2.764 -0.4436 -0.3318  0.4679
17066TIP3    H272614   1.584   2.532   2.752 -0.5735  0.3277 -1.6940
17067TIP3   OH272615   1.824   2.706   2.251 -0.1742  0.1593 -0.4385
17067TIP3    H172616   1.825   2.773   2.319  1.2646 -0.5104  0.2474
17067TIP3    H272617   1.731   2.689   2.235 -0.5643  0.2505  1.4635
17068TIP3   OH272618   4.865   0.788   2.430  0.1042 -0.6902 -0.1552
17068TIP3    H172619   4.796   0.733   2.393  0.8406 -0.4693 -1.9999
17068TIP3    H272620   4.946   0.753   2.392  0.6879  1.0387 -0.6001
17069TIP3   OH272621   2.008   0.210  13.129 -0.2443 -0.2917 -0.9538
17069TIP3    H172622   2.032   0.178  13.042 -1.4372  0.6966 -1.6745
17069TIP3    H272623   2.047   0.298  13.133 -2.9771  1.0841 -1.8977
17070TIP3   OH272624   2.814   1.687  10.749  0.2823  0.0694  0.4366
17070TIP3    H172625   2.790   1.763  10.803  2.3843 -0.4781  2.3266
17070TIP3    H272626   2.741   1.677  10.688 -0.0824  3.5786  0.0946
17071TIP3   OH272627   2.561   0.212  16.827  0.3131  0.2357  0.6592
17071TIP3    H172628   2.616   0.283  16.792  2.3393 -1.4428  0.2056
17071TIP3    H272629   2.519   0.174  16.750  0.7190 -0.2123  0.6516
17072TIP3   OH272630   2.232   2.797  12.510  0.3445  0.0557  0.0925
17072TIP3    H172631   2.256   2.885  12.481  0.4161  0.5683  1.6213
17072TIP3    H272632   2.138   2.790  12.492  0.5418  0.0427 -0.9806
17073TIP3   OH272633   6.186   2.603  13.519  0.0639 -0.2485 -0.1500
17073TIP3    H172634   6.142   2.540  13.576  0.0938 -1.3795 -1.3079
17073TIP3    H272635   6.124   2.675  13.509 -1.9880 -2.1486 -2.3655
17074TIP3   OH272636   0.012   6.036   2.750 -0.1887  0.5229 -0.7065
17074TIP3    H172637   0.065   5.957   2.738  0.5292  0.4099  2.3938
17074TIP3    H272638  -0.052   6.033   2.679  0.2888 -2.4563 -1.1350
17075TIP3   OH272639   0.262   1.767   1.176 -0.1352  0.2524 -0.5541
17075TIP3    H172640   0.180   1.738   1.216 -0.5148 -1.8831 -2.6552
17075TIP3    H272641   0.328   1.756   1.244 -1.3281  0.4613  0.6679
17076TIP3   OH272642   0.552   5.634   3.879 -0.4774  0.1419 -0.0165
17076TIP3    H172643   0.527   5.677   3.961 -0.3980 -0.3566  0.2741
17076TIP3    H272644   0.481   5.657   3.818  0.3141  1.9331 -0.3217
17077TIP3   OH272645   2.476   5.171  12.510  0.2435 -0.2787 -0.2180
17077TIP3    H172646   2.544   5.103  12.501 -0.6409 -1.7589  2.7067
17077TIP3    H272647   2.515   5.236  12.568 -0.1918 -0.2145  0.0082
17078TIP3   OH272648   5.517   0.104   2.498  0.0649  0.2984  0.4152
17078TIP3    H172649   5.454   0.033   2.490  0.1555  0.0408  1.7866
17078TIP3    H272650   5.496   0.145   2.582  2.9242 -1.0288  1.9040
17079TIP3   OH272651   0.251   4.981  15.006  0.5149 -0.5381 -0.5186
17079TIP3    H172652   0.308   4.959  15.080 -0.1932  2.8223  1.2387
17079TIP3    H272653   0.307   5.032  14.947  0.3807 -0.9519 -1.0205
17080TIP3   OH272654   4.320   0.630   4.102 -0.0724 -0.0271  0.2408
17080TIP3    H172655   4.379   0.704   4.111  1.2506 -0.8766 -1.0482
17080TIP3    H272656   4.377   0.553   4.103 -1.1200 -0.8749 -1.2211
17081TIP3   OH272657   2.192   5.409  14.768 -0.1493 -0.0191 -0.7748
17081TIP3    H172658   2.203   5.384  14.676  0.6138 -2.7726 -0.0405
17081TIP3    H272659   2.280   5.400  14.806 -0.8466 -1.1469  0.6699
17082TIP3   OH272660   5.771   5.190  16.007 -0.3433 -0.6584 -0.2016
17082TIP3    H172661   5.787   5.137  15.930 -1.2938 -0.7381 -0.3627
17082TIP3    H272662   5.799   5.278  15.982  1.7975 -1.1490  0.2694
17083TIP3   OH272663   3.747   3.064   6.001 -0.2119  0.0377  0.6795
17083TIP3    H172664   3.684   3.082   5.932 -0.3365 -0.9129  0.5195
17083TIP3    H272665   3.791   3.147   6.017 -0.1125  0.2514 -0.6062
17084TIP3   OH272666   0.523   1.020   5.844  0.0214  0.0005  0.0419
17084TIP3    H172667   0.499   1.060   5.760  1.7413 -2.3634 -1.7283
17084TIP3    H272668   0.487   0.932   5.840  0.4945 -0.3023  1.6164
17085TIP3   OH272669   5.900   3.504  11.906  0.5014  0.1656 -0.8489
17085TIP3    H172670   5.938   3.547  11.982  0.7676  0.5623 -1.2033
17085TIP3    H272671   5.806   3.519  11.914  0.4546 -0.4009 -0.2271
17086TIP3   OH272672   0.968   6.700   0.084 -0.1808 -0.4089  0.0524
17086TIP3    H172673   0.935   6.610   0.077  1.7443 -1.2366  0.9531
17086TIP3    H272674   1.042   6.703   0.023  0.0256  0.4371  0.3387
17087TIP3   OH272675   2.004   6.694  15.549 -0.3457 -0.3510 -0.1300
17087TIP3    H172676   1.936   6.639  15.588 -0.3964 -0.5590 -0.5110
17087TIP3    H272677   2.058   6.634  15.497 -0.2412 -0.0871 -0.3304
17088TIP3   OH272678   3.042   6.168  16.885  0.1700  0.2066 -0.2533
17088TIP3    H172679   3.099   6.141  16.813  1.5013  1.5804  0.2204
17088TIP3    H272680   3.095   6.155  16.964 -0.0265  1.7826  0.1789
17089TIP3   OH272681   5.939   4.815  15.484 -0.3868 -0.0846 -0.5786
17089TIP3    H172682   5.990   4.885  15.526 -1.2846  0.7637 -0.8403
17089TIP3    H272683   5.997   4.739  15.485  0.3652  0.4690  0.3558
17090TIP3   OH272684   0.703   6.150   3.026  0.0835 -0.3966  0.3211
17090TIP3    H172685   0.642   6.219   3.053  2.4363  2.0808 -0.2582
17090TIP3    H272686   0.646   6.079   2.995 -2.4969  1.3938  0.5753
17091TIP3   OH272687   1.060   6.347   0.572 -0.0139 -0.3227  0.0298
17091TIP3    H172688   0.979   6.393   0.597 -0.9194 -2.5298  1.5024
17091TIP3    H272689   1.102   6.405   0.508  0.0580  3.6123  3.2106
17092TIP3   OH272690   4.274   1.720  16.790 -0.0287  0.0130 -0.0374
17092TIP3    H172691   4.320   1.714  16.706  0.1528 -0.9454  0.1180
17092TIP3    H272692   4.264   1.629  16.818  0.6421  0.3564  1.3720
17093TIP3   OH272693   2.669   2.904   0.643 -0.4026  0.4500 -0.4700
17093TIP3    H172694   2.728   2.963   0.689  1.0062 -0.0630 -1.5193
17093TIP3    H272695   2.723   2.827   0.623 -0.9513  0.5783 -2.7842
17094TIP3   OH272696   0.537   6.561  14.450 -0.0410  0.0070 -0.3297
17094TIP3    H172697   0.583   6.568  14.534 -0.0398 -0.2793 -0.3025
17094TIP3    H272698   0.598   6.511  14.395  0.0317  0.3484 -0.5547
17095TIP3   OH272699   6.092   1.663   4.908  0.0940  0.4119  0.1570
17095TIP3    H172700   6.016   1.651   4.964 -1.6754  0.6177 -2.0581
17095TIP3    H272701   6.078   1.603   4.835  0.2884  2.7441 -1.9575
17096TIP3   OH272702   4.666   2.813   4.495  0.4975 -0.2627  0.3343
17096TIP3    H172703   4.694   2.786   4.582  1.8616 -0.6782 -0.2187
17096TIP3    H272704   4.744   2.807   4.441 -0.0293  1.1767 -0.6562
17097TIP3   OH272705   1.946   2.338   6.003  0.4324 -0.3493  0.0925
17097TIP3    H172706   1.937   2.268   5.939 -1.2801 -0.4859  0.4336
17097TIP3    H272707   1.954   2.418   5.950 -0.4245 -0.5140 -0.2948
17098TIP3   OH272708   2.262   3.917   1.274 -0.1784 -0.2701  0.4268
17098TIP3    H172709   2.313   3.938   1.352  1.3024  2.3886 -1.1297
17098TIP3    H272710   2.184   3.873   1.308  0.9961 -0.3991  3.2580
17099TIP3   OH272711   4.763   2.259  15.184 -0.2608 -0.2308  0.7884
17099TIP3    H172712   4.719   2.176  15.203 -2.5689  1.1935  2.1131
17099TIP3    H272713   4.760   2.307  15.266  3.2187  0.3352  0.7590
17100TIP3   OH272714   5.370   4.815   4.358  0.0145  0.0075 -0.4906
17100TIP3    H172715   5.437   4.845   4.420  0.0704  0.0867 -0.5897
17100TIP3    H272716   5.384   4.868   4.280  2.0378 -2.2164 -1.7751
17101TIP3   OH272717   3.043   3.895  17.040 -0.0801  0.3123  0.2844
17101TIP3    H172718   3.076   3.983  17.024 -1.1019  0.9047  1.3125
17101TIP3    H272719   3.115   3.850  17.084 -0.0967  1.1424  1.2043
17102TIP3   OH272720   5.653   3.556   1.568 -0.1184  0.5841 -0.5666
17102TIP3    H172721   5.698   3.620   1.623 -0.7096  1.6169 -1.2612
17102TIP3    H272722   5.690   3.472   1.595 -0.5841  1.0046  1.6020
17103TIP3   OH272723   3.062   1.233   0.225 -0.0563  0.1323 -0.2229
17103TIP3    H172724   3.083   1.148   0.186  0.4204  0.3349 -0.4073
17103TIP3    H272725   2.985   1.264   0.176  0.1073  0.0605 -0.5248
17104TIP3   OH272726   5.113   3.081   5.258  0.1306 -0.4288 -0.2431
17104TIP3    H172727   5.050   3.045   5.321 -0.3094 -0.2172 -0.5541
17104TIP3    H272728   5.059   3.129   5.196  0.5814 -0.4544 -0.6584
17105TIP3   OH272729   0.738   2.507   6.218  0.3273 -0.7027  0.4781
17105TIP3    H172730   0.732   2.413   6.235  1.0019 -1.7111 -3.7401
17105TIP3    H272731   0.832   2.525   6.217  0.1901  0.3082  2.1673
17106TIP3   OH272732   2.694   5.434   3.958  0.0069  0.5872 -0.8967
17106TIP3    H172733   2.606   5.395   3.958  0.5966 -0.8794  0.9082
17106TIP3    H272734   2.700   5.480   4.042  1.5047 -0.7733 -0.1955
17107TIP3   OH272735   1.823   1.204  16.157  0.4750  0.2268  0.1778
17107TIP3    H172736   1.841   1.290  16.194  1.5474 -0.6969  1.9786
17107TIP3    H272737   1.903   1.153  16.175 -0.5366 -1.4442  0.1934
17108TIP3   OH272738   4.862   3.134  12.347  0.0344  0.7754 -0.4584
17108TIP3    H172739   4.846   3.217  12.301  0.9496  1.3393  0.1967
17108TIP3    H272740   4.923   3.158  12.418  0.2914 -0.4583 -0.2476
17109TIP3   OH272741   2.229   5.079  13.067  0.0489  0.4499  0.4149
17109TIP3    H172742   2.228   4.986  13.048  0.3831  0.5628 -0.2247
17109TIP3    H272743   2.242   5.120  12.981 -2.6895  1.2182  0.2651
17110TIP3   OH272744   1.170   3.711   2.162  0.2517 -0.2853 -0.1863
17110TIP3    H172745   1.147   3.689   2.072 -0.6698  3.4276 -1.0261
17110TIP3    H272746   1.264   3.694   2.167  0.7903  1.4302 -2.6065
17111TIP3   OH272747   1.148   5.948   4.387  0.8236 -0.1274 -0.5513
17111TIP3    H172748   1.126   6.036   4.357 -1.5878 -0.2235  0.7366
17111TIP3    H272749   1.229   5.926   4.339  0.5197  2.0578 -2.2235
17112TIP3   OH272750   2.433   2.626   2.084 -0.4636 -0.8999 -0.4920
17112TIP3    H172751   2.376   2.663   2.017 -0.5277 -0.3294 -0.1284
17112TIP3    H272752   2.380   2.559   2.127 -1.6750  1.0962  1.3047
17113TIP3   OH272753   5.316   4.200   0.871  0.2132  0.0819 -0.2956
17113TIP3    H172754   5.398   4.152   0.864  1.0189  0.7938  2.6690
17113TIP3    H272755   5.338   4.289   0.841 -0.3623 -0.4198 -2.4030
17114TIP3   OH272756   4.083   5.773   0.865 -0.1520  0.1801 -0.1930
17114TIP3    H172757   3.988   5.768   0.853  0.1222  0.4724 -3.3250
17114TIP3    H272758   4.111   5.840   0.803  1.8049  2.8338  3.1844
17115TIP3   OH272759   4.224   0.723  11.876  0.4718  0.6283 -0.3114
17115TIP3    H172760   4.296   0.664  11.898 -1.8132 -2.1475  0.3708
17115TIP3    H272761   4.241   0.749  11.786  2.0475 -0.3642 -0.3439
17116TIP3   OH272762   6.097   3.861   3.457  0.2437 -0.5392 -0.0010
17116TIP3    H172763   6.087   3.881   3.550 -1.2998  1.8578 -0.5871
17116TIP3    H272764   6.072   3.942   3.413  2.6957 -0.9815 -2.4954
17117TIP3   OH272765   5.347   5.872  11.254  0.5623  0.4692 -0.3829
17117TIP3    H172766   5.428   5.878  11.303  0.2277  0.8786  0.1277
17117TIP3    H272767   5.322   5.780  11.259 -0.3735  0.7786  1.7160
17118TIP3   OH272768   1.396   1.575  14.326 -0.1651  0.0607  0.2113
17118TIP3    H172769   1.476   1.575  14.378  0.4195 -1.3818 -0.6255
17118TIP3    H272770   1.416   1.631  14.251  1.4489 -2.9761 -1.8605
17119TIP3   OH272771   0.097   5.139  12.771 -0.0224  1.1555  0.2715
17119TIP3    H172772   0.166   5.191  12.812 -1.4133  2.8020  0.6297
17119TIP3    H272773   0.045   5.106  12.844  0.6974 -0.6345  0.0426
17120TIP3   OH272774   6.741   3.861   5.361 -0.6970 -0.3835 -0.9962
17120TIP3    H172775   6.797   3.927   5.401 -0.6309 -0.5600 -0.7958
17120TIP3    H272776   6.783   3.840   5.277 -0.0278 -1.0883 -0.5045
17121TIP3   OH272777   2.608   0.341   5.302 -0.0261 -0.9932  0.6160
17121TIP3    H172778   2.529   0.325   5.250 -0.5534 -1.3273  1.4992
17121TIP3    H272779   2.646   0.420   5.264 -2.5615  1.1791  2.1746
17122TIP3   OH272780   0.966   0.619   2.492 -0.2219 -0.1405 -0.0654
17122TIP3    H172781   0.987   0.708   2.463  0.9025 -0.7682 -1.2702
17122TIP3    H272782   0.928   0.631   2.579  0.8731  1.4417  0.2421
17123TIP3   OH272783   6.008   4.452   2.292 -0.2999 -0.0573  0.1489
17123TIP3    H172784   6.088   4.402   2.309  0.5772  0.7235 -1.4694
17123TIP3    H272785   6.016   4.480   2.201 -2.3830  0.1506 -0.0114
17124TIP3   OH272786   3.512   1.400  16.780 -0.2057  0.2451 -0.0847
17124TIP3    H172787   3.591   1.442  16.813 -0.0813  0.8261 -1.0814
17124TIP3    H272788   3.543   1.327  16.728 -0.1898  1.5082 -1.9607
17125TIP3   OH272789   4.670   4.966  14.058  0.0768 -0.3542  0.4608
17125TIP3    H172790   4.580   4.935  14.053 -0.5801  1.5629 -0.6090
17125TIP3    H272791   4.717   4.917  13.991 -0.8298  0.5525 -0.8870
17126TIP3   OH272792   0.671   5.698  12.628  0.3550  0.2940  0.1992
17126TIP3    H172793   0.702   5.615  12.593  2.7407  1.5858 -1.0296
17126TIP3    H272794   0.744   5.732  12.678 -1.0400  1.1019  1.7717
17127TIP3   OH272795   3.982   3.255  15.687  0.0274 -0.2907 -0.6423
17127TIP3    H172796   3.940   3.337  15.713  1.5219  0.4989 -0.6620
17127TIP3    H272797   3.926   3.187  15.726 -2.6291  0.5699 -2.6145
17128TIP3   OH272798   4.610   4.843  16.297  0.1454  0.1953 -0.0743
17128TIP3    H172799   4.647   4.917  16.249 -0.7998  0.4111 -0.4899
17128TIP3    H272800   4.621   4.768  16.237  0.2083  0.1958 -0.0637
17129TIP3   OH272801   3.458   6.610  11.616  0.7707  0.0455  0.6385
17129TIP3    H172802   3.429   6.644  11.532  1.3551 -1.1916 -0.0951
17129TIP3    H272803   3.417   6.524  11.623  0.2947  0.3587  1.8786
17130TIP3   OH272804   4.774   4.534   4.623  0.3216  0.0993  0.2318
17130TIP3    H172805   4.727   4.451   4.630 -0.9347  0.5728 -1.7985
17130TIP3    H272806   4.866   4.509   4.619 -0.0268 -1.1947 -0.2478
17131TIP3   OH272807   0.981   3.366   4.943  0.5522 -0.4277  0.2168
17131TIP3    H172808   0.962   3.356   4.850  1.4105 -0.7489  0.0720
17131TIP3    H272809   0.905   3.328   4.988  0.5886 -1.1646 -0.3472
17132TIP3   OH272810   4.160   3.754   0.463  0.1934  0.9612 -0.1160
17132TIP3    H172811   4.090   3.692   0.443 -1.2486  1.6476  2.4418
17132TIP3    H272812   4.203   3.718   0.540  1.0666  1.8227 -0.1775
17133TIP3   OH272813   6.314   0.609   3.620  0.0023 -0.2959  0.2150
17133TIP3    H172814   6.244   0.616   3.556  0.7400 -0.2154 -0.5947
17133TIP3    H272815   6.394   0.631   3.572  0.3097  2.4116  1.7712
17134TIP3   OH272816   2.252   2.733  15.848 -0.0510 -0.9426  0.6205
17134TIP3    H172817   2.287   2.752  15.762 -1.2316  0.7695  0.4743
17134TIP3    H272818   2.215   2.645  15.840  2.0990 -1.8543  0.1613
17135TIP3   OH272819   6.657   1.655  13.896 -0.4468 -0.4552 -0.1339
17135TIP3    H172820   6.571   1.612  13.900 -0.9170 -0.0437 -3.1191
17135TIP3    H272821   6.687   1.639  13.806  1.6146  1.2753  0.1644
17136TIP3   OH272822   6.157   1.327  12.887  0.1358 -0.5363 -0.3752
17136TIP3    H172823   6.131   1.327  12.980  1.2067  0.6107 -0.0505
17136TIP3    H272824   6.107   1.398  12.848  1.0452  0.1955 -0.2475
17137TIP3   OH272825   6.733   3.844   4.096  0.3179 -0.1006  0.5437
17137TIP3    H172826   6.800   3.780   4.072 -1.4856 -0.7765 -3.6447
17137TIP3    H272827   6.772   3.928   4.075  1.5514  0.0145  3.0123
17138TIP3   OH272828   4.279   3.683   2.093  0.5222  0.4460 -0.2269
17138TIP3    H172829   4.225   3.604   2.090 -0.4138  1.0960 -1.4615
17138TIP3    H272830   4.354   3.659   2.148  1.4431 -2.0470 -2.3403
17139TIP3   OH272831   0.672   3.896  11.189  0.4039 -0.5064 -0.4991
17139TIP3    H172832   0.763   3.888  11.160  0.4297  0.1287 -0.6096
17139TIP3    H272833   0.665   3.987  11.220  0.2633 -1.0162  1.0751
17140TIP3   OH272834   2.857   5.654  10.697 -0.3538  0.3618 -0.5666
17140TIP3    H172835   2.901   5.736  10.674 -0.7750  0.9675  0.7087
17140TIP3    H272836   2.782   5.681  10.750 -1.0120 -0.8022 -0.8729
17141TIP3   OH272837   3.856   6.560  13.674 -0.5867  0.5414  0.8156
17141TIP3    H172838   3.787   6.495  13.685 -0.8932  0.7192 -0.0121
17141TIP3    H272839   3.936   6.515  13.702 -0.7181 -0.3611 -0.1844
17142TIP3   OH272840   3.795   2.573   0.599 -0.2479  0.6719  0.1924
17142TIP3    H172841   3.789   2.651   0.544 -0.8283 -0.3776 -1.3005
17142TIP3    H272842   3.708   2.564   0.638 -0.2163  0.6954  0.2699
17143TIP3   OH272843   3.003   5.917  16.551  0.4927 -0.3082 -0.1830
17143TIP3    H172844   2.926   5.954  16.509  1.6987 -1.1540 -3.4723
17143TIP3    H272845   2.969   5.872  16.629 -2.0979  0.5161 -0.7455
17144TIP3   OH272846   6.028   4.282   4.951  0.0471  0.4214 -0.0433
17144TIP3    H172847   6.015   4.229   5.030 -1.7972 -0.3312 -0.7977
17144TIP3    H272848   5.972   4.358   4.963 -0.2161  0.3206 -0.6035
17145TIP3   OH272849   1.697   0.506  10.647 -0.9383  0.3927  0.1983
17145TIP3    H172850   1.611   0.547  10.647 -1.4854 -0.7018 -0.0522
17145TIP3    H272851   1.748   0.553  10.581 -1.6979  0.3421 -0.4270
17146TIP3   OH272852   2.485   3.631   0.715  0.6359 -0.0263  0.3229
17146TIP3    H172853   2.448   3.664   0.633 -0.3957  0.8999  1.1230
17146TIP3    H272854   2.580   3.637   0.703  0.4920  0.2564 -0.7366
17147TIP3   OH272855   4.505   0.730   0.901 -0.4578 -0.2662  0.0613
17147TIP3    H172856   4.475   0.706   0.813  1.9320 -1.3950 -0.5399
17147TIP3    H272857   4.536   0.820   0.891  0.3261 -0.5808 -0.4201
17148TIP3   OH272858   3.089   3.118   0.752  0.0901 -0.6822 -0.0002
17148TIP3    H172859   3.022   3.112   0.820 -2.2445 -1.4563 -2.2312
17148TIP3    H272860   3.067   3.199   0.705  2.7789  0.8419  1.1302
17149TIP3   OH272861   6.497   2.927  10.872  0.4851  1.0639 -0.5663
17149TIP3    H172862   6.584   2.915  10.912  0.0264  2.1033  0.8340
17149TIP3    H272863   6.478   3.020  10.884 -1.3283  0.6327  0.2280
17150TIP3   OH272864   5.081   5.755   3.418  0.9353 -0.2155  0.0395
17150TIP3    H172865   5.175   5.767   3.412  1.0826 -0.7869  1.0122
17150TIP3    H272866   5.065   5.669   3.379  1.1327 -1.1526  1.8847
17151TIP3   OH272867   2.600   3.590  10.152 -0.0117  0.1509  0.0350
17151TIP3    H172868   2.563   3.503  10.144 -0.9451  0.4246  1.2036
17151TIP3    H272869   2.686   3.577  10.192 -0.4867 -0.1638  0.9519
17152TIP3   OH272870   4.743   3.285   5.381  0.5023 -0.2084  0.2668
17152TIP3    H172871   4.688   3.241   5.446 -1.2613  2.4124  0.7517
17152TIP3    H272872   4.791   3.350   5.432  1.4260 -0.1473 -0.6627
17153TIP3   OH272873   3.592   0.607  14.833  0.2010  0.5437  0.1836
17153TIP3    H172874   3.609   0.689  14.786 -4.3569  0.6594 -1.7101
17153TIP3    H272875   3.537   0.633  14.907  1.1373 -0.5794  1.3300
17154TIP3   OH272876   4.232   5.162   3.188 -0.2730 -0.3044 -0.3523
17154TIP3    H172877   4.263   5.245   3.152  2.2467 -0.9313  0.1972
17154TIP3    H272878   4.155   5.186   3.240 -0.5703  1.4180 -1.4998
17155TIP3   OH272879   2.076   1.572  15.894 -0.1210  0.1766  0.0306
17155TIP3    H172880   2.131   1.645  15.864  0.4128 -0.2718 -0.0990
17155TIP3    H272881   2.105   1.556  15.983  0.9976 -1.0136 -0.5164
17156TIP3   OH272882   4.652   6.412   3.226  0.2673 -0.4068  0.0425
17156TIP3    H172883   4.618   6.451   3.146  1.8777 -0.8567 -0.9235
17156TIP3    H272884   4.629   6.474   3.295  2.0451  1.9538 -1.3148
17157TIP3   OH272885   3.438   2.451   0.548 -0.5687 -0.2817 -0.1225
17157TIP3    H172886   3.368   2.456   0.614  0.0032  0.8538  0.4230
17157TIP3    H272887   3.505   2.511   0.580  0.8231 -1.6220 -0.4701
17158TIP3   OH272888   4.752   6.721   0.242  0.4526 -0.4025 -0.7625
17158TIP3    H172889   4.813   6.711   0.169  1.0469  0.3280 -0.3753
17158TIP3    H272890   4.787   6.794   0.293  0.5208 -1.4459  0.7424
17159TIP3   OH272891   1.083   4.735   3.155 -0.2556  0.8045  0.2133
17159TIP3    H172892   0.997   4.744   3.115  0.4333  1.5745 -1.1571
17159TIP3    H272893   1.141   4.787   3.100  1.2942 -0.5220  0.5004
17160TIP3   OH272894   5.517   4.076   1.929  0.2807  0.0022 -0.7823
17160TIP3    H172895   5.539   4.107   2.017  0.8128 -2.2125 -0.0773
17160TIP3    H272896   5.438   4.025   1.941  0.1188  0.0334 -1.6773
17161TIP3   OH272897   0.610   1.551  14.765  0.2703 -0.5167 -0.0445
17161TIP3    H172898   0.660   1.612  14.819 -0.2208  0.8585 -1.0903
17161TIP3    H272899   0.611   1.589  14.677  0.2738 -2.2220 -0.8409
17162TIP3   OH272900   6.230   4.627  11.989 -0.9802 -0.2960 -0.0462
17162TIP3    H172901   6.275   4.709  12.007 -1.3959  0.0036 -0.3532
17162TIP3    H272902   6.141   4.642  12.019 -0.3004 -1.8139  3.1849
17163TIP3   OH272903   3.892   1.760   1.772 -0.0918 -0.5659  0.6995
17163TIP3    H172904   3.804   1.779   1.738  0.6344 -0.1451 -1.0482
17163TIP3    H272905   3.880   1.681   1.825 -1.2889 -1.4567 -0.7739
17164TIP3   OH272906   1.407   5.045  15.338  0.1516 -0.1409 -0.2008
17164TIP3    H172907   1.475   5.065  15.402 -0.6371 -0.9341  0.9046
17164TIP3    H272908   1.408   5.120  15.278 -0.4152  1.5776  1.8446
17165TIP3   OH272909   6.762   6.055  16.450 -0.6223 -0.2216  0.2464
17165TIP3    H172910   6.853   6.026  16.437 -0.5641 -0.1050  0.3916
17165TIP3    H272911   6.710   5.993  16.399 -0.5816 -1.1497  1.2859
17166TIP3   OH272912   1.475   1.920   3.250 -0.2723 -0.3261 -0.5714
17166TIP3    H172913   1.471   1.835   3.296 -1.8472 -0.7117 -1.3486
17166TIP3    H272914   1.550   1.912   3.191  0.4347 -0.6400  0.3322
17167TIP3   OH272915   1.200   4.844  15.525 -0.1507 -0.6295 -0.3316
17167TIP3    H172916   1.130   4.909  15.533  1.0148  0.7601 -1.0554
17167TIP3    H272917   1.195   4.793  15.606 -0.7682  0.6823  0.4823
17168TIP3   OH272918   1.073   0.872  16.469  0.1129  0.3619 -0.4823
17168TIP3    H172919   1.003   0.855  16.531 -1.3684  0.2791 -2.1064
17168TIP3    H272920   1.139   0.920  16.520 -0.8696 -0.0065  1.2079
17169TIP3   OH272921   4.413   4.596   0.667 -0.5589 -0.6607  0.2498
17169TIP3    H172922   4.326   4.625   0.640 -1.2297 -1.7256  1.1990
17169TIP3    H272923   4.418   4.619   0.760  0.5687  0.2847 -0.0174
17170TIP3   OH272924   5.687   0.033   0.957 -0.4197  0.4076  0.7381
17170TIP3    H172925   5.670   0.063   0.868 -0.2342 -0.9713  0.2180
17170TIP3    H272926   5.767   0.079   0.982 -1.8899  2.9256  1.2750
17171TIP3   OH272927   0.697   3.285  12.728  0.5164 -0.1346  0.6984
17171TIP3    H172928   0.676   3.322  12.643  2.5141 -0.5561 -0.0483
17171TIP3    H272929   0.621   3.232  12.752  0.8022 -1.8927 -1.9358
17172TIP3   OH272930   4.244   1.981   2.141 -0.1818 -1.2927 -0.0736
17172TIP3    H172931   4.296   1.918   2.091  2.5080 -0.2157  1.1624
17172TIP3    H272932   4.286   2.066   2.124 -0.2043 -0.6544  2.5512
17173TIP3   OH272933   5.265   3.193  11.740 -0.4726 -0.7002 -0.4836
17173TIP3    H172934   5.185   3.246  11.741 -0.9376 -1.3781 -0.5890
17173TIP3    H272935   5.236   3.108  11.707  0.6180 -0.4668 -2.1581
17174TIP3   OH272936   3.129   2.371  12.137 -0.4568 -0.1793 -0.5424
17174TIP3    H172937   3.126   2.304  12.205  0.8634  0.5015  0.2358
17174TIP3    H272938   3.122   2.322  12.055 -1.3113 -1.0851  0.0582
17175TIP3   OH272939   4.530   0.730  12.521  0.0000  0.5208 -0.6001
17175TIP3    H172940   4.574   0.780  12.591 -1.6539 -0.5369  1.3012
17175TIP3    H272941   4.602   0.693  12.470  1.3845 -0.5939  1.9786
17176TIP3   OH272942   3.539   1.478   1.992  0.1869 -0.1174 -0.5241
17176TIP3    H172943   3.513   1.486   2.084 -1.0913 -1.9307 -0.6588
17176TIP3    H272944   3.458   1.495   1.943  0.4583 -0.7753 -1.2241
17177TIP3   OH272945   2.847   5.669  12.810 -0.1584  0.4098  0.0938
17177TIP3    H172946   2.933   5.710  12.825  0.3658 -1.4021  2.5288
17177TIP3    H272947   2.860   5.614  12.733  0.6344  0.7217 -0.0065
17178TIP3   OH272948   5.108   4.306  13.012  0.1625  0.4356  0.4559
17178TIP3    H172949   5.092   4.211  13.012 -1.0803  0.6195  1.5472
17178TIP3    H272950   5.044   4.341  12.950 -1.2684  0.8005  2.0648
17179TIP3   OH272951   1.133   1.879  16.493  0.2273 -0.3239  0.3965
17179TIP3    H172952   1.109   1.932  16.417  0.1587 -0.5052  0.2904
17179TIP3    H272953   1.137   1.942  16.565 -0.7154 -0.3048  0.4481
17180TIP3   OH272954   2.553   2.988   3.059 -0.3336  0.1314 -0.3799
17180TIP3    H172955   2.576   2.932   2.985  0.3618 -0.3915  0.2227
17180TIP3    H272956   2.610   3.064   3.050  0.3616 -0.3292  0.0962
17181TIP3   OH272957   6.225   0.838   6.180 -0.1427  0.3574  0.1616
17181TIP3    H172958   6.272   0.763   6.216  0.8909 -0.1766 -2.1266
17181TIP3    H272959   6.156   0.800   6.125  0.5283  1.0109 -1.1918
17182TIP3   OH272960   2.871   4.757   2.016 -0.8394 -0.2728 -0.0436
17182TIP3    H172961   2.929   4.829   2.041 -1.7269  1.0185 -1.4501
17182TIP3    H272962   2.816   4.795   1.946 -2.2282 -1.9318  0.0908
17183TIP3   OH272963   5.126   2.738   1.557 -0.0626 -0.0176 -0.3333
17183TIP3    H172964   5.215   2.704   1.567 -0.0132  0.3580  0.6303
17183TIP3    H272965   5.075   2.662   1.530  0.6427 -0.1160 -1.4464
17184TIP3   OH272966   4.274   1.365  16.571  0.2535 -0.1072 -0.1716
17184TIP3    H172967   4.292   1.279  16.533  0.3378  0.0766 -0.5544
17184TIP3    H272968   4.179   1.366  16.583  0.3420 -0.5726  0.6169
17185TIP3   OH272969   0.278   3.435  11.811  0.3509 -0.2946  0.5527
17185TIP3    H172970   0.319   3.404  11.730 -1.2520  0.7626 -0.7222
17185TIP3    H272971   0.253   3.356  11.858  1.3061 -0.9240  0.0272
17186TIP3   OH272972   5.560   6.122  11.475 -0.4011 -0.0254 -0.2843
17186TIP3    H172973   5.517   6.186  11.419  1.0316  1.3982  0.1760
17186TIP3    H272974   5.596   6.174  11.548  0.9143 -1.3226  0.0370
17187TIP3   OH272975   6.672   4.865   0.569 -0.2314  0.0411 -0.4470
17187TIP3    H172976   6.688   4.952   0.604  0.4228 -0.0439 -0.5286
17187TIP3    H272977   6.612   4.825   0.632  1.1186 -0.1943  0.7304
17188TIP3   OH272978   4.812   6.050   5.237 -0.6393  0.2333  0.2756
17188TIP3    H172979   4.837   6.137   5.207 -2.2192  0.7459  0.3916
17188TIP3    H272980   4.825   6.052   5.332  0.6977 -0.1630  0.1354
17189TIP3   OH272981   5.563   3.621  15.777 -0.2044 -0.1427  0.0223
17189TIP3    H172982   5.570   3.526  15.787  0.5742  0.0943  2.3258
17189TIP3    H272983   5.480   3.643  15.819 -0.4506  0.2064 -0.6294
17190TIP3   OH272984   4.686   0.671  17.137  0.4436 -0.1599 -0.4830
17190TIP3    H172985   4.611   0.729  17.148  1.0013  0.3838  0.5311
17190TIP3    H272986   4.647   0.586  17.116 -0.4066  0.3786 -1.1680
17191TIP3   OH272987   3.331   4.494  14.476  0.0723  0.6744  0.1066
17191TIP3    H172988   3.272   4.560  14.439 -0.9882  0.2735  1.0263
17191TIP3    H272989   3.323   4.506  14.570 -0.4145 -1.0039  0.2977
17192TIP3   OH272990   5.566   4.065   6.126  0.6220 -0.2957  0.3883
17192TIP3    H172991   5.652   4.094   6.155  0.7485 -1.9515  1.8361
17192TIP3    H272992   5.514   4.146   6.122  2.0838  0.6605 -0.0623
17193TIP3   OH272993   6.279   1.119   2.461 -0.5350  0.4026  0.1405
17193TIP3    H172994   6.289   1.028   2.492  0.0588  0.9114  1.5081
17193TIP3    H272995   6.221   1.160   2.525  0.3182  1.3597  0.3155
17194TIP3   OH272996   3.102   0.009  16.726 -0.4312 -0.3161 -0.0771
17194TIP3    H172997   3.117   0.078  16.661  0.8729 -0.2736  0.2419
17194TIP3    H272998   3.009   0.018  16.749 -1.4606 -1.4846 -3.2018
17195TIP3   OH272999   4.462   0.287  13.648  0.3742 -0.5962  0.2556
17195TIP3    H173000   4.398   0.336  13.597  0.1326 -0.0649  1.0479
17195TIP3    H273001   4.474   0.339  13.728  0.4810 -1.5817  0.8963
17196TIP3   OH273002   3.471   3.699  11.718  0.1585  0.1802 -0.5440
17196TIP3    H173003   3.428   3.722  11.800  0.8511  1.1544 -0.4295
17196TIP3    H273004   3.556   3.664  11.744  0.6806  1.1874 -0.8563
17197TIP3   OH273005   4.792   0.358   0.448  0.0578 -0.1081  0.1521
17197TIP3    H173006   4.817   0.315   0.366 -2.6739 -2.1631  0.2689
17197TIP3    H273007   4.700   0.382   0.436  0.3063  1.8716  1.7388
17198TIP3   OH273008   0.175   4.153  13.207  0.4389  0.4515  0.0004
17198TIP3    H173009   0.161   4.172  13.115 -1.1046  0.1415  0.1573
17198TIP3    H273010   0.102   4.194  13.252  1.5723  1.2445  1.1787
17199TIP3   OH273011   2.711   1.371  12.009  0.0185  0.4506 -0.2501
17199TIP3    H173012   2.644   1.316  11.969  0.8913  0.7138 -2.2418
17199TIP3    H273013   2.694   1.367  12.103 -3.0260  0.8362 -0.6776
17200TIP3   OH273014   5.242   1.855   6.124 -0.0692 -0.3795 -0.3317
17200TIP3    H173015   5.259   1.946   6.101  0.0905 -0.2714  0.1932
17200TIP3    H273016   5.234   1.809   6.040  0.8059 -0.0582 -0.5916
17201TIP3   OH273017   1.215   2.089   0.064 -0.4865  0.3549  0.3280
17201TIP3    H173018   1.127   2.066   0.095 -0.7291 -0.5318 -0.9381
17201TIP3    H273019   1.205   2.098  -0.030  0.7269  0.5541  0.2044
17202TIP3   OH273020   2.936   6.553  12.625  0.1478  0.5652  0.1080
17202TIP3    H173021   2.865   6.503  12.586  0.9460 -0.6213  0.1158
17202TIP3    H273022   2.954   6.508  12.708  1.7150  0.0618 -0.4696
17203TIP3   OH273023   2.785   1.805   2.043  0.0839  0.7527 -0.0751
17203TIP3    H173024   2.701   1.823   2.085  0.0256  1.2337 -0.3925
17203TIP3    H273025   2.805   1.714   2.068 -0.1506  0.8895  0.6407
17204TIP3   OH273026   0.950   6.041  11.824  0.2906  0.3128  0.1553
17204TIP3    H173027   0.895   6.073  11.896  0.5119  0.8358  0.0927
17204TIP3    H273028   0.894   5.977  11.778 -1.2170  2.5839 -1.3916
17205TIP3   OH273029   3.024   6.436   0.444  0.0793  0.1384 -0.3263
17205TIP3    H173030   3.053   6.419   0.354  0.7495  0.9090 -0.2748
17205TIP3    H273031   3.105   6.438   0.495 -0.3601 -1.1088  0.4552
17206TIP3   OH273032   2.569   4.514  15.022 -0.0687  0.0085  0.4132
17206TIP3    H173033   2.488   4.498  15.070  0.3412  0.4488  1.2654
17206TIP3    H273034   2.610   4.428  15.015 -0.2162 -0.0856  0.6936
17207TIP3   OH273035   0.779   5.487   3.987 -0.0419 -0.3124 -0.0711
17207TIP3    H173036   0.815   5.433   3.916 -0.7480  0.4817 -1.0528
17207TIP3    H273037   0.699   5.525   3.951 -0.7287 -0.3410  1.3561
17208TIP3   OH273038   2.039   0.297  15.056  1.1344 -0.3680  0.0079
17208TIP3    H173039   2.105   0.265  14.995  1.9581  0.0728  0.6354
17208TIP3    H273040   1.997   0.218  15.090  0.6492 -0.6081 -1.1350
17209TIP3   OH273041   6.203   2.957   1.664  0.4180  0.8145 -0.0250
17209TIP3    H173042   6.112   2.927   1.653  0.7741 -0.2182 -0.2457
17209TIP3    H273043   6.229   2.922   1.749  1.1708 -0.3972 -0.7366
17210TIP3   OH273044   4.513   3.599  14.309  0.2645  0.0885  0.7811
17210TIP3    H173045   4.441   3.600  14.372 -1.4771 -0.2974 -1.0838
17210TIP3    H273046   4.471   3.580  14.225  2.5836 -0.3377 -0.3776
17211TIP3   OH273047   0.524   3.163   4.123  0.6896  0.3884 -0.4200
17211TIP3    H173048   0.540   3.252   4.156  0.9077 -0.2768  1.4182
17211TIP3    H273049   0.532   3.170   4.028  1.0550  2.2629 -0.2826
17212TIP3   OH273050   2.386   4.467   4.680  0.2808 -0.0043  0.1247
17212TIP3    H173051   2.291   4.456   4.690  0.3397  0.5317  1.4374
17212TIP3    H273052   2.419   4.468   4.769  1.4267  0.7174 -0.2927
17213TIP3   OH273053   3.818   5.848   0.778  0.5294  0.1160  0.0750
17213TIP3    H173054   3.762   5.851   0.701  0.4400 -0.0145  0.1354
17213TIP3    H273055   3.760   5.869   0.851  0.2206 -1.5564  0.3293
17214TIP3   OH273056   4.853   4.136   5.125  0.1420 -0.5871  0.3795
17214TIP3    H173057   4.931   4.183   5.154 -0.1827  0.7612 -0.8684
17214TIP3    H273058   4.887   4.057   5.084  0.9087  0.2831 -0.7051
17215TIP3   OH273059   2.831   5.339   0.440 -0.2211 -0.3045 -0.3817
17215TIP3    H173060   2.761   5.383   0.489  0.0426 -0.2613 -0.0337
17215TIP3    H273061   2.806   5.247   0.439  0.1673 -0.4262  0.5311
17216TIP3   OH273062   6.179   0.809   2.290  0.6352 -0.0485  0.1954
17216TIP3    H173063   6.221   0.729   2.322 -0.9028 -1.1553 -0.4428
17216TIP3    H273064   6.118   0.833   2.359 -0.1997 -0.4611 -0.3927
17217TIP3   OH273065   1.064   0.594   0.632  0.7867 -0.8393  0.7271
17217TIP3    H173066   1.129   0.632   0.691  1.7148 -0.9693 -0.1955
17217TIP3    H273067   1.026   0.522   0.682  1.4144 -0.8174  1.2421
17218TIP3   OH273068   1.479   6.075  11.936  0.4929 -0.5346  0.9450
17218TIP3    H173069   1.391   6.088  11.899  0.8555 -0.4871  0.0694
17218TIP3    H273070   1.519   6.009  11.879  1.7714  0.9758 -0.0089
17219TIP3   OH273071   4.665   6.334  11.008 -0.0428 -0.5290 -0.0649
17219TIP3    H173072   4.742   6.368  10.962 -1.6520  2.9646 -0.4890
17219TIP3    H273073   4.635   6.261  10.953  2.5317 -1.5890 -0.2054
17220TIP3   OH273074   5.819   3.601   4.279  0.3493 -0.1433  0.0732
17220TIP3    H173075   5.780   3.569   4.198  3.1981  0.0556 -1.4955
17220TIP3    H273076   5.843   3.692   4.261  0.3634  0.1501  1.4146
17221TIP3   OH273077   4.872   0.930   0.399 -0.1229 -0.6144 -0.2581
17221TIP3    H173078   4.816   0.879   0.458 -1.5954  1.3336  0.1337
17221TIP3    H273079   4.847   1.021   0.416  1.9498  0.2117 -1.3779
17222TIP3   OH273080   3.760   2.285  12.443  0.4357  0.9334 -0.1148
17222TIP3    H173081   3.702   2.359  12.427  2.0859  1.9480 -1.8231
17222TIP3    H273082   3.811   2.310  12.520 -1.8135 -0.3171  1.9126
17223TIP3   OH273083   6.161   0.316   4.112 -0.2331  0.3279  0.0608
17223TIP3    H173084   6.147   0.238   4.057  1.4681  0.6046 -0.8209
17223TIP3    H273085   6.175   0.280   4.200  1.6782 -0.5100 -0.5264
17224TIP3   OH273086   3.256   3.498   0.550  0.3090 -0.2088 -0.7124
17224TIP3    H173087   3.190   3.567   0.554 -0.1021 -0.5403 -1.6119
17224TIP3    H273088   3.271   3.485   0.456  0.8789 -0.8755 -0.5361
17225TIP3   OH273089   4.367   0.083  14.666 -0.0937 -0.5488  0.2227
17225TIP3    H173090   4.295   0.036  14.708  1.1511 -0.2727  2.9572
17225TIP3    H273091   4.333   0.170  14.648 -0.9929 -1.0087 -0.3345
17226TIP3   OH273092   5.493   5.078   0.974  0.2996  0.3790  0.2363
17226TIP3    H173093   5.519   5.063   1.065  0.6196 -0.2292  0.0424
17226TIP3    H273094   5.526   5.166   0.954  1.0304  0.1470  0.4127
17227TIP3   OH273095   5.936   0.541  14.785 -0.3254  0.4166  0.1614
17227TIP3    H173096   6.018   0.574  14.823 -0.2547  0.7103 -0.2290
17227TIP3    H273097   5.957   0.528  14.692 -0.3508 -0.7531  0.3083
17228TIP3   OH273098   1.328   1.973  13.626  0.2845  0.0131  1.1340
17228TIP3    H173099   1.245   1.974  13.579  0.8488 -0.3768  0.0836
17228TIP3    H273100   1.392   2.002  13.561  1.4019 -2.5660  0.9614
17229TIP3   OH273101   1.881   1.243   2.692  0.9929 -0.2181 -0.1921
17229TIP3    H173102   1.931   1.210   2.767  1.1272 -1.6399 -0.8646
17229TIP3    H273103   1.881   1.338   2.702  1.9721 -0.3267  0.9928
17230TIP3   OH273104   0.092   5.394   6.196  0.5535 -0.0211 -0.4444
17230TIP3    H173105   0.070   5.309   6.234 -0.3100  0.5238  0.3323
17230TIP3    H273106   0.163   5.375   6.134  0.7899 -1.2035  0.1535
17231TIP3   OH273107   1.391   1.345  13.348 -0.2401 -0.6755  0.2214
17231TIP3    H173108   1.320   1.295  13.309 -1.1677  0.6579  0.1158
17231TIP3    H273109   1.358   1.369  13.435 -0.0503  0.1941  0.0662
17232TIP3   OH273110   0.189   0.027  13.544  0.5146 -0.4613  0.3630
17232TIP3    H173111   0.151  -0.057  13.570  0.6349 -0.9640 -0.9729
17232TIP3    H273112   0.224   0.064  13.625 -1.3288 -0.7394  1.3551
17233TIP3   OH273113   3.665   1.597   1.213  0.3241 -0.3801 -0.4224
17233TIP3    H173114   3.578   1.630   1.234  0.7043  0.7809 -0.6356
17233TIP3    H273115   3.668   1.511   1.254 -0.0377  0.5642  1.6890
17234TIP3   OH273116   0.407   0.288   3.951 -0.0243  0.4735  0.0953
17234TIP3    H173117   0.468   0.215   3.954 -1.5546 -0.9701 -1.3740
17234TIP3    H273118   0.450   0.353   3.896  1.5587  0.9461  1.7944
17235TIP3   OH273119   6.234   1.433  11.062 -0.4344  0.1361 -0.2493
17235TIP3    H173120   6.250   1.340  11.046 -0.6878  0.0643 -0.0875
17235TIP3    H273121   6.139   1.439  11.076 -0.2550  0.2302  1.0265
17236TIP3   OH273122   6.299   1.239  15.308 -0.1808  0.6503 -0.4892
17236TIP3    H173123   6.386   1.251  15.271 -0.1366  1.2722 -0.1972
17236TIP3    H273124   6.288   1.144  15.315 -0.1656  0.4952 -2.0405
17237TIP3   OH273125   5.559   1.019   4.164  0.4728  0.2617  0.1748
17237TIP3    H173126   5.575   0.925   4.156  1.2501  0.5566 -3.6686
17237TIP3    H273127   5.468   1.025   4.195  0.2960 -1.7444  0.2055
17238TIP3   OH273128   2.093   4.449   3.044  0.2661 -0.4724 -0.1823
17238TIP3    H173129   2.105   4.379   3.109 -2.1739 -0.8660 -0.0744
17238TIP3    H273130   2.075   4.402   2.962  2.3028  0.0391 -0.9931
17239TIP3   OH273131   1.470   5.307  12.530  0.0944 -0.0905  0.0933
17239TIP3    H173132   1.479   5.213  12.514  0.0510  0.2858 -2.6278
17239TIP3    H273133   1.401   5.335  12.469  1.7943  2.0698 -0.9936
17240TIP3   OH273134   3.878   0.354   1.756  0.0150  0.6310  0.1505
17240TIP3    H173135   3.922   0.383   1.676  2.0690 -1.0093  0.6018
17240TIP3    H273136   3.797   0.313   1.726 -0.0882  1.5583 -0.9197
17241TIP3   OH273137   2.265   5.729  14.609 -0.4101  0.5443 -0.5979
17241TIP3    H173138   2.200   5.706  14.542  0.8754  1.2925 -2.1827
17241TIP3    H273139   2.304   5.645  14.634 -0.8216  0.2597 -0.8915
17242TIP3   OH273140   1.369   4.722  14.125 -0.1281 -0.7976 -0.1394
17242TIP3    H173141   1.282   4.715  14.086  0.7020 -0.4861 -2.1916
17242TIP3    H273142   1.403   4.632  14.125  0.1377 -0.7038 -0.8390
17243TIP3   OH273143   1.807   3.657   4.551 -0.1728  0.0884 -0.1939
17243TIP3    H173144   1.782   3.747   4.531  0.7034  0.2340 -0.6850
17243TIP3    H273145   1.901   3.654   4.531 -0.4069 -1.2151 -1.2169
17244TIP3   OH273146   4.299   4.857   0.063  0.0437  0.4603  0.0977
17244TIP3    H173147   4.312   4.798   0.138  1.7386 -0.7898 -1.0755
17244TIP3    H273148   4.378   4.844   0.009 -0.1135  2.9309 -0.8342
17245TIP3   OH273149   3.742   1.371   5.414  0.4229  0.0210 -0.6740
17245TIP3    H173150   3.662   1.321   5.402  1.1182 -1.2160 -0.3141
17245TIP3    H273151   3.764   1.359   5.506  0.8657  0.6070 -0.6971
17246TIP3   OH273152   6.010   0.235  11.211  0.1430  0.4668 -0.0788
17246TIP3    H173153   6.052   0.192  11.136 -0.8616 -1.4766  0.4344
17246TIP3    H273154   5.919   0.246  11.184  0.2170  1.6330  0.0981
17247TIP3   OH273155   2.029   0.956  17.193  0.0281  0.9168 -0.2456
17247TIP3    H173156   2.098   0.972  17.129  2.2950  0.1516  1.8407
17247TIP3    H273157   2.057   0.878  17.240 -2.6432  0.1664  0.3007
17248TIP3   OH273158   3.025   5.352   4.773 -0.1824 -0.3373  0.3472
17248TIP3    H173159   3.068   5.272   4.802 -1.1200 -0.9189  0.1684
17248TIP3    H273160   3.052   5.418   4.837 -2.8171 -1.7376  3.1403
17249TIP3   OH273161   4.321   5.884   3.784 -0.3113 -0.4624  0.1742
17249TIP3    H173162   4.409   5.920   3.787  0.0817 -1.4432  0.6716
17249TIP3    H273163   4.301   5.861   3.874 -0.7229 -1.0684 -0.0662
17250TIP3   OH273164   1.894   3.385   5.762  0.2437 -0.2259 -0.3413
17250TIP3    H173165   1.855   3.339   5.837  1.1555  0.0562  0.3272
17250TIP3    H273166   1.982   3.347   5.754  1.5397  2.2060  1.0442
17251TIP3   OH273167   3.591   3.878  17.208  0.0322 -0.4046  0.0163
17251TIP3    H173168   3.504   3.914  17.222 -0.2970 -0.8711 -0.7413
17251TIP3    H273169   3.621   3.920  17.127  1.8577  2.2075  1.8818
17252TIP3   OH273170   5.085   1.784   0.136 -0.4596  0.0697  0.2201
17252TIP3    H173171   5.078   1.820   0.048 -0.7522 -0.1903  0.1353
17252TIP3    H273172   5.015   1.718   0.141 -0.4348  0.0709  0.6379
17253TIP3   OH273173   3.688   2.835  14.427 -0.0899  0.4190 -0.2483
17253TIP3    H173174   3.764   2.802  14.379  1.5470  1.7322  1.3071
17253TIP3    H273175   3.717   2.840  14.518 -3.3880 -2.9622  1.2521
17254TIP3   OH273176   4.634   3.158   2.053  0.6874  0.5663  0.1420
17254TIP3    H173177   4.602   3.161   2.143 -0.2271 -1.2624 -0.0785
17254TIP3    H273178   4.730   3.158   2.062  0.6103  0.1493  1.1250
17255TIP3   OH273179   0.172   1.779   4.774  0.0168 -0.2487 -0.2403
17255TIP3    H173180   0.236   1.729   4.824  0.1883  1.6018  1.5147
17255TIP3    H273181   0.149   1.853   4.831 -1.9159  0.4333 -1.7793
17256TIP3   OH273182   1.932   2.929   1.633  0.0499 -0.1442  0.5503
17256TIP3    H173183   1.944   3.007   1.687  0.3864 -1.3933  2.3796
17256TIP3    H273184   2.014   2.881   1.642 -0.8840 -1.6953  1.1719
17257TIP3   OH273185   2.732   0.095   5.837  0.3394  0.2509 -0.0445
17257TIP3    H173186   2.769   0.008   5.819  1.7012  0.7588  0.1352
17257TIP3    H273187   2.693   0.122   5.754 -2.2676 -1.4889  0.5095
17258TIP3   OH273188   0.891   3.569   0.152 -0.3586  0.1327  0.0407
17258TIP3    H173189   0.975   3.585   0.195 -1.0275  1.7976  0.8461
17258TIP3    H273190   0.832   3.546   0.224 -0.5576 -1.2933 -0.5500
17259TIP3   OH273191   6.376   0.523   5.921 -0.2537 -0.5124  0.2176
17259TIP3    H173192   6.385   0.530   6.016  1.5891  0.5148 -0.0009
17259TIP3    H273193   6.361   0.430   5.906  0.1124 -0.7968  1.4755
17260TIP3   OH273194   1.932   2.390  12.882  0.4651 -0.3715  0.4888
17260TIP3    H173195   2.019   2.429  12.877  0.2748 -0.0175 -0.3518
17260TIP3    H273196   1.898   2.417  12.967 -0.0836  2.3267 -0.4487
17261TIP3   OH273197   5.604   0.849  14.171 -0.5899  0.0968 -0.6119
17261TIP3    H173198   5.646   0.935  14.164 -0.3506  0.0453  0.1647
17261TIP3    H273199   5.636   0.813  14.253 -1.2923 -0.4096 -0.5517
17262TIP3   OH273200   2.435   2.009  11.085  0.2570 -0.2696 -0.4760
17262TIP3    H173201   2.429   1.931  11.030 -1.2031 -2.0812  2.0148
17262TIP3    H273202   2.450   1.974  11.174  0.1532  2.3226  0.6422
17263TIP3   OH273203   4.326   2.404   2.571 -0.3643 -0.1373 -0.0599
17263TIP3    H173204   4.336   2.499   2.567 -1.2334 -0.0151  0.4844
17263TIP3    H273205   4.398   2.370   2.517 -0.2235  0.8303 -0.5004
17264TIP3   OH273206   6.736   3.963  15.870 -0.0879 -0.2700 -0.3351
17264TIP3    H173207   6.812   3.923  15.912 -0.0407 -0.3243 -0.4699
17264TIP3    H273208   6.678   3.986  15.942  0.8532  1.4621 -0.0808
17265TIP3   OH273209   1.386   4.954  16.587  0.2909  0.9822  0.0675
17265TIP3    H173210   1.429   4.873  16.612 -0.2026  0.2275 -1.4045
17265TIP3    H273211   1.458   5.016  16.572  0.7460  0.3868 -0.2223
17266TIP3   OH273212   3.573   6.608  12.170  0.1185 -0.3918  0.2134
17266TIP3    H173213   3.611   6.521  12.179  0.8379 -0.0637  0.4511
17266TIP3    H273214   3.595   6.635  12.081 -0.1118 -0.4502  0.1365
17267TIP3   OH273215   1.444   4.454   3.091 -0.3764  0.5808 -0.3603
17267TIP3    H173216   1.349   4.455   3.103 -0.3009  0.0386  0.3320
17267TIP3    H273217   1.479   4.488   3.174  0.0832 -1.0438  0.1595
17268TIP3   OH273218   2.586   2.015   2.704 -0.2710  0.0955 -0.4132
17268TIP3    H173219   2.618   2.037   2.791 -0.0291 -0.6573 -0.3087
17268TIP3    H273220   2.664   2.011   2.649 -0.1566 -1.6110 -0.1839
17269TIP3   OH273221   6.658   5.424  12.587  0.2912  0.6412 -0.4371
17269TIP3    H173222   6.706   5.464  12.659 -0.7670  1.6104 -0.2327
17269TIP3    H273223   6.714   5.436  12.511 -0.1358  2.9146 -0.4632
17270TIP3   OH273224   6.748   5.654   0.705  0.0375 -0.0172  0.1361
17270TIP3    H173225   6.705   5.719   0.650  0.6743 -1.1383 -1.8003
17270TIP3    H273226   6.842   5.672   0.695  0.2018 -0.8778  0.0012
17271TIP3   OH273227   3.305   2.965   5.502  0.2087  0.3993 -0.1020
17271TIP3    H173228   3.229   2.916   5.534  0.7373  0.2807  1.0546
17271TIP3    H273229   3.305   3.045   5.554 -0.1689  1.2743 -1.4022
17272TIP3   OH273230   0.433   1.705   2.514  0.6369 -0.0595 -0.3413
17272TIP3    H173231   0.446   1.724   2.421 -0.2504 -2.0408 -0.9068
17272TIP3    H273232   0.509   1.745   2.557  2.4713 -1.3591 -2.2205
17273TIP3   OH273233   1.128   6.422  13.402 -0.3543  0.4125  0.4500
17273TIP3    H173234   1.090   6.500  13.362 -0.3476 -0.1653 -0.7136
17273TIP3    H273235   1.208   6.406  13.353 -0.2114 -0.1765  0.8634
17274TIP3   OH273236   3.373   4.662   0.410 -0.5400 -0.6222  0.1382
17274TIP3    H173237   3.362   4.665   0.505  0.1493  1.1447  0.2057
17274TIP3    H273238   3.385   4.754   0.385 -1.2957 -0.9910 -1.7331
17275TIP3   OH273239   5.605   0.512   2.973 -0.2348  0.4099  0.6936
17275TIP3    H173240   5.595   0.419   2.993 -2.0291  0.2897 -0.5193
17275TIP3    H273241   5.681   0.516   2.915 -0.9216 -0.4989 -0.3138
17276TIP3   OH273242   2.005   3.773   4.781 -0.4883  0.2393 -0.2728
17276TIP3    H173243   2.001   3.850   4.724 -1.6854  0.3103 -0.1146
17276TIP3    H273244   2.050   3.707   4.728  1.6739  1.3922  0.0369
17277TIP3   OH273245   5.662   1.837  10.924  0.2937 -0.2102  0.2714
17277TIP3    H173246   5.635   1.858  11.013  0.4634  1.5868 -0.0591
17277TIP3    H273247   5.592   1.782  10.889 -1.3317  1.6421  0.4974
17278TIP3   OH273248   2.633   4.875  13.291  0.3567  0.5090  0.4987
17278TIP3    H173249   2.665   4.826  13.366 -1.5625  0.7698  1.5400
17278TIP3    H273250   2.702   4.940  13.274  0.9643  0.2536  1.8338
17279TIP3   OH273251   6.673   3.413  12.167 -0.1252 -0.0432 -0.3914
17279TIP3    H173252   6.594   3.371  12.201 -0.6370 -0.3806 -1.8831
17279TIP3    H273253   6.745   3.358  12.199 -0.4944  0.1193  0.7645
17280TIP3   OH273254   1.262   1.426  12.388  0.0441  0.1762 -0.3606
17280TIP3    H173255   1.285   1.501  12.334  2.1534 -0.3324 -0.2819
17280TIP3    H273256   1.288   1.350  12.336 -0.9505 -0.4600  0.0429
17281TIP3   OH273257   3.793   3.485  12.492  0.5127  0.0133  0.0936
17281TIP3    H173258   3.788   3.398  12.532  0.9168 -0.1196 -0.1394
17281TIP3    H273259   3.886   3.507  12.496  0.5478  0.0337 -0.7005
17282TIP3   OH273260   5.413   0.857  17.012  0.1512  0.3149  0.2809
17282TIP3    H173261   5.341   0.885  17.067  0.0905 -1.2948  1.0745
17282TIP3    H273262   5.373   0.838  16.927 -0.5979 -1.5910  1.0148
17283TIP3   OH273263   1.595   5.850   4.150 -0.2738  0.2974  0.1578
17283TIP3    H173264   1.509   5.892   4.144 -0.2081  0.4382  0.2011
17283TIP3    H273265   1.656   5.922   4.160 -0.2381  0.1427  1.1148
17284TIP3   OH273266   5.262   0.927   2.403  0.6676  0.3585 -0.4560
17284TIP3    H173267   5.231   0.993   2.341 -0.2707 -0.7707 -1.2168
17284TIP3    H273268   5.182   0.892   2.442  1.1253 -0.7215 -0.4675
17285TIP3   OH273269   0.866   3.941   1.310  0.0366 -0.4489 -0.6060
17285TIP3    H173270   0.849   4.033   1.331 -1.0479 -0.9237  0.7818
17285TIP3    H273271   0.781   3.906   1.285  0.2962 -1.2445 -0.4069
17286TIP3   OH273272   6.576   2.315  16.652 -0.0848  0.9208 -0.0117
17286TIP3    H173273   6.499   2.260  16.638  0.9095 -0.3181 -0.8746
17286TIP3    H273274   6.614   2.283  16.734 -0.4359  1.5030  0.3906
17287TIP3   OH273275   1.584   3.314  11.650 -0.0877 -0.3330  0.2690
17287TIP3    H173276   1.652   3.256  11.684 -1.3882 -1.8059  0.4716
17287TIP3    H273277   1.536   3.343  11.728 -0.2202  0.0125  0.0615
17288TIP3   OH273278   3.270   0.315   1.139 -0.9511  0.7377 -0.6855
17288TIP3    H173279   3.275   0.227   1.102  0.5353  0.8200 -0.7401
17288TIP3    H273280   3.198   0.357   1.092  0.4815  0.6529 -3.1082
17289TIP3   OH273281   1.271   1.463   0.014 -0.2315  0.3019 -0.2160
17289TIP3    H173282   1.214   1.492  -0.057  0.2576  1.1963 -0.2625
17289TIP3    H273283   1.357   1.454  -0.027  0.5162  2.7826  0.6155
17290TIP3   OH273284   6.389   1.271  12.114 -0.0591  0.1032 -0.6313
17290TIP3    H173285   6.318   1.293  12.053 -0.0334 -0.6051 -0.9287
17290TIP3    H273286   6.349   1.280  12.200  0.0236  1.5304 -0.7260
17291TIP3   OH273287   3.158   5.099  15.034  0.1907 -0.5029 -0.2496
17291TIP3    H173288   3.166   5.028  15.097 -0.0867  0.2382  0.6384
17291TIP3    H273289   3.209   5.171  15.071 -3.0105  1.2734  1.1148
17292TIP3   OH273290   6.622   0.468   3.660  0.0215 -0.0850  0.3935
17292TIP3    H173291   6.703   0.419   3.645 -0.1386 -0.7598  1.6152
17292TIP3    H273292   6.552   0.403   3.653 -0.3955  0.4202 -0.2859
17293TIP3   OH273293   3.610   2.902   5.511 -0.5352 -0.0231  0.0002
17293TIP3    H173294   3.630   2.870   5.599 -0.6712 -1.0885 -0.3440
17293TIP3    H273295   3.517   2.880   5.499  0.0294 -1.8924 -1.2299
17294TIP3   OH273296   4.958   4.859  16.367 -0.2378 -0.2133 -0.2056
17294TIP3    H173297   4.924   4.816  16.445 -3.0736 -0.6553 -1.5210
17294TIP3    H273298   4.939   4.797  16.296  2.3068  0.1281 -1.2779
17295TIP3   OH273299   3.559   2.006  16.631  0.2475  0.1787 -0.0082
17295TIP3    H173300   3.529   2.037  16.716 -0.0149 -2.1482  0.8161
17295TIP3    H273301   3.554   2.083  16.575 -4.1318  0.8064  0.8442
17296TIP3   OH273302   5.135   1.935   5.693 -0.0526 -0.0373 -0.2273
17296TIP3    H173303   5.225   1.967   5.691 -0.5750  1.6178  0.9352
17296TIP3    H273304   5.083   2.011   5.718 -1.6847 -1.1737 -0.0293
17297TIP3   OH273305   3.958   0.440  14.744  0.3997 -0.5919  0.2196
17297TIP3    H173306   3.959   0.493  14.664  0.7287  1.0779  1.2732
17297TIP3    H273307   3.868   0.406  14.749 -0.2109  0.9215  0.1269
17298TIP3   OH273308   5.113   1.805  14.212 -0.0665 -0.0955  0.7111
17298TIP3    H173309   5.021   1.783  14.215 -0.3313  0.8229  0.0362
17298TIP3    H273310   5.115   1.894  14.175  1.1871 -0.9576 -1.5344
17299TIP3   OH273311   2.167   2.222   0.993  0.9401  0.4474 -0.4347
17299TIP3    H173312   2.235   2.290   0.991 -0.8934  2.3814 -0.6002
17299TIP3    H273313   2.086   2.270   1.012 -0.9266 -1.2435 -3.4416
17300TIP3   OH273314   6.133   0.313  17.142  0.2410  0.7176  0.2471
17300TIP3    H173315   6.224   0.302  17.170  0.0996 -0.1936  0.4030
17300TIP3    H273316   6.084   0.325  17.224  0.4444  3.3296  0.0676
17301TIP3   OH273317   3.197   5.917  14.624  0.0075  0.0765 -0.2610
17301TIP3    H173318   3.107   5.893  14.649  0.2525 -0.3285  0.2378
17301TIP3    H273319   3.244   5.923  14.706  0.8506 -1.4147 -0.5908
17302TIP3   OH273320   6.282   4.994   6.267  0.0315 -0.1817 -0.4234
17302TIP3    H173321   6.222   5.039   6.328 -0.8083  0.8385 -1.9242
17302TIP3    H273322   6.360   5.049   6.266 -0.1090  0.0200 -0.5373
17303TIP3   OH273323   5.317   0.275   3.113  0.3140 -0.4145  0.0455
17303TIP3    H173324   5.323   0.182   3.093  0.5249 -0.7428  1.5272
17303TIP3    H273325   5.235   0.303   3.072 -0.7603 -1.7066  1.2126
17304TIP3   OH273326   5.949   0.678  16.560 -0.0750  0.5588 -0.1270
17304TIP3    H173327   5.915   0.733  16.630 -1.9755  0.9839 -1.3153
17304TIP3    H273328   5.872   0.647  16.513  1.1076  0.1822 -1.9534
17305TIP3   OH273329   3.892   0.078   0.472  0.2671 -0.4020 -0.2456
17305TIP3    H173330   3.966   0.129   0.440  1.2922 -0.4081  1.8916
17305TIP3    H273331   3.930  -0.006   0.497 -0.6437 -0.7623 -0.0233
17306TIP3   OH273332   5.086   2.709   5.073 -0.0569  0.2237 -0.0475
17306TIP3    H173333   5.143   2.726   4.998 -0.0096  2.0537  0.3558
17306TIP3    H273334   5.140   2.730   5.149 -0.0447 -1.7915  0.5363
17307TIP3   OH273335   1.607   6.483   1.396 -0.0483  0.4323  0.7452
17307TIP3    H173336   1.691   6.528   1.401  0.4533 -0.3991  0.0206
17307TIP3    H273337   1.605   6.426   1.473 -1.7895  3.4398  3.1308
17308TIP3   OH273338   4.333   2.866  11.545  0.3325 -0.0941 -0.2162
17308TIP3    H173339   4.293   2.794  11.593  2.2805 -0.2077  1.3895
17308TIP3    H273340   4.347   2.832  11.457 -0.0688 -1.1643  0.1205
17309TIP3   OH273341   2.474   0.519  16.227  0.1789  0.2072  0.2399
17309TIP3    H173342   2.385   0.516  16.262 -1.2952  2.0077 -2.9478
17309TIP3    H273343   2.517   0.588  16.277  0.0995 -1.0848  2.2238
17310TIP3   OH273344   6.245   5.781  12.218 -0.2344  0.1623  0.4853
17310TIP3    H173345   6.314   5.802  12.281 -1.5468  1.5867  1.5254
17310TIP3    H273346   6.195   5.711  12.261 -0.8101  0.7546  0.7807
17311TIP3   OH273347   4.867   6.604   1.338  0.3597  0.2806  0.8763
17311TIP3    H173348   4.840   6.513   1.354  0.3272  0.5927  2.8030
17311TIP3    H273349   4.928   6.624   1.408  1.2020  1.4312 -0.1471
17312TIP3   OH273350   3.636   1.353   1.316  0.2352 -0.2295  0.6173
17312TIP3    H173351   3.555   1.328   1.359  0.9983 -2.1817  1.0280
17312TIP3    H273352   3.704   1.340   1.382  1.0453  0.0271 -0.1391
17313TIP3   OH273353   6.597   4.085   0.144 -0.3054 -0.3155  0.2931
17313TIP3    H173354   6.620   3.994   0.124 -0.1429 -0.3922  0.8290
17313TIP3    H273355   6.639   4.103   0.228  2.3475  1.2493 -1.2457
17314TIP3   OH273356   2.174   0.737   4.650  0.4537  0.3760 -0.1587
17314TIP3    H173357   2.095   0.753   4.701  0.0051  0.1694 -0.7763
17314TIP3    H273358   2.148   0.671   4.585  1.5451 -0.8713  0.6188
17315TIP3   OH273359   4.492   0.980  10.914 -0.1552  0.0547  0.2973
17315TIP3    H173360   4.496   0.910  10.849 -0.4593 -0.1453  0.4907
17315TIP3    H273361   4.578   0.981  10.955 -0.2014 -0.3101  0.4026
17316TIP3   OH273362   1.690   1.387  12.499 -0.1994  0.1842 -0.6322
17316TIP3    H173363   1.687   1.480  12.524  2.3524 -0.0306  0.8812
17316TIP3    H273364   1.744   1.386  12.420 -0.5821  0.0058 -0.8933
17317TIP3   OH273365   6.279   5.395   2.239 -0.8027 -0.5020  0.5908
17317TIP3    H173366   6.288   5.357   2.326 -1.4086  0.9973  1.3420
17317TIP3    H273367   6.185   5.410   2.229 -0.8073 -1.1986 -0.5775
17318TIP3   OH273368   2.678   3.571   2.675  1.0501  0.6224  0.2432
17318TIP3    H173369   2.735   3.634   2.633  2.5148 -1.1942 -0.6334
17318TIP3    H273370   2.687   3.491   2.623  0.0355 -0.6122  1.8403
17319TIP3   OH273371   1.199   0.102   4.840  0.0593  0.1752  0.2245
17319TIP3    H173372   1.235   0.156   4.769  0.1329  0.2687  0.3324
17319TIP3    H273373   1.275   0.056   4.876 -0.3951 -2.7307 -2.1207
17320TIP3   OH273374   0.054   1.636  12.485 -0.8223 -0.6962 -0.4966
17320TIP3    H173375   0.123   1.643  12.419  1.0139 -1.6677  1.2115
17320TIP3    H273376  -0.022   1.606  12.436  0.3957 -1.1490 -2.2233
17321TIP3   OH273377   1.486   2.545   5.494  0.7167 -0.3829 -0.7942
17321TIP3    H173378   1.427   2.600   5.545 -1.0251 -2.7828 -0.0214
17321TIP3    H273379   1.450   2.547   5.405  0.3801 -0.6354 -0.6643
17322TIP3   OH273380   5.166   5.681   2.417 -0.8766 -0.1242 -0.0088
17322TIP3    H173381   5.089   5.651   2.369  0.7820 -1.3920 -2.0057
17322TIP3    H273382   5.235   5.619   2.395  1.4798  2.4414 -0.5040
17323TIP3   OH273383   2.946   1.560  15.765 -0.4536 -0.3674  0.1742
17323TIP3    H173384   2.970   1.628  15.829 -1.6166  0.2362 -0.0034
17323TIP3    H273385   2.866   1.593  15.725 -0.6807 -1.5621 -0.3759
17324TIP3   OH273386   4.246   1.404  13.211 -0.4162  0.3639 -0.3043
17324TIP3    H173387   4.270   1.312  13.205  0.7221  0.3669  2.5440
17324TIP3    H273388   4.260   1.439  13.123  3.0109 -1.3452 -0.5814
17325TIP3   OH273389   5.572   1.860  13.473  0.0183 -0.5644 -0.6943
17325TIP3    H173390   5.537   1.885  13.558  0.4023  0.9109 -0.9442
17325TIP3    H273391   5.667   1.857  13.485 -0.0077 -2.5483 -0.5411
17326TIP3   OH273392   3.886   2.265   2.682  0.0094  0.1123  0.1302
17326TIP3    H173393   3.811   2.227   2.636 -0.7049  0.0634  1.2761
17326TIP3    H273394   3.857   2.270   2.773  1.1541  0.7492  0.4747
17327TIP3   OH273395   0.366   2.085  11.958 -0.3215  0.2673 -0.2063
17327TIP3    H173396   0.283   2.121  11.927 -0.5970 -0.7654 -0.7150
17327TIP3    H273397   0.346   2.051  12.046 -1.4444 -3.1171 -1.5826
17328TIP3   OH273398   2.477   3.477  15.926  0.2331  0.5043 -0.5252
17328TIP3    H173399   2.411   3.411  15.949 -0.1304  1.0240 -0.0477
17328TIP3    H273400   2.560   3.433  15.941  0.0499  0.8495  2.1363
17329TIP3   OH273401   3.254   6.677  11.421  0.2063 -0.4339  0.5396
17329TIP3    H173402   3.242   6.587  11.392 -0.8580  0.3615 -1.7304
17329TIP3    H273403   3.166   6.710  11.436  0.5408  0.4350  0.6919
17330TIP3   OH273404   6.664   5.041  15.977 -0.8604 -0.0080  0.1558
17330TIP3    H173405   6.692   4.972  15.916  0.5643  0.5232  0.1657
17330TIP3    H273406   6.642   4.994  16.058  1.6980 -0.3771  0.7154
17331TIP3   OH273407   5.355   1.417  13.285 -0.1396  0.0892  0.5150
17331TIP3    H173408   5.267   1.451  13.302 -0.8736 -1.5166  0.1992
17331TIP3    H273409   5.413   1.492  13.294 -1.4809  1.0623  1.3326
17332TIP3   OH273410   0.042   6.513  14.731  0.0271  0.1427  0.4003
17332TIP3    H173411   0.137   6.524  14.735  0.0129  0.5991 -0.1922
17332TIP3    H273412   0.029   6.438  14.672 -0.0004  1.5985 -1.5667
17333TIP3   OH273413   4.528   3.758  11.166  0.1829  0.2861  0.1522
17333TIP3    H173414   4.593   3.724  11.228 -0.8082  0.6839  1.4636
17333TIP3    H273415   4.577   3.772  11.085  0.8178 -3.6263 -0.3383
17334TIP3   OH273416   4.429   1.650  12.980 -1.0460  0.1056 -0.0547
17334TIP3    H173417   4.524   1.637  12.987 -1.2120 -1.1428  0.1757
17334TIP3    H273418   4.400   1.580  12.922 -1.9339 -0.0223  0.5211
17335TIP3   OH273419   4.138   3.490  11.752  0.4972 -0.3624 -0.0843
17335TIP3    H173420   4.203   3.556  11.729  1.8793 -1.3568  0.7778
17335TIP3    H273421   4.090   3.475  11.671  0.0034  1.7984 -0.2592
17336TIP3   OH273422   6.214   5.631   5.238 -0.3558  0.6134 -0.1037
17336TIP3    H173423   6.142   5.692   5.247 -0.0981  0.8624  0.2765
17336TIP3    H273424   6.291   5.680   5.266 -0.2609 -0.1278  0.9766
17337TIP3   OH273425   6.302   0.194   3.354 -0.3021  0.5418 -0.2530
17337TIP3    H173426   6.309   0.170   3.447  1.2927  0.9195 -0.2521
17337TIP3    H273427   6.342   0.121   3.307 -0.7030  0.5557 -0.6159
17338TIP3   OH273428   1.287   3.975  13.704 -0.3967  0.0945  0.0257
17338TIP3    H173429   1.228   3.904  13.680 -0.6960  0.3504 -0.0019
17338TIP3    H273430   1.281   4.038  13.632  0.3705 -0.1524 -0.2702
17339TIP3   OH273431   3.936   3.679   3.013  0.0143 -0.1287  0.1843
17339TIP3    H173432   3.952   3.676   3.108  0.4070 -2.3767  0.1099
17339TIP3    H273433   3.956   3.590   2.983 -0.2933  0.4876 -1.9929
17340TIP3   OH273434   2.011   0.058   4.551  0.6020 -0.1982  0.4732
17340TIP3    H173435   1.925   0.092   4.528  0.6119 -0.5483 -0.1108
17340TIP3    H273436   2.052   0.039   4.467  1.3518  0.2100  0.7434
17341TIP3   OH273437   1.343   5.360  16.271 -0.0327  0.1347  0.4158
17341TIP3    H173438   1.301   5.331  16.191 -0.7555  1.5041  0.2628
17341TIP3    H273439   1.428   5.317  16.271  0.2227  0.5621 -1.3935
17342TIP3   OH273440   4.805   2.348   6.340  0.1722 -0.4076  0.1275
17342TIP3    H173441   4.790   2.256   6.317  1.0199 -1.0021  1.8212
17342TIP3    H273442   4.884   2.348   6.394 -0.3184  1.1913  0.9329
17343TIP3   OH273443   1.566   2.680   2.166 -0.0966  0.6346  1.2637
17343TIP3    H173444   1.487   2.632   2.190 -0.0305  0.2355  0.7038
17343TIP3    H273445   1.586   2.651   2.077  0.6898  0.7236  1.4033
17344TIP3   OH273446   1.512   2.000   5.339 -0.0358  0.0196 -0.2797
17344TIP3    H173447   1.574   1.947   5.389 -1.0346 -0.5642  0.3710
17344TIP3    H273448   1.534   2.090   5.361  0.3673 -0.1930  0.1944
17345TIP3   OH273449   0.369   3.523  15.101 -0.0771  0.1227  0.2926
17345TIP3    H173450   0.316   3.445  15.085  1.0663 -1.1485  2.2576
17345TIP3    H273451   0.310   3.583  15.148 -0.0437 -0.9657  1.7853
17346TIP3   OH273452   1.322   2.344   5.072  0.0607  0.0894 -0.0943
17346TIP3    H173453   1.369   2.348   4.988 -0.6987  2.7665 -0.5085
17346TIP3    H273454   1.261   2.418   5.068 -2.5510 -1.8121  1.3938
17347TIP3   OH273455   6.771   5.016  11.471 -0.2621  0.2700  0.1010
17347TIP3    H173456   6.764   5.067  11.391  2.0257 -0.4742 -0.6351
17347TIP3    H273457   6.755   4.926  11.443  1.4900 -0.1128  0.2754
17348TIP3   OH273458   4.555   4.180  13.120 -0.7739 -0.4464  0.4063
17348TIP3    H173459   4.535   4.203  13.029 -0.1311  1.6310  0.7292
17348TIP3    H273460   4.477   4.133  13.151 -0.6423 -1.9627 -1.4364
17349TIP3   OH273461   5.923   1.177  16.676 -0.5959 -0.4668 -0.1948
17349TIP3    H173462   5.952   1.153  16.588  1.5297  2.3265 -0.3600
17349TIP3    H273463   5.828   1.162  16.674 -0.2291 -3.4533 -1.8611
17350TIP3   OH273464   0.452   6.749  15.722 -0.8359 -0.0826 -0.6653
17350TIP3    H173465   0.475   6.665  15.760 -1.1771 -0.3500 -1.0417
17350TIP3    H273466   0.534   6.798  15.719 -1.1099  0.7694  2.3925
17351TIP3   OH273467   0.533   1.201  15.074  0.0663  0.3075 -0.1960
17351TIP3    H173468   0.449   1.245  15.083 -0.9329 -1.2133 -1.5164
17351TIP3    H273469   0.524   1.147  14.995  1.3558 -1.9071  1.0695
17352TIP3   OH273470   1.630   1.920  11.512  0.1427 -0.2153 -0.0115
17352TIP3    H173471   1.722   1.930  11.485  0.0370  0.9745  0.0168
17352TIP3    H273472   1.619   1.981  11.585 -0.2417 -1.5891  1.1109
17353TIP3   OH273473   0.731   3.816  16.896  0.2092 -0.8750  0.2552
17353TIP3    H173474   0.766   3.870  16.967 -1.0331 -1.1819  1.1417
17353TIP3    H273475   0.766   3.856  16.816 -0.6460  1.2786  0.8635
17354TIP3   OH273476   5.278   0.232   5.772  0.1829 -0.3699 -0.8664
17354TIP3    H173477   5.321   0.317   5.769 -1.0245  0.4076  1.4171
17354TIP3    H273478   5.185   0.252   5.770 -0.1240 -1.5969  0.0972
17355TIP3   OH273479   6.434   6.024  12.209 -0.0104  0.3453 -0.1765
17355TIP3    H173480   6.367   5.986  12.152 -0.1858  1.4479 -0.7347
17355TIP3    H273481   6.507   6.042  12.151  0.3879  0.0970  0.2409
17356TIP3   OH273482   5.924   3.945   6.021  0.3538  0.9089 -0.6830
17356TIP3    H173483   5.867   3.957   5.945 -1.9293 -0.2833  0.6937
17356TIP3    H273484   5.918   3.851   6.040  3.2736  0.6187 -0.7340
17357TIP3   OH273485   4.738   0.657  11.580  0.5539 -0.1310  0.5920
17357TIP3    H173486   4.713   0.582  11.634 -0.9927  0.7234  1.1475
17357TIP3    H273487   4.672   0.660  11.511  0.2489  1.0289  0.9141
17358TIP3   OH273488   0.732   3.339   3.114  0.6183  0.1890  0.7907
17358TIP3    H173489   0.677   3.417   3.124 -0.5285 -0.5225  0.2511
17358TIP3    H273490   0.674   3.274   3.077  1.8708 -0.5772  0.1138
17359TIP3   OH273491   4.035   6.514  10.829  0.0965  0.6506  0.1345
17359TIP3    H173492   3.992   6.433  10.800  0.8136  0.7575 -1.3105
17359TIP3    H273493   4.105   6.484  10.887  0.4376  0.2190 -0.4898
17360TIP3   OH273494   3.727   5.922  13.763  0.0100  0.0877 -0.4059
17360TIP3    H173495   3.784   5.888  13.695  0.5118  0.7501 -0.3282
17360TIP3    H273496   3.691   5.844  13.806  2.0946 -0.4047  0.5782
17361TIP3   OH273497   2.031   5.084  16.684 -0.0517  0.3481  0.7694
17361TIP3    H173498   2.052   5.172  16.715  2.8880  0.0506 -0.0758
17361TIP3    H273499   2.019   5.033  16.763  0.3535  1.0728  1.3160
17362TIP3   OH273500   5.507   2.886   5.074  0.0647  0.1384  0.5317
17362TIP3    H173501   5.534   2.977   5.076 -1.2449  0.5519  0.2713
17362TIP3    H273502   5.552   2.849   4.998  0.6089  0.5507  0.6456
17363TIP3   OH273503   3.376   2.684  15.252 -0.4494 -0.0720 -0.0198
17363TIP3    H173504   3.302   2.674  15.192 -0.1414  0.3215 -0.4665
17363TIP3    H273505   3.369   2.774  15.285  0.6836  0.4798 -1.2177
17364TIP3   OH273506   2.795   3.540   1.430 -0.2111  0.3343  0.1248
17364TIP3    H173507   2.840   3.575   1.353  0.3549  0.2906  0.4300
17364TIP3    H273508   2.718   3.596   1.439 -0.7249 -0.1857 -0.9568
17365TIP3   OH273509   6.251   4.661   4.019  0.2158 -0.0488  0.1749
17365TIP3    H173510   6.164   4.622   4.024  0.5044 -0.7690 -0.3164
17365TIP3    H273511   6.235   4.751   3.991 -0.2836 -0.6778 -1.7242
17366TIP3   OH273512   4.951   2.244   3.903  0.2873  0.6406  0.0137
17366TIP3    H173513   4.858   2.242   3.878  0.4225  1.4521 -0.5822
17366TIP3    H273514   4.994   2.290   3.831  0.6381  3.4443  1.8609
17367TIP3   OH273515   0.407   1.275  16.383 -0.3999 -0.3726  0.2471
17367TIP3    H173516   0.403   1.188  16.424  0.4823 -0.4764  0.1371
17367TIP3    H273517   0.494   1.277  16.341  0.6443  1.4849  2.3125
17368TIP3   OH273518   4.391   6.556  16.710 -0.1043  0.5240  0.0132
17368TIP3    H173519   4.483   6.550  16.738  0.1548  3.7752  0.1806
17368TIP3    H273520   4.349   6.609  16.777 -2.1516 -0.8197 -0.1217
17369TIP3   OH273521   2.450   2.163  14.574  0.3009 -0.1260  0.2373
17369TIP3    H173522   2.412   2.182  14.660  1.5527  0.4192  0.7023
17369TIP3    H273523   2.416   2.232  14.517  1.0576  0.7331  0.7952
17370TIP3   OH273524   6.389   1.427   2.195  0.3962 -0.1820  0.2504
17370TIP3    H173525   6.345   1.341   2.191  1.1048 -0.5956  0.9347
17370TIP3    H273526   6.422   1.442   2.107  0.4630 -0.7272  0.1802
17371TIP3   OH273527   4.447   5.554  14.807 -0.1558  0.0277 -0.4039
17371TIP3    H173528   4.482   5.489  14.747  0.1780  0.2340 -0.4383
17371TIP3    H273529   4.408   5.504  14.878 -1.9330 -0.2506 -1.5454
17372TIP3   OH273530   0.582   3.134  16.884  0.1255  0.5061  0.2364
17372TIP3    H173531   0.539   3.198  16.826  2.5213  0.4546 -1.8196
17372TIP3    H273532   0.653   3.184  16.925  0.5619 -0.2912  0.4581
17373TIP3   OH273533   2.894   5.750   6.682  0.5271  0.2531  0.2532
17373TIP3    H173534   2.813   5.793   6.711  0.3095 -0.5192  0.8458
17373TIP3    H273535   2.878   5.728   6.590 -0.5751 -1.2534  0.7468
17374TIP3   OH273536   1.237   1.439   0.298 -0.2505  0.1398  0.1940
17374TIP3    H173537   1.193   1.356   0.313 -1.6178  1.1758  2.4723
17374TIP3    H273538   1.260   1.438   0.205 -1.0927 -2.3430 -0.0427
17375TIP3   OH273539   0.517   0.522  14.108  0.0581 -0.0824  0.0356
17375TIP3    H173540   0.433   0.529  14.062 -0.9741 -0.1601  1.8374
17375TIP3    H273541   0.548   0.612  14.112 -1.0845  0.2901  1.3474
17376TIP3   OH273542   6.664   2.788   4.394 -0.3981  0.3283  0.5472
17376TIP3    H173543   6.759   2.785   4.404  0.1603  0.6560 -3.1845
17376TIP3    H273544   6.647   2.874   4.355 -2.0835 -0.1678  0.1004
17377TIP3   OH273545   0.182   4.822  13.235  0.2457 -0.2306  0.1400
17377TIP3    H173546   0.217   4.876  13.164  1.7618 -0.4998  0.6426
17377TIP3    H273547   0.218   4.862  13.314 -0.0121 -0.9709  0.6354
17378TIP3   OH273548   0.626   4.567  14.379 -1.0265  0.0503 -0.0579
17378TIP3    H173549   0.654   4.640  14.323 -3.1487  1.3484  0.4678
17378TIP3    H273550   0.560   4.522  14.327  0.0458 -1.3573 -0.2498
17379TIP3   OH273551   6.456   0.571   5.528 -0.0147  0.3606  0.2443
17379TIP3    H173552   6.453   0.666   5.536  3.7102  0.5693  1.0467
17379TIP3    H273553   6.411   0.552   5.445 -0.1407  2.8963 -0.3458
17380TIP3   OH273554   0.889   6.645  11.884 -0.1532  0.3028  0.0912
17380TIP3    H173555   0.824   6.707  11.916 -2.9115 -2.9486  1.3955
17380TIP3    H273556   0.847   6.604  11.808  0.1123 -2.1293  1.1854
17381TIP3   OH273557   6.455   6.395  14.854  0.3088 -0.1777  0.1532
17381TIP3    H173558   6.495   6.311  14.833  1.0920 -0.4178  2.3899
17381TIP3    H273559   6.377   6.399  14.799  0.5716 -2.0921 -0.4181
17382TIP3   OH273560   2.340   5.896   0.160  0.5527  0.2016  0.4085
17382TIP3    H173561   2.310   5.805   0.153  0.5032  0.3004 -1.0375
17382TIP3    H273562   2.273   5.939   0.212 -1.4284  0.1921 -1.9479
17383TIP3   OH273563   3.756   0.510   4.397 -0.2639  0.0832 -0.1878
17383TIP3    H173564   3.821   0.559   4.447 -0.2125  1.4567 -1.5090
17383TIP3    H273565   3.740   0.565   4.320 -2.0621 -0.8287 -0.5053
17384TIP3   OH273566   5.455   0.565  13.244  0.1561 -0.3625  0.2658
17384TIP3    H173567   5.418   0.525  13.323  0.3227  0.9406  1.0449
17384TIP3    H273568   5.501   0.643  13.277  1.6983 -0.7209 -0.9252
17385TIP3   OH273569   0.291   3.244   4.691 -0.2167  0.5124  0.0948
17385TIP3    H173570   0.335   3.329   4.694 -0.7391  0.8218 -0.6542
17385TIP3    H273571   0.247   3.236   4.776  0.3003  0.7324  0.3878
17386TIP3   OH273572   0.935   3.805   4.173 -0.0992 -0.0082  0.3787
17386TIP3    H173573   1.025   3.833   4.159  1.0866 -2.0639  3.0649
17386TIP3    H273574   0.914   3.751   4.097  1.5847 -0.9187  0.5307
17387TIP3   OH273575   5.372   3.414   6.088  0.1812 -0.4319 -0.2453
17387TIP3    H173576   5.332   3.460   6.015 -1.4848 -1.0337  0.2406
17387TIP3    H273577   5.394   3.328   6.053  1.2669 -0.0297 -0.5685
17388TIP3   OH273578   5.069   2.661  16.380  0.0634  0.0337 -0.3910
17388TIP3    H173579   5.075   2.693  16.470 -0.6783  2.3340 -1.0914
17388TIP3    H273580   5.135   2.592  16.376  0.7228  0.4451  1.6808
17389TIP3   OH273581   5.390   1.911   0.972  0.3407 -0.4110  0.1352
17389TIP3    H173582   5.452   1.863   0.917  1.3981 -0.3495  1.2357
17389TIP3    H273583   5.415   1.888   1.062  0.2919  1.4793  0.6653
17390TIP3   OH273584   2.481   5.040   4.310  0.0025  0.1698 -0.5114
17390TIP3    H173585   2.449   4.969   4.255 -1.4503  0.0269  0.4652
17390TIP3    H273586   2.554   5.002   4.359 -1.1365 -0.8531  0.4404
17391TIP3   OH273587   0.348   0.135   0.413 -0.0304  0.2984  0.3691
17391TIP3    H173588   0.272   0.177   0.454  0.3986 -1.8687  3.7662
17391TIP3    H273589   0.331   0.041   0.421  2.2810 -0.2442 -0.3266
17392TIP3   OH273590   4.892   1.703  15.132  0.0992 -0.1868 -0.1571
17392TIP3    H173591   4.911   1.658  15.049 -1.4693  1.3161 -1.4297
17392TIP3    H273592   4.808   1.667  15.160  0.0812  0.1055  0.1760
17393TIP3   OH273593   0.786   0.040  16.938 -0.1658  0.0414  0.1230
17393TIP3    H173594   0.784   0.096  16.860  0.0528 -0.4394 -0.2407
17393TIP3    H273595   0.868  -0.009  16.929 -0.7265 -0.9145  0.0073
17394TIP3   OH273596   5.485   4.563  13.378 -1.0944  0.5737 -0.5208
17394TIP3    H173597   5.412   4.514  13.339 -3.6952  1.3802  2.8830
17394TIP3    H273598   5.526   4.501  13.438  0.2829  0.5314 -1.4532
17395TIP3   OH273599   4.772   5.706   0.237 -0.3853  0.6957  0.3700
17395TIP3    H173600   4.709   5.730   0.169  1.1419  1.8165 -0.7156
17395TIP3    H273601   4.799   5.789   0.276 -0.7922  0.1089  1.9993
17396TIP3   OH273602   1.045   1.906   6.048 -0.3023 -0.0192 -0.2790
17396TIP3    H173603   0.991   1.850   6.103 -0.4880  0.9187  0.5202
17396TIP3    H273604   1.000   1.991   6.050  1.2702  0.8209  0.5134
17397TIP3   OH273605   4.983   0.259  10.171  0.4567  1.0660 -0.4109
17397TIP3    H173606   5.028   0.342  10.189 -1.2239  1.7943  0.6953
17397TIP3    H273607   4.893   0.274  10.198  0.3258 -1.4864  0.8833
17398TIP3   OH273608   0.884   2.028   5.258 -0.9270 -0.3220 -0.0341
17398TIP3    H173609   0.973   2.065   5.261 -0.6126 -1.1039  0.7369
17398TIP3    H273610   0.848   2.059   5.175  0.3272 -0.5879 -0.7028
17399TIP3   OH273611   0.715   3.388  12.011  0.3445  0.3718 -0.0869
17399TIP3    H173612   0.784   3.442  11.972  1.5043 -0.4901  0.7194
17399TIP3    H273613   0.740   3.298  11.990 -1.1447  0.0728 -0.7394
17400TIP3   OH273614   4.232   4.593   6.014 -0.5228  0.1312  0.2089
17400TIP3    H173615   4.257   4.674   6.058 -1.0963 -0.2713  1.3175
17400TIP3    H273616   4.272   4.524   6.068 -1.7688 -0.3982  0.4917
17401TIP3   OH273617   0.824   2.257   5.049  0.1038  0.1453  0.9145
17401TIP3    H173618   0.769   2.207   4.989  2.0645 -2.7193  1.3145
17401TIP3    H273619   0.885   2.304   4.992 -1.3370  1.6541  0.5586
17402TIP3   OH273620   6.316   0.868   5.105  0.1462 -0.1754  0.2582
17402TIP3    H173621   6.380   0.823   5.049 -0.2422  1.0178 -1.2157
17402TIP3    H273622   6.237   0.872   5.052 -0.4284  0.4444  1.1472
17403TIP3   OH273623   6.140   1.648   2.864 -0.6487  0.5638  0.0506
17403TIP3    H173624   6.184   1.692   2.791  0.0503  0.0876  0.1707
17403TIP3    H273625   6.054   1.626   2.830 -0.8759  1.6613 -0.1409
17404TIP3   OH273626   0.228   5.109   1.139 -0.0637 -0.2653  0.6040
17404TIP3    H173627   0.240   5.063   1.222  1.0071 -0.6125  0.2622
17404TIP3    H273628   0.265   5.196   1.154  0.4612 -0.4508  0.3713
17405TIP3   OH273629   1.810   3.165   5.894  0.1414 -0.0672  0.1962
17405TIP3    H173630   1.866   3.111   5.950  1.4771 -1.2330 -2.0884
17405TIP3    H273631   1.751   3.102   5.852 -1.2905  0.8576  0.7521
17406TIP3   OH273632   0.240   2.905  13.633 -0.2407 -0.0082  0.2818
17406TIP3    H173633   0.214   2.876  13.720 -0.2200 -0.7886  0.0364
17406TIP3    H273634   0.276   2.992  13.646  2.7765 -1.2880  1.6003
17407TIP3   OH273635   0.278   1.264  15.260  0.8382  0.7841 -0.4216
17407TIP3    H173636   0.310   1.205  15.328  0.4568  1.4869  0.3917
17407TIP3    H273637   0.237   1.206  15.195  0.9491  0.1239  0.0885
17408TIP3   OH273638   0.743   1.528  10.765  0.0839 -0.1413  0.0320
17408TIP3    H173639   0.755   1.456  10.702 -1.3778 -0.0912 -0.3327
17408TIP3    H273640   0.649   1.527  10.785  0.5251 -0.2726  2.3808
17409TIP3   OH273641   2.031   6.125  11.486  0.3012 -0.3082 -0.0760
17409TIP3    H173642   1.986   6.067  11.548  0.1355  0.2285  0.3217
17409TIP3    H273643   2.111   6.150  11.532 -1.0806  2.2746  1.1374
17410TIP3   OH273644   4.226   0.523  15.309 -0.6637 -0.1497 -0.3134
17410TIP3    H173645   4.166   0.455  15.340 -0.7833  0.3777  0.6228
17410TIP3    H273646   4.246   0.496  15.219  1.4020 -2.9196  0.8190
17411TIP3   OH273647   2.137   4.821  11.693 -0.0443 -0.3092 -0.0956
17411TIP3    H173648   2.058   4.810  11.746 -0.4245  0.7983 -0.4059
17411TIP3    H273649   2.208   4.789  11.749 -0.4917  0.4358  0.9290
17412TIP3   OH273650   1.425   6.599   4.904 -0.5595 -0.1935 -0.1767
17412TIP3    H173651   1.506   6.566   4.866 -0.3166 -0.6146  0.6903
17412TIP3    H273652   1.356   6.543   4.867 -1.4530  3.8237 -5.9270
17413TIP3   OH273653   1.306   1.234   1.139  0.1756 -0.6251  0.4645
17413TIP3    H173654   1.212   1.244   1.124  0.3900  1.3093  0.2265
17413TIP3    H273655   1.338   1.191   1.059 -0.2405  0.4013 -0.2770
17414TIP3   OH273656   1.957   2.568   1.967 -0.1138  0.0645  0.2204
17414TIP3    H173657   1.925   2.653   1.938 -0.2847  0.3014  1.0928
17414TIP3    H273658   1.888   2.535   2.025  0.7472  0.1249  1.3097
17415TIP3   OH273659   3.658   2.526  13.545  0.2507 -0.2986 -0.4492
17415TIP3    H173660   3.604   2.525  13.624  1.0888  0.4715  0.1588
17415TIP3    H273661   3.641   2.442  13.503 -3.6117  0.9868 -1.8366
17416TIP3   OH273662   4.341   0.445  16.885 -0.1755 -0.0207  0.5335
17416TIP3    H173663   4.268   0.465  16.943 -0.5807 -1.2257  0.4468
17416TIP3    H273664   4.307   0.464  16.797 -1.1270 -2.4985  0.2877
17417TIP3   OH273665   0.166   2.756   6.342 -0.0141 -0.2648 -0.4559
17417TIP3    H173666   0.234   2.690   6.357  2.0988  1.6674 -0.8664
17417TIP3    H273667   0.150   2.794   6.429 -1.3052 -1.3385 -0.2017
17418TIP3   OH273668   2.370   2.064  16.760 -0.1363  0.1768  0.2556
17418TIP3    H173669   2.359   2.012  16.680 -0.9662 -2.4045  1.9323
17418TIP3    H273670   2.282   2.066  16.799  0.0417  2.2445  0.6906
17419TIP3   OH273671   5.750   3.342   4.436 -0.2881  0.3696 -0.1782
17419TIP3    H173672   5.819   3.307   4.493  0.2856  1.5881 -0.0678
17419TIP3    H273673   5.798   3.394   4.371 -1.0476  0.4245 -0.7057
17420TIP3   OH273674   0.019   0.232  11.848 -0.3464  0.3323  0.1263
17420TIP3    H173675  -0.060   0.201  11.803  0.7637 -0.7142 -1.1811
17420TIP3    H273676   0.063   0.152  11.876  0.3229  0.9025  0.7320
17421TIP3   OH273677   3.098   1.027   2.114 -0.3029 -0.2587 -0.1959
17421TIP3    H173678   3.058   0.947   2.081 -0.3449 -0.3468  0.0638
17421TIP3    H273679   3.082   1.024   2.209 -2.1553  1.0653 -0.3987
17422TIP3   OH273680   1.678   3.399  10.651  0.2580 -0.3576  0.4939
17422TIP3    H173681   1.582   3.393  10.655 -0.2714  4.2774  0.2615
17422TIP3    H273682   1.697   3.402  10.557  0.5744 -0.5596  0.5516
17423TIP3   OH273683   0.221   1.299  11.611  0.2987  0.7443 -0.2260
17423TIP3    H173684   0.299   1.254  11.643  0.6509  1.9648  0.6705
17423TIP3    H273685   0.157   1.291  11.682 -0.0913  0.5365 -0.5945
17424TIP3   OH273686   1.089   1.518  13.311 -0.0669  0.2029  0.0795
17424TIP3    H173687   1.178   1.552  13.299 -0.4135  1.0589 -0.1595
17424TIP3    H273688   1.083   1.445  13.249  0.2985  0.4709 -0.2804
17425TIP3   OH273689   6.085   6.008  10.824 -0.3780 -0.6123 -0.2877
17425TIP3    H173690   6.161   5.950  10.830  0.1165  0.0892  0.2817
17425TIP3    H273691   6.119   6.089  10.787 -1.0828 -0.6891 -1.1473
17426TIP3   OH273692   0.459   2.018  16.718  0.0288 -0.3041 -0.4522
17426TIP3    H173693   0.466   2.032  16.812 -1.0636 -0.5776 -0.3148
17426TIP3    H273694   0.365   2.010  16.702  0.1712  0.2167 -1.6388
17427TIP3   OH273695   6.466   2.159   6.144 -0.2444  0.1510  0.1070
17427TIP3    H173696   6.524   2.181   6.217  1.3899  2.0445 -1.6503
17427TIP3    H273697   6.433   2.072   6.165  3.5412 -1.2471  1.0742
17428TIP3   OH273698   6.402   0.642  11.416 -0.2023  0.2406 -0.2001
17428TIP3    H173699   6.487   0.683  11.434 -0.6652  1.5201 -0.8323
17428TIP3    H273700   6.388   0.657  11.322 -0.9315 -0.3443 -0.1907
17429TIP3   OH273701   0.729   6.512   3.183 -0.1148  0.0680 -0.8982
17429TIP3    H173702   0.774   6.587   3.221  0.7808  0.3672 -2.4747
17429TIP3    H273703   0.745   6.519   3.089 -0.2698 -1.9274 -1.1192
17430TIP3   OH273704   0.947   0.602   1.265  0.0664  0.0505 -0.2277
17430TIP3    H173705   0.955   0.533   1.331 -1.4266  1.5174  1.5930
17430TIP3    H273706   0.876   0.572   1.207  0.5016 -0.6434 -0.4160
17431TIP3   OH273707   1.517   0.905   2.292 -0.1593  0.2908 -0.1381
17431TIP3    H173708   1.597   0.853   2.286  0.4014  1.2351 -1.3744
17431TIP3    H273709   1.475   0.894   2.207 -0.7369  0.7582  0.0821
17432TIP3   OH273710   4.680   6.065   0.524  0.7642  0.5665  0.2005
17432TIP3    H173711   4.689   6.143   0.469 -1.9201  2.3795  2.0445
17432TIP3    H273712   4.586   6.059   0.542  1.0394 -2.3915  1.1793
17433TIP3   OH273713   0.858   1.466  16.387 -0.3515 -0.0825  0.3638
17433TIP3    H173714   0.924   1.530  16.414 -1.1523  0.5957  0.7917
17433TIP3    H273715   0.861   1.467  16.292  0.4820 -0.3114  0.3819
17434TIP3   OH273716   5.869   5.185   4.934 -0.1505  0.1019  0.3101
17434TIP3    H173717   5.947   5.226   4.973 -1.1733  1.0357  1.4622
17434TIP3    H273718   5.874   5.208   4.841  1.7081 -1.1357  0.0540
17435TIP3   OH273719   5.240   2.752  11.706  0.4195 -0.6267 -0.5102
17435TIP3    H173720   5.280   2.819  11.650 -1.8231 -1.4852 -3.4205
17435TIP3    H273721   5.149   2.781  11.716  0.6380 -0.6402  2.7152
17436TIP3   OH273722   1.539   5.478  13.255  0.0701 -0.5449  0.3593
17436TIP3    H173723   1.633   5.464  13.256 -0.0606 -2.0412 -1.8279
17436TIP3    H273724   1.527   5.562  13.211  0.3638 -1.1397 -0.9019
17437TIP3   OH273725   3.222   5.007   3.325  0.0377 -0.2173  0.0314
17437TIP3    H173726   3.164   4.947   3.373  1.9658 -2.8041 -0.6309
17437TIP3    H273727   3.300   5.013   3.381  1.7960 -2.2502 -1.9834
17438TIP3   OH273728   6.501   6.193  16.306  0.0993 -0.4225 -0.0211
17438TIP3    H173729   6.530   6.266  16.362  1.6303 -1.7005  0.9192
17438TIP3    H273730   6.408   6.184  16.328  0.0346  0.8066  0.3394
17439TIP3   OH273731   3.489   0.329   0.361 -0.1693 -0.0015  0.6724
17439TIP3    H173732   3.477   0.424   0.359  0.4158  0.1507  2.4373
17439TIP3    H273733   3.584   0.317   0.359 -0.2599 -0.5940 -0.3167
17440TIP3   OH273734   3.667   2.862   6.184 -0.5039  0.3440  0.6241
17440TIP3    H173735   3.705   2.929   6.128  0.9406  0.6413  1.8959
17440TIP3    H273736   3.572   2.878   6.180 -0.3013  1.3985 -0.3910
17441TIP3   OH273737   5.410   5.550   1.812  0.2889 -0.2078 -0.1784
17441TIP3    H173738   5.354   5.621   1.843  0.5914  0.0549 -0.2244
17441TIP3    H273739   5.496   5.591   1.801  0.3569 -0.4772 -0.6416
17442TIP3   OH273740   2.460   3.422   2.038 -0.2396  0.1043  0.7547
17442TIP3    H173741   2.473   3.345   1.983  2.0131 -0.5945  2.1317
17442TIP3    H273742   2.486   3.496   1.983  2.3785 -0.6164  0.9330
17443TIP3   OH273743   3.637   3.844   4.997 -0.6148 -0.9251 -0.0066
17443TIP3    H173744   3.670   3.768   4.949  0.3564 -0.9674  0.6931
17443TIP3    H273745   3.544   3.847   4.975 -0.2635 -1.1169 -1.6204
17444TIP3   OH273746   4.752   5.458  12.957 -0.0957  0.2760  0.1748
17444TIP3    H173747   4.772   5.376  13.003 -0.7640 -1.5374 -2.5224
17444TIP3    H273748   4.824   5.467  12.894 -1.3661  0.3042 -1.3213
17445TIP3   OH273749   3.781   6.111   1.087 -0.1313 -0.3605 -0.2681
17445TIP3    H173750   3.747   6.022   1.098 -0.5557 -0.2392 -0.5891
17445TIP3    H273751   3.712   6.158   1.041  0.4821 -0.1196 -0.9674
17446TIP3   OH273752   5.154   0.149   6.840 -0.4252  0.2536  0.3078
17446TIP3    H173753   5.207   0.104   6.773  0.6760  0.6255  0.8959
17446TIP3    H273754   5.081   0.090   6.856 -1.4606  0.7680 -2.1720
17447TIP3   OH273755   2.603   2.949  14.946  0.0736  0.6275 -0.3283
17447TIP3    H173756   2.680   2.969  14.893  0.1299  0.3968 -0.3332
17447TIP3    H273757   2.541   3.019  14.925 -0.6438 -0.4837 -2.1551
17448TIP3   OH273758   4.773   4.039   2.052 -0.5864  0.6038  0.0266
17448TIP3    H173759   4.807   3.983   1.983 -2.3750  0.1355 -0.5195
17448TIP3    H273760   4.846   4.098   2.073  0.4939 -0.2554 -1.1502
17449TIP3   OH273761   0.859   2.261   3.637 -0.1994 -0.3788  0.4622
17449TIP3    H173762   0.900   2.176   3.650  1.2306  0.1165 -0.5366
17449TIP3    H273763   0.921   2.309   3.583 -1.7799  0.6992 -0.4648
17450TIP3   OH273764   6.500   3.999   0.746  0.3407 -0.9496 -0.4070
17450TIP3    H173765   6.451   3.917   0.759  0.1908 -1.3582 -3.0484
17450TIP3    H273766   6.565   3.998   0.816 -1.0942 -2.1684  1.0238
17451TIP3   OH273767   5.927   2.516   5.855 -0.3473  0.1971 -0.0691
17451TIP3    H173768   5.938   2.542   5.946 -2.2854  0.6933  0.0704
17451TIP3    H273769   5.833   2.522   5.840  0.1462  3.1529 -2.9801
17452TIP3   OH273770   6.230   4.079   3.867 -0.0249 -0.3399 -0.8231
17452TIP3    H173771   6.211   3.990   3.838  0.6220 -0.3527 -1.2261
17452TIP3    H273772   6.298   4.069   3.935 -0.5995 -0.2151 -0.2195
17453TIP3   OH273773   3.528   4.384   4.809  0.3354 -0.3489 -0.1518
17453TIP3    H173774   3.618   4.414   4.797  0.2387  0.3731  0.7927
17453TIP3    H273775   3.476   4.464   4.805 -0.2280 -0.7187 -0.2887
17454TIP3   OH273776   2.991   3.899   3.523  0.5816 -0.2280 -0.1891
17454TIP3    H173777   3.073   3.888   3.474  1.5870 -0.4134  1.4312
17454TIP3    H273778   3.015   3.959   3.595 -1.1875  1.1707 -0.6936
17455TIP3   OH273779   0.453   0.617   0.083  0.0915  0.1814 -0.1682
17455TIP3    H173780   0.404   0.567   0.149  0.3884 -0.4995 -0.4570
17455TIP3    H273781   0.385   0.662   0.032 -0.1715  0.1950  0.1926
17456TIP3   OH273782   3.069   1.436   0.746  0.0539 -0.3176  0.2276
17456TIP3    H173783   3.034   1.407   0.662 -0.3805  0.8766 -0.0178
17456TIP3    H273784   3.043   1.366   0.807  1.9217 -2.1035 -0.8833
17457TIP3   OH273785   0.846   5.665   1.351 -0.1857  0.0073 -0.3119
17457TIP3    H173786   0.782   5.595   1.335  0.7609 -0.8403 -0.5043
17457TIP3    H273787   0.895   5.635   1.428 -0.7861  1.2187  0.5717
17458TIP3   OH273788   0.655   3.712  14.435 -0.0833 -0.3694  0.1505
17458TIP3    H173789   0.599   3.640  14.466  0.4655  0.2343  2.7493
17458TIP3    H273790   0.595   3.786  14.424 -0.1294 -0.2689  0.9927
17459TIP3   OH273791   3.901   2.695  16.943  0.1929  0.4615 -0.1200
17459TIP3    H173792   3.900   2.736  17.030 -0.1092  0.6667 -0.2199
17459TIP3    H273793   3.861   2.759  16.885 -3.3603 -1.1749  0.2752
17460TIP3   OH273794   0.199   3.821  13.306  0.3573  0.2716 -0.2275
17460TIP3    H173795   0.200   3.760  13.232  1.0024  0.5678 -0.4668
17460TIP3    H273796   0.267   3.885  13.285 -0.2081  0.9881  0.0914
17461TIP3   OH273797   4.837   0.276   5.428 -0.2159  0.4992  0.4692
17461TIP3    H173798   4.834   0.206   5.494  0.4991  0.9556  0.9982
17461TIP3    H273799   4.889   0.238   5.356  0.4639  0.5919  0.8996
17462TIP3   OH273800   0.564   1.036   1.105  0.0204 -0.2571  0.3814
17462TIP3    H173801   0.511   0.975   1.053 -0.5574 -1.7550  2.5836
17462TIP3    H273802   0.578   0.990   1.188  3.2046  0.8845  0.5958
17463TIP3   OH273803   1.642   2.361  15.392  0.3636  0.0506  0.2807
17463TIP3    H173804   1.616   2.445  15.355  0.1699  0.5329  1.4605
17463TIP3    H273805   1.729   2.376  15.430  1.0704 -0.7420 -0.9564
17464TIP3   OH273806   0.626   0.790   0.820  0.3993 -0.6225  0.2445
17464TIP3    H173807   0.581   0.722   0.770 -2.2295  0.5243  0.8452
17464TIP3    H273808   0.689   0.827   0.759 -0.5736 -1.2842 -1.2273
17465TIP3   OH273809   1.958   5.074   4.423  0.1337  0.6734  0.4283
17465TIP3    H173810   1.935   5.144   4.362 -1.0237 -0.2593 -0.2577
17465TIP3    H273811   2.053   5.066   4.416  0.1827  1.5916 -0.1109
17466TIP3   OH273812   3.073   0.823   5.630 -0.2393 -0.1714  0.2575
17466TIP3    H173813   3.099   0.731   5.633  0.8010  0.1253  1.0202
17466TIP3    H273814   3.153   0.871   5.652 -1.3904  0.8081  2.7305
17467TIP3   OH273815   3.193   4.200  11.855 -0.0015  0.2411 -0.4825
17467TIP3    H173816   3.242   4.148  11.792  1.5471  0.3779  0.5493
17467TIP3    H273817   3.224   4.290  11.841  0.4269  0.2604  0.5002
17468TIP3   OH273818   6.641   6.184  12.904  0.0350 -0.0162  0.3254
17468TIP3    H173819   6.570   6.141  12.951 -0.5596  0.0418 -0.5026
17468TIP3    H273820   6.618   6.276  12.905 -0.1263 -0.0447 -0.3041
17469TIP3   OH273821   1.960   3.376   2.239 -0.3558  0.4201 -0.3378
17469TIP3    H173822   2.054   3.384   2.228 -0.3503  1.3391  0.2349
17469TIP3    H273823   1.947   3.292   2.282  0.2108  0.3533 -0.2974
17470TIP3   OH273824   5.424   0.162  10.645 -0.3992 -0.0194 -0.2406
17470TIP3    H173825   5.443   0.252  10.671  0.9632 -1.1304  3.0077
17470TIP3    H273826   5.328   0.156  10.648 -0.5174  1.3215 -0.6564
17471TIP3   OH273827   4.177   6.454   4.687  0.1191 -1.0487  0.1079
17471TIP3    H173828   4.168   6.427   4.596 -0.1355 -1.2185  0.1815
17471TIP3    H273829   4.142   6.381   4.738 -0.8752 -0.4582  0.3022
17472TIP3   OH273830   3.885   2.168   5.713  0.5951 -0.2498  0.1645
17472TIP3    H173831   3.855   2.250   5.753  1.2300  0.9771 -1.7312
17472TIP3    H273832   3.878   2.103   5.783 -2.2317  0.8743  1.0614
17473TIP3   OH273833   6.234   1.723  12.803 -0.1698 -0.2649 -0.2667
17473TIP3    H173834   6.277   1.807  12.820  1.0870 -1.2279  1.8332
17473TIP3    H273835   6.300   1.672  12.756  0.5990 -1.3159  1.8366
17474TIP3   OH273836   1.993   5.196  14.738 -0.3009  0.8193  0.4589
17474TIP3    H173837   2.021   5.283  14.768  1.7612  0.2728  0.2970
17474TIP3    H273838   1.994   5.142  14.816  1.4060  0.2691  0.0966
17475TIP3   OH273839   6.064   6.719  11.687  0.7920  0.4611 -0.5835
17475TIP3    H173840   6.126   6.676  11.747 -0.9657  0.1087  1.0880
17475TIP3    H273841   5.980   6.676  11.705 -0.4409  2.5652 -0.9934
17476TIP3   OH273842   0.402   2.580   0.005  0.2302  0.3293  0.3515
17476TIP3    H173843   0.326   2.621  -0.035 -0.4403  0.1510  1.3989
17476TIP3    H273844   0.387   2.588   0.099  0.9414 -0.7256  0.5778
17477TIP3   OH273845   3.020   5.415   3.590 -0.1383  0.0525  0.5116
17477TIP3    H173846   3.104   5.372   3.608  1.5234  2.7743 -0.2549
17477TIP3    H273847   2.979   5.359   3.524 -0.2624 -2.8027  2.8219
17478TIP3   OH273848   5.669   1.140   5.962  0.4161  0.1637  0.2246
17478TIP3    H173849   5.713   1.174   6.040 -1.7519  3.0259  0.3767
17478TIP3    H273850   5.588   1.101   5.996  0.8449 -1.2926 -0.3731
17479TIP3   OH273851   1.693   6.661   3.997  0.4160  0.0633 -0.3071
17479TIP3    H173852   1.720   6.586   4.050  1.7386  0.7053 -0.0070
17479TIP3    H273853   1.668   6.624   3.913  0.4852 -0.7701  0.0355
17480TIP3   OH273854   4.312   2.405   1.752  0.3071 -0.0836 -0.6890
17480TIP3    H173855   4.274   2.320   1.727 -0.4476  0.4007 -1.2360
17480TIP3    H273856   4.242   2.448   1.801  0.5310  0.4063 -0.7999
17481TIP3   OH273857   5.969   3.874  12.734  0.0437  0.2709 -0.1682
17481TIP3    H173858   6.063   3.890  12.743  0.0003 -0.0512  1.1305
17481TIP3    H273859   5.957   3.786  12.771 -0.7501  0.2494 -0.4648
17482TIP3   OH273860   4.402   0.348  13.060 -0.6039  0.3316 -0.2818
17482TIP3    H173861   4.365   0.434  13.081  1.4934  1.2329  0.0358
17482TIP3    H273862   4.373   0.330  12.971 -2.6684  0.4316  0.3239
17483TIP3   OH273863   3.382   6.368  13.995 -0.6727  0.2300  0.4166
17483TIP3    H173864   3.471   6.399  14.013  0.2818 -2.4705  0.8603
17483TIP3    H273865   3.351   6.335  14.080 -1.7416  0.2918  0.0639
17484TIP3   OH273866   3.875   6.481  14.872  0.0590  0.0141 -0.0777
17484TIP3    H173867   3.917   6.395  14.871  1.2239  0.5586 -0.8923
17484TIP3    H273868   3.818   6.480  14.949  2.1404 -0.5158  1.5309
17485TIP3   OH273869   3.672   2.834  12.720 -0.5992  0.1994  0.6622
17485TIP3    H173870   3.664   2.744  12.753  1.1658  0.7689  3.0002
17485TIP3    H273871   3.592   2.877  12.750 -2.0152 -0.7665 -1.4678
17486TIP3   OH273872   4.728   2.735  13.492 -0.5554  1.1280  0.2207
17486TIP3    H173873   4.679   2.817  13.498 -1.3268  0.6422  0.6774
17486TIP3    H273874   4.668   2.674  13.450  0.1030  0.8588 -0.3399
17487TIP3   OH273875   6.588   2.970  13.666 -0.0191 -0.1877 -0.2059
17487TIP3    H173876   6.646   3.041  13.639  1.9150 -2.1604 -1.6618
17487TIP3    H273877   6.508   2.983  13.615  0.5770  0.5562 -0.9870
17488TIP3   OH273878   3.761   0.887  16.749  0.2171 -0.1971  0.2515
17488TIP3    H173879   3.671   0.911  16.726  0.6133  1.3058  0.2234
17488TIP3    H273880   3.771   0.798  16.714 -0.4149  0.5909 -2.1242
17489TIP3   OH273881   0.552   2.466   2.966  0.0903 -0.2395 -0.1014
17489TIP3    H173882   0.567   2.475   2.872 -1.5274  0.7745 -0.3142
17489TIP3    H273883   0.493   2.391   2.973  1.9961 -1.7464  0.3448
17490TIP3   OH273884   3.747   4.935   4.975  0.2345  0.0777  0.2050
17490TIP3    H173885   3.792   4.970   5.052  0.4634  1.2063 -0.4362
17490TIP3    H273886   3.812   4.939   4.905 -0.5071  0.6522 -0.4562
17491TIP3   OH273887   4.488   3.563  13.469  0.1954  0.8355 -0.2904
17491TIP3    H173888   4.452   3.505  13.537  1.4791 -0.9562 -1.0664
17491TIP3    H273889   4.420   3.567  13.402  0.4512 -0.6390 -0.6785
17492TIP3   OH273890   1.419   3.163   1.855 -0.2437  0.1396  0.3299
17492TIP3    H173891   1.334   3.201   1.876  0.1389  1.3925 -0.2711
17492TIP3    H273892   1.474   3.238   1.834  0.4683 -0.7480 -1.2163
17493TIP3   OH273893   4.864   3.640   0.775  0.2073  0.2577  0.6271
17493TIP3    H173894   4.770   3.635   0.761 -0.0985 -2.1141  2.7372
17493TIP3    H273895   4.902   3.599   0.697 -0.6978 -1.0859  0.8436
17494TIP3   OH273896   3.017   2.048   6.461  0.0180  0.2310  0.4002
17494TIP3    H173897   2.997   2.116   6.526 -1.4910  1.6207 -1.4084
17494TIP3    H273898   2.946   1.984   6.471 -0.6140  0.8034 -0.3058
17495TIP3   OH273899   4.816   3.396  13.696 -0.7331 -0.0482 -0.4385
17495TIP3    H173900   4.867   3.452  13.637 -2.6658  0.3943 -1.8115
17495TIP3    H273901   4.881   3.355  13.753  1.2646 -0.5645 -2.9258
17496TIP3   OH273902   0.697   6.229   1.474  0.0833  0.1214 -0.7074
17496TIP3    H173903   0.790   6.213   1.492  0.0979 -1.2065 -1.7783
17496TIP3    H273904   0.683   6.192   1.387 -0.6389  3.5209 -2.1840
17497TIP3   OH273905   3.799   6.161   1.555 -0.4207  0.1072 -0.4707
17497TIP3    H173906   3.746   6.103   1.610 -1.2656  0.9294 -0.4038
17497TIP3    H273907   3.828   6.104   1.483 -0.6072 -0.5836 -0.0136
17498TIP3   OH273908   1.712   6.164  15.282 -0.2612 -0.2188  0.5079
17498TIP3    H173909   1.734   6.239  15.227 -2.6534  0.3603  0.2288
17498TIP3    H273910   1.778   6.099  15.260  2.6399  2.1081  1.6075
17499TIP3   OH273911   0.707   4.020   4.194  0.1970  0.1223  0.4718
17499TIP3    H173912   0.627   3.975   4.220  0.1301  0.3744  0.7116
17499TIP3    H273913   0.771   3.950   4.180 -0.3226 -0.1466 -0.6550
17500TIP3   OH273914   2.370   0.342   5.567 -0.6638 -0.2660 -1.0366
17500TIP3    H173915   2.343   0.250   5.574  0.3049 -0.6128 -1.7010
17500TIP3    H273916   2.326   0.373   5.488 -2.0783  0.2554 -0.0885
17501TIP3   OH273917   6.453   6.210   1.337 -0.1501 -0.4180 -0.8813
17501TIP3    H173918   6.375   6.246   1.380  0.3136  0.2918 -0.6211
17501TIP3    H273919   6.418   6.157   1.266 -0.8734  0.5092 -1.2467
17502TIP3   OH273920   6.492   4.239  11.424  0.1601 -0.3874  0.1079
17502TIP3    H173921   6.479   4.145  11.417  0.6203 -0.3058 -2.9748
17502TIP3    H273922   6.551   4.249  11.499 -0.6439 -2.4210  1.0860
17503TIP3   OH273923   6.350   4.332   1.510 -0.6115 -0.3126  0.1315
17503TIP3    H173924   6.391   4.247   1.525 -0.7420 -0.0681  2.1628
17503TIP3    H273925   6.276   4.334   1.571 -0.1020  1.5729  0.7692
17504TIP3   OH273926   6.165   4.997   2.608  0.1029 -0.2409  0.1711
17504TIP3    H173927   6.256   5.009   2.637  0.2766  1.4160 -0.9098
17504TIP3    H273928   6.172   4.982   2.513 -0.8222  2.0039 -0.3118
17505TIP3   OH273929   2.375   3.510  14.397 -0.0674  0.0684  0.0874
17505TIP3    H173930   2.399   3.596  14.431  1.1253  0.0120 -0.5436
17505TIP3    H273931   2.442   3.491  14.331 -0.9710 -0.8385 -0.6049
17506TIP3   OH273932   4.040   6.114  16.238 -0.1056  0.0597 -0.5724
17506TIP3    H173933   4.074   6.089  16.324 -0.2792 -2.1799 -1.0957
17506TIP3    H273934   3.978   6.185  16.256  0.0943 -0.1621  1.1084
17507TIP3   OH273935   2.530   0.306  15.656  0.1033 -0.2901  0.5547
17507TIP3    H173936   2.450   0.329  15.704 -0.2731 -0.5492  0.0694
17507TIP3    H273937   2.519   0.347  15.571  0.6953  0.0344  0.6348
17508TIP3   OH273938   4.938   2.260  16.773  0.1211  0.1773 -0.2901
17508TIP3    H173939   4.941   2.284  16.680  0.8183 -0.4082 -0.4230
17508TIP3    H273940   4.882   2.182  16.776  0.6318 -0.1932 -0.3083
17509TIP3   OH273941   4.537   6.385   6.364  0.0204  0.2873  0.3992
17509TIP3    H173942   4.627   6.386   6.397 -0.2210  0.8687  1.0588
17509TIP3    H273943   4.524   6.473   6.328 -0.4856  0.4069  0.8683
17510TIP3   OH273944   1.793   1.895   1.958 -0.1791  0.3743 -0.4168
17510TIP3    H173945   1.824   1.972   1.910 -0.9044  0.7819 -0.2464
17510TIP3    H273946   1.702   1.884   1.929 -0.0803 -0.4323 -0.4471
17511TIP3   OH273947   0.684   5.682  16.437  0.2596 -0.2431 -0.2178
17511TIP3    H173948   0.721   5.765  16.406  0.3046  0.1504  0.8194
17511TIP3    H273949   0.593   5.684  16.409  0.3846 -0.0548 -0.6123
17512TIP3   OH273950   6.073   1.892  11.757 -0.3379  0.5291 -0.3403
17512TIP3    H173951   6.125   1.817  11.786  0.1448  0.4725 -1.3410
17512TIP3    H273952   6.052   1.939  11.838  0.6761  0.1747  0.1458
17513TIP3   OH273953   0.574   6.582  14.715 -0.4451 -0.2673 -0.1040
17513TIP3    H173954   0.484   6.586  14.747  0.0807 -0.8986  1.5527
17513TIP3    H273955   0.601   6.492  14.729  0.5038 -0.0544 -0.4755
17514TIP3   OH273956   0.134   5.786   4.449 -0.6304 -0.0524 -0.0924
17514TIP3    H173957   0.105   5.711   4.396 -1.4359 -0.5077  0.9359
17514TIP3    H273958   0.070   5.854   4.431 -0.0365  0.3254 -0.8401
17515TIP3   OH273959   3.383   6.740   1.814 -0.5255 -0.0828  0.4574
17515TIP3    H173960   3.402   6.661   1.865 -0.0398  0.8071  1.7165
17515TIP3    H273961   3.400   6.716   1.723  0.8926 -1.0521  0.9490
17516TIP3   OH273962   2.347   2.028   0.431  0.0945 -0.1392 -0.5447
17516TIP3    H173963   2.290   1.964   0.475  0.4272 -0.3098 -0.3564
17516TIP3    H273964   2.401   1.975   0.372 -1.5741  0.2613 -2.5510
17517TIP3   OH273965   2.382   1.906  14.550 -0.2238  0.2367 -0.2984
17517TIP3    H173966   2.316   1.913  14.481 -1.0224  0.7213  0.4856
17517TIP3    H273967   2.406   1.997  14.569  0.5381  0.0721 -0.4402
17518TIP3   OH273968   6.359   1.036   3.755 -0.3151  0.4031  0.2511
17518TIP3    H173969   6.405   1.082   3.685 -0.0384  1.3093  0.9966
17518TIP3    H273970   6.266   1.047   3.734 -0.2266 -0.0842 -0.4253
17519TIP3   OH273971   2.988   1.388  12.136 -0.1491 -0.0173  0.0221
17519TIP3    H173972   2.946   1.472  12.155 -0.1048 -0.2594  1.2817
17519TIP3    H273973   2.927   1.322  12.172  1.1586 -0.3844  1.6796
17520TIP3   OH273974   1.961   1.920   0.166 -0.1957 -0.0130 -0.1954
17520TIP3    H173975   1.916   1.840   0.194 -0.3415 -0.4441 -1.5537
17520TIP3    H273976   2.010   1.949   0.243 -0.1986 -1.3742  0.3468
17521TIP3   OH273977   0.214   4.774  11.233 -0.1229  0.2226  0.4199
17521TIP3    H173978   0.142   4.791  11.293  0.8377  2.6491  1.0309
17521TIP3    H273979   0.289   4.820  11.272  1.2879 -0.6509 -1.1227
17522TIP3   OH273980   5.642   4.016  14.691 -0.0827  0.0888 -0.2077
17522TIP3    H173981   5.571   3.959  14.723  0.1616 -0.3565 -0.4459
17522TIP3    H273982   5.596   4.089  14.648 -0.4065 -0.4333 -0.7735
17523TIP3   OH273983   3.249   0.977  14.303 -0.1709 -0.5630 -0.3314
17523TIP3    H173984   3.311   1.046  14.327 -3.5064  2.3262  0.8696
17523TIP3    H273985   3.258   0.911  14.372  1.1367  0.0239  0.1002
17524TIP3   OH273986   6.300   5.378   5.438 -0.0812  0.3679 -0.5680
17524TIP3    H173987   6.378   5.370   5.493  0.2981  2.1985 -0.7675
17524TIP3    H273988   6.249   5.448   5.479 -1.9517 -1.2052 -0.1007
17525TIP3   OH273989   0.982   1.490  16.689 -0.4401  0.1117  0.3083
17525TIP3    H173990   0.953   1.548  16.759  0.6674  0.1889  0.7207
17525TIP3    H273991   0.998   1.548  16.615 -1.3405  0.0648  0.0697
17526TIP3   OH273992   1.692   5.533  13.878 -0.0769  0.1389  0.0172
17526TIP3    H173993   1.629   5.480  13.926 -1.8450  2.1932  0.0955
17526TIP3    H273994   1.753   5.565  13.945  0.0496 -0.4675  0.2000
17527TIP3   OH273995   1.616   2.257   5.363  0.0054 -0.2696 -0.1262
17527TIP3    H173996   1.538   2.314   5.359  1.0086  1.1271 -0.6566
17527TIP3    H273997   1.641   2.258   5.456 -0.5117 -0.5934  0.0201
17528TIP3   OH273998   0.457   2.441  11.519  0.3029  0.2096  0.1750
17528TIP3    H173999   0.498   2.432  11.606 -0.2797  0.5037  0.4827
17528TIP3    H274000   0.481   2.529  11.491  1.3737 -0.2601 -0.4300
17529TIP3   OH274001   3.594   5.399  13.639 -0.0366  0.3661  0.6413
17529TIP3    H174002   3.639   5.322  13.673 -1.9109 -0.9499  0.2471
17529TIP3    H274003   3.523   5.416  13.701  0.1055  1.5601  0.5130
17530TIP3   OH274004   2.937   0.690   0.438  0.6399 -0.1174  0.1074
17530TIP3    H174005   2.936   0.785   0.436  1.0031 -0.1091  0.3732
17530TIP3    H274006   2.983   0.664   0.358 -0.2539 -0.0904 -0.4288
17531TIP3   OH274007   1.502   1.554  12.965  0.1935 -0.1346  1.1531
17531TIP3    H174008   1.475   1.604  12.888  1.1205 -2.1429 -0.5691
17531TIP3    H274009   1.597   1.563  12.967  0.2044 -0.3530  1.9209
17532TIP3   OH274010   4.632   4.388  11.992  0.3047  0.0690  0.5052
17532TIP3    H174011   4.571   4.332  12.039 -0.9558  1.2968  0.4244
17532TIP3    H274012   4.703   4.403  12.053 -0.3775  0.0752  1.3155
17533TIP3   OH274013   4.389   1.084  16.522  0.0036  0.0511  0.0913
17533TIP3    H174014   4.349   1.011  16.568  2.6244 -2.4642 -1.3290
17533TIP3    H274015   4.390   1.058  16.430  2.6134  0.9776 -0.2390
17534TIP3   OH274016   2.276   5.843   3.724 -0.7273  0.1364  0.7078
17534TIP3    H174017   2.279   5.773   3.659 -2.9222 -1.0024  1.7478
17534TIP3    H274018   2.325   5.808   3.799  1.4019  1.2646 -0.0870
17535TIP3   OH274019   3.032   6.285   2.573 -0.0187  0.0826  0.5909
17535TIP3    H174020   3.091   6.241   2.635 -0.4933  1.1511  1.8593
17535TIP3    H274021   2.966   6.327   2.629 -1.7355 -0.7034 -0.7626
17536TIP3   OH274022   1.290   6.705   0.488 -0.5734  0.0156 -0.2539
17536TIP3    H174023   1.246   6.780   0.528  1.8395  1.4869 -0.1689
17536TIP3    H274024   1.305   6.732   0.397  0.8884 -0.0717 -0.0573
17537TIP3   OH274025   1.800   5.844  16.511 -0.1170 -0.1855  0.2784
17537TIP3    H174026   1.809   5.939  16.514 -0.0242 -0.1870  0.0812
17537TIP3    H274027   1.878   5.812  16.557  1.2765 -0.2088 -1.9653
17538TIP3   OH274028   4.972   5.140  16.752  0.1601  0.4791 -0.0167
17538TIP3    H174029   4.888   5.117  16.712 -0.1228  1.1023  0.1993
17538TIP3    H274030   4.959   5.229  16.784  0.3100 -0.0809  1.6865
17539TIP3   OH274031   0.812   1.808  15.513 -0.0223 -0.2385 -0.1004
17539TIP3    H174032   0.810   1.813  15.417 -0.5794 -1.2230 -0.1452
17539TIP3    H274033   0.733   1.762  15.537 -0.4383  0.9385  0.9234
17540TIP3   OH274034   4.626   2.439   5.100 -0.0433  0.0837  0.0121
17540TIP3    H174035   4.614   2.401   5.187  1.7582  0.2476  0.3553
17540TIP3    H274036   4.697   2.502   5.111  0.1012  0.2270 -1.5565
17541TIP3   OH274037   6.654   0.779  13.542 -0.4524 -0.4707  0.2216
17541TIP3    H174038   6.653   0.743  13.631  1.8155 -2.1896 -0.3256
17541TIP3    H274039   6.602   0.717  13.491 -2.3823  0.9210  0.4264
17542TIP3   OH274040   5.357   3.420  17.018  0.1022 -0.1257 -0.4438
17542TIP3    H174041   5.450   3.401  17.033  0.5366  2.0738 -0.0943
17542TIP3    H274042   5.357   3.486  16.949 -1.0616  1.4421  1.0000
17543TIP3   OH274043   1.348   2.816  14.294 -0.1185 -0.8039  0.1487
17543TIP3    H174044   1.345   2.803  14.200  2.3209 -0.8963  0.0396
17543TIP3    H274045   1.274   2.764  14.327  0.5155 -2.9313 -1.5172
17544TIP3   OH274046   6.089   4.594   3.436  0.2456  0.2334 -0.4537
17544TIP3    H174047   6.128   4.675   3.470 -1.1747  1.4067 -1.4745
17544TIP3    H274048   6.019   4.574   3.497  0.3723 -0.0393 -0.3970
17545TIP3   OH274049   1.808   5.885  16.069  0.3696  0.1092 -0.2665
17545TIP3    H174050   1.805   5.816  16.136  0.3391  0.7720  0.4359
17545TIP3    H274051   1.902   5.897  16.051  0.3953  0.1325 -0.1204
17546TIP3   OH274052   2.081   3.555   0.739 -0.4270  0.2949 -0.1610
17546TIP3    H174053   2.070   3.466   0.706 -2.0058  0.1622  0.6464
17546TIP3    H274054   1.993   3.592   0.739  0.2842  2.0997 -1.0679
17547TIP3   OH274055   5.330   0.460  15.157  0.3855 -0.0510 -0.2119
17547TIP3    H174056   5.264   0.460  15.088  0.0893  0.2071  0.0686
17547TIP3    H274057   5.342   0.368  15.180  1.0115 -0.1981 -1.1054
17548TIP3   OH274058   6.630   2.905  13.925  0.3307  0.5437 -0.4528
17548TIP3    H174059   6.595   2.952  13.849 -2.9227  2.8387  2.1323
17548TIP3    H274060   6.689   2.968  13.966 -0.9978  0.9519  0.9290
17549TIP3   OH274061   6.131   3.489  11.605  0.7211  0.0480  0.2328
17549TIP3    H174062   6.202   3.539  11.645  0.2907  0.4808  0.4634
17549TIP3    H274063   6.113   3.534  11.523  0.2045  0.4008  0.5295
17550TIP3   OH274064   3.115   6.527   3.859 -0.4461  0.2054 -0.1413
17550TIP3    H174065   3.048   6.514   3.927 -0.3157 -2.6175 -0.4238
17550TIP3    H274066   3.181   6.582   3.900 -1.3492  0.2431  1.3199
17551TIP3   OH274067   4.189   5.498   0.114  0.4788  0.3791 -0.1805
17551TIP3    H174068   4.176   5.575   0.059 -0.0548  1.1799  1.0376
17551TIP3    H274069   4.219   5.430   0.053  0.6348  1.4423 -1.3230
17552TIP3   OH274070   2.705   2.432   1.419  0.7837  0.2203  0.5593
17552TIP3    H174071   2.763   2.372   1.373  0.8514  0.2541  0.6006
17552TIP3    H274072   2.719   2.413   1.511 -0.0191 -0.4784  0.5489
17553TIP3   OH274073   2.219   5.582   4.463  0.1299  0.3104  0.2178
17553TIP3    H174074   2.219   5.501   4.513 -2.9046 -0.3332 -0.5800
17553TIP3    H274075   2.209   5.554   4.372 -4.0987  1.4105  0.1355
17554TIP3   OH274076   6.613   0.555  15.292 -0.4859 -0.0982 -0.5255
17554TIP3    H174077   6.639   0.476  15.339 -1.0359  0.1958  0.3053
17554TIP3    H274078   6.543   0.526  15.234 -0.2305 -0.3496 -0.7070
17555TIP3   OH274079   0.442   6.480  16.710  0.3774 -0.1477 -0.8295
17555TIP3    H174080   0.455   6.488  16.616 -3.3359  2.0151 -1.3585
17555TIP3    H274081   0.496   6.550  16.748  1.1397 -0.4118 -1.4047
17556TIP3   OH274082   1.613   3.619   1.657 -0.0389 -0.1826 -0.0524
17556TIP3    H174083   1.530   3.659   1.684 -1.0748 -0.6159 -2.3210
17556TIP3    H274084   1.618   3.538   1.706 -1.8931 -1.0137 -1.1261
17557TIP3   OH274085   6.164   6.222   0.758 -0.6757  0.0116  0.2877
17557TIP3    H174086   6.088   6.280   0.746  0.5679  1.3820 -1.3808
17557TIP3    H274087   6.229   6.277   0.803 -0.1867 -0.7264  0.5031
17558TIP3   OH274088   3.188   5.491  12.639 -0.3637  0.0123 -0.3472
17558TIP3    H174089   3.093   5.498  12.634 -0.2663  0.6996 -1.4866
17558TIP3    H274090   3.207   5.403  12.605 -0.6111 -0.3560  0.4305
17559TIP3   OH274091   6.133   2.620  15.831  0.1473  0.3352  0.1588
17559TIP3    H174092   6.119   2.604  15.924 -1.1235  2.9351  0.5011
17559TIP3    H274093   6.055   2.667  15.802  1.1671  0.9123 -1.8629
17560TIP3   OH274094   3.618   3.350  14.480  0.1173  0.1395  0.1306
17560TIP3    H174095   3.694   3.293  14.482  0.1558 -0.0670 -2.8329
17560TIP3    H274096   3.652   3.435  14.451 -0.4344  0.7612  1.2485
17561TIP3   OH274097   3.423   2.604  12.937  0.4874 -0.0004  0.2819
17561TIP3    H174098   3.493   2.560  12.986 -0.8535 -1.2366  1.1657
17561TIP3    H274099   3.352   2.615  13.001 -1.5527 -2.1773 -1.4117
17562TIP3   OH274100   4.334   3.615   6.646 -0.6863  0.4029  0.8196
17562TIP3    H174101   4.275   3.640   6.574  1.0652 -1.1230 -1.2811
17562TIP3    H274102   4.407   3.676   6.639 -0.2611 -0.0910  0.9730
17563TIP3   OH274103   6.316   1.284   5.810  0.8271  0.3592  0.4496
17563TIP3    H174104   6.286   1.206   5.856  0.0803 -0.9985 -2.1405
17563TIP3    H274105   6.237   1.324   5.776  1.2678  1.9123  1.1689
17564TIP3   OH274106   5.743   4.681  11.333  0.0141 -0.1690  0.1539
17564TIP3    H174107   5.831   4.710  11.309 -0.2936  0.1391 -0.6431
17564TIP3    H274108   5.742   4.683  11.429  1.4427 -1.8908  0.2536
17565TIP3   OH274109   1.858   6.035  15.617 -0.2579  0.3295 -0.0908
17565TIP3    H174110   1.931   6.093  15.595 -0.9847  0.7367 -1.5249
17565TIP3    H274111   1.881   5.951  15.578  0.3550 -0.1206  1.1826
17566TIP3   OH274112   5.166   2.399   1.861 -0.3896  0.7115 -0.0993
17566TIP3    H174113   5.194   2.462   1.927 -1.9171  1.8275 -0.4563
17566TIP3    H274114   5.247   2.362   1.826  0.4765  1.1743  1.3593
17567TIP3   OH274115   5.309   1.175  11.230 -0.8735 -0.0486  0.4274
17567TIP3    H174116   5.311   1.215  11.143 -0.7830 -0.0457  0.4308
17567TIP3    H274117   5.343   1.087  11.217 -1.5879 -0.3139  0.3232
17568TIP3   OH274118   1.930   5.059   0.578 -0.2011 -0.1394 -0.1022
17568TIP3    H174119   1.918   5.127   0.511  1.9267  0.8764  0.4461
17568TIP3    H274120   1.948   4.979   0.529  0.4305  0.4038 -0.7839
17569TIP3   OH274121   2.982   5.557  17.130 -0.0133  0.4271 -0.0923
17569TIP3    H174122   2.949   5.598  17.210  2.3614  0.4814  0.9652
17569TIP3    H274123   3.035   5.626  17.088  2.6721 -0.9119  0.8482
17570TIP3   OH274124   5.539   2.526   1.435 -0.4292  0.6725  0.1798
17570TIP3    H174125   5.460   2.581   1.435 -0.0698  1.1869  0.3971
17570TIP3    H274126   5.516   2.453   1.377 -0.3625  1.8235 -1.3543
17571TIP3   OH274127   5.731   1.587  12.763  0.0813  0.4424 -0.2350
17571TIP3    H174128   5.661   1.614  12.704  0.8305  1.9761 -0.4581
17571TIP3    H274129   5.767   1.669  12.798  1.4215 -0.3271  0.2803
17572TIP3   OH274130   4.788   1.430   1.676 -0.3971 -0.3007 -0.2180
17572TIP3    H174131   4.862   1.381   1.713 -0.9718 -1.0884 -0.1032
17572TIP3    H274132   4.826   1.478   1.603  0.3104 -0.4051  0.0720
17573TIP3   OH274133   1.586   5.452   0.306 -0.5320  0.2365 -0.0330
17573TIP3    H174134   1.493   5.475   0.299 -0.9706 -1.6244 -1.3889
17573TIP3    H274135   1.585   5.357   0.320  1.1567 -0.0518 -1.5064
17574TIP3   OH274136   5.618   3.224  14.313  0.1404  0.6372  0.3344
17574TIP3    H174137   5.713   3.227  14.314  0.1917  0.7034 -1.6470
17574TIP3    H274138   5.592   3.315  14.296 -0.1914  0.2735 -1.1864
17575TIP3   OH274139   0.396   1.876  11.596  0.2936  0.3094 -0.8083
17575TIP3    H174140   0.384   1.860  11.690 -3.5273  0.3621 -1.1350
17575TIP3    H274141   0.469   1.937  11.591  1.2943 -0.5234  2.0290
17576TIP3   OH274142   5.251   4.422   1.324  0.0389 -0.1688 -0.4303
17576TIP3    H174143   5.234   4.513   1.349  0.4668  0.6989 -2.9290
17576TIP3    H274144   5.168   4.377   1.337 -0.4091  0.7744  0.0766
17577TIP3   OH274145   3.792   3.353  10.807  0.0464 -0.6023 -0.2582
17577TIP3    H174146   3.726   3.287  10.785 -0.3086 -0.1303 -0.6496
17577TIP3    H274147   3.850   3.356  10.731  0.0876 -0.4992 -0.2237
17578TIP3   OH274148   4.332   2.534   1.065  0.2971  0.0071  0.6400
17578TIP3    H174149   4.308   2.534   0.973  0.0129 -0.8348  0.7050
17578TIP3    H274150   4.423   2.565   1.066 -0.3106  1.8984  0.2723
17579TIP3   OH274151   6.548   2.672  16.096  0.2288 -0.5817 -0.2961
17579TIP3    H174152   6.516   2.718  16.018  2.0563  0.1851 -0.6397
17579TIP3    H274153   6.588   2.592  16.063 -0.2525 -0.9582  0.0151
17580TIP3   OH274154   5.847   0.661   3.555 -0.1864 -0.4476  0.1978
17580TIP3    H174155   5.881   0.710   3.630  2.2624 -1.2429 -0.2885
17580TIP3    H274156   5.919   0.602   3.531 -0.7637 -0.0534 -2.9231
17581TIP3   OH274157   2.605   2.591  15.885 -0.5136 -0.0733  0.5043
17581TIP3    H174158   2.522   2.566  15.927 -1.2222  1.0931 -0.1618
17581TIP3    H274159   2.602   2.686  15.880 -0.2395 -0.1321 -1.7366
17582TIP3   OH274160   3.912   6.003   0.301 -0.1381 -0.7685 -0.1651
17582TIP3    H174161   3.981   5.999   0.236  0.9613  0.7117  0.8453
17582TIP3    H274162   3.873   6.089   0.290  0.0496 -0.5026  1.0850
17583TIP3   OH274163   6.535   2.568  10.562  0.0515 -0.3185 -0.0640
17583TIP3    H174164   6.628   2.591  10.556 -0.0249  0.8790  2.2267
17583TIP3    H274165   6.534   2.486  10.610 -0.0996  0.4371  1.2642
17584TIP3   OH274166   2.318   0.378  11.582 -0.1760  0.4841  0.0770
17584TIP3    H174167   2.410   0.373  11.558 -0.4786 -0.9752 -0.9447
17584TIP3    H274168   2.280   0.443  11.523  0.0045  0.3558 -0.1783
17585TIP3   OH274169   0.064   4.958  12.149 -0.0385  0.6598 -0.0218
17585TIP3    H174170   0.139   5.006  12.184  0.0961  0.6397 -0.2829
17585TIP3    H274171   0.102   4.885  12.101 -0.2564 -0.6657  1.7075
17586TIP3   OH274172   6.013   3.162  15.845 -0.5484 -0.1923  0.7789
17586TIP3    H174173   5.976   3.232  15.898  1.0541  0.3160  1.2848
17586TIP3    H274174   5.975   3.174  15.758 -1.1437  0.6126  1.1453
17587TIP3   OH274175   1.996   2.463  14.395  0.1049 -0.2223  0.4855
17587TIP3    H174176   1.954   2.546  14.369  1.1658 -0.3799 -2.0765
17587TIP3    H274177   2.087   2.474  14.370  0.7297 -1.4261  2.1024
17588TIP3   OH274178   3.289   0.524  16.805  0.1148 -0.2011 -0.2127
17588TIP3    H174179   3.256   0.530  16.715  0.1635  0.6342 -0.1773
17588TIP3    H274180   3.358   0.458  16.800 -1.2261 -1.6560 -0.3763
17589TIP3   OH274181   1.450   3.097  13.407  0.3885  0.2108  0.0475
17589TIP3    H174182   1.361   3.105  13.374  0.1021 -1.0807  0.4541
17589TIP3    H274183   1.444   3.123  13.499  0.4272  0.0531  0.0937
17590TIP3   OH274184   1.864   2.028   1.682  0.2915 -0.7297  0.7425
17590TIP3    H174185   1.911   2.095   1.732 -0.9722  1.2185 -0.5115
17590TIP3    H274186   1.927   1.996   1.619  0.2568  1.3403 -0.4547
17591TIP3   OH274187   1.342   6.473   0.676  0.0841  0.1629  0.3738
17591TIP3    H174188   1.252   6.459   0.704  0.1774 -0.7101  0.2802
17591TIP3    H274189   1.338   6.549   0.618 -0.7216 -0.3394 -0.2480
17592TIP3   OH274190   2.364   3.129  14.937  0.5982  0.2461 -0.4422
17592TIP3    H174191   2.307   3.122  14.860 -0.6610 -1.3478  0.5694
17592TIP3    H274192   2.339   3.211  14.979 -0.0553  0.1813 -0.6984
17593TIP3   OH274193   5.606   1.287  14.470 -0.1962 -0.0545  0.3995
17593TIP3    H174194   5.589   1.362  14.413 -2.2108 -0.2328  0.6621
17593TIP3    H274195   5.700   1.273  14.466 -0.1977  0.2784 -2.4260
17594TIP3   OH274196   0.446   0.238  16.596  0.4632  0.2280  0.5935
17594TIP3    H174197   0.362   0.199  16.623  0.3057  0.6544  0.7339
17594TIP3    H274198   0.426   0.281  16.513  0.5558  0.2921  0.6053
17595TIP3   OH274199   4.669   4.947   3.606 -0.0007 -0.1277  0.0192
17595TIP3    H174200   4.579   4.913   3.606  0.2343 -0.7433 -0.2353
17595TIP3    H274201   4.659   5.037   3.638 -0.5548 -0.6160  1.2979
17596TIP3   OH274202   1.322   4.757   0.735  0.1369  0.0435  0.2716
17596TIP3    H174203   1.411   4.768   0.767  1.1853 -0.9131 -2.0780
17596TIP3    H274204   1.332   4.723   0.646 -2.5897 -0.6138  0.1096
17597TIP3   OH274205   4.488   2.620   1.738 -0.2454 -0.0594 -0.5569
17597TIP3    H174206   4.426   2.693   1.745 -0.3224  0.0958 -2.3598
17597TIP3    H274207   4.434   2.546   1.708 -0.1470 -0.8689  1.1415
17598TIP3   OH274208   2.742   2.165   1.223  0.0016  0.0034 -0.3582
17598TIP3    H174209   2.821   2.170   1.169 -0.2600 -0.3838 -0.7866
17598TIP3    H274210   2.711   2.075   1.212  0.2629 -0.2568  0.9079
17599TIP3   OH274211   5.656   4.161   0.318  0.7343  0.1426  0.4818
17599TIP3    H174212   5.601   4.152   0.396  1.8649  3.5042  1.8416
17599TIP3    H274213   5.637   4.249   0.284  1.3612 -0.6595 -2.2324
17600TIP3   OH274214   6.182   4.761   1.215  0.1198  0.5273 -0.6081
17600TIP3    H174215   6.137   4.828   1.266 -0.6740 -0.9845  0.7907
17600TIP3    H274216   6.270   4.758   1.251  0.2397  1.0195 -0.8653
17601TIP3   OH274217   3.703   1.443  17.070 -0.2335  0.2073  0.2268
17601TIP3    H174218   3.742   1.388  17.137 -1.7498 -2.4475 -0.8944
17601TIP3    H274219   3.640   1.385  17.026  0.0364  2.0637 -2.8686
17602TIP3   OH274220   1.090   6.327   2.768  0.2229  0.1060 -0.1953
17602TIP3    H174221   1.097   6.243   2.721 -1.5089  0.3645 -1.0128
17602TIP3    H274222   1.056   6.303   2.855 -1.1274 -0.0089 -0.7265
17603TIP3   OH274223   5.494   0.262  15.284 -0.3375  0.2997  0.0427
17603TIP3    H174224   5.540   0.277  15.367  0.0459 -1.8957  0.2787
17603TIP3    H274225   5.533   0.182  15.249 -0.5687  1.1117 -2.2352
17604TIP3   OH274226   6.346   6.201  11.623  0.1366 -0.3181 -0.1560
17604TIP3    H174227   6.343   6.173  11.531 -1.2373  1.8390 -0.8495
17604TIP3    H274228   6.433   6.240  11.633 -0.1074  0.4550 -0.9049
17605TIP3   OH274229   2.099   4.459   1.333 -0.0398 -0.2049  0.3635
17605TIP3    H174230   2.040   4.511   1.277 -0.2779 -1.3133 -0.4447
17605TIP3    H274231   2.180   4.453   1.282  0.1702 -0.1800  0.6924
17606TIP3   OH274232   0.154   3.676   3.489 -0.3334  0.2773 -0.4199
17606TIP3    H174233   0.160   3.592   3.444  0.5101  0.8330 -1.4100
17606TIP3    H274234   0.062   3.685   3.512 -0.5658 -0.5767 -0.9708
17607TIP3   OH274235   2.314   4.429  15.964 -0.2428  0.1723 -0.3649
17607TIP3    H174236   2.401   4.450  15.998 -0.3562 -0.7167  0.5630
17607TIP3    H274237   2.254   4.464  16.030 -0.5583  0.3052 -0.7256
17608TIP3   OH274238   1.842   0.006   0.945 -0.2848  0.0999  0.4748
17608TIP3    H174239   1.799  -0.047   0.878 -0.9860  0.8203  0.3394
17608TIP3    H274240   1.772   0.062   0.980  0.4252  0.8926  0.6586
17609TIP3   OH274241   0.522   4.261   5.620  0.2448  0.2504 -0.0895
17609TIP3    H174242   0.444   4.238   5.671 -0.6428  2.3267 -0.3985
17609TIP3    H274243   0.594   4.258   5.684 -0.0455 -1.7472  0.1836
17610TIP3   OH274244   6.404   4.897  15.473 -0.3593  0.4606 -0.3019
17610TIP3    H174245   6.481   4.937  15.514 -0.3490  0.3024 -0.1674
17610TIP3    H274246   6.338   4.897  15.543 -0.7280  1.2913 -0.6287
17611TIP3   OH274247   3.068   0.636   0.215  0.5826 -0.5342  0.2945
17611TIP3    H174248   3.153   0.675   0.236  0.8164 -1.4329  1.0897
17611TIP3    H274249   3.085   0.542   0.211 -0.4001 -0.7359  0.5973
17612TIP3   OH274250   4.571   5.797  16.777  0.1448 -0.0028  0.2364
17612TIP3    H174251   4.598   5.816  16.867  0.0705 -0.9292  0.4710
17612TIP3    H274252   4.483   5.836  16.770  0.3906  0.5896  0.3668
17613TIP3   OH274253   6.182   3.819  16.684  0.3104 -0.0740  0.3767
17613TIP3    H174254   6.202   3.911  16.704  3.6416 -1.0620  2.3972
17613TIP3    H274255   6.124   3.791  16.754 -0.2346  0.3117  0.0870
17614TIP3   OH274256   0.984   5.987   3.460 -0.9629  0.0080 -0.0409
17614TIP3    H174257   1.045   6.058   3.478  0.2841 -0.3813 -2.3027
17614TIP3    H274258   1.006   5.920   3.524 -0.1509  0.5260  0.2444
17615TIP3   OH274259   5.214   0.755   0.743 -0.6019  0.6789 -0.2660
17615TIP3    H174260   5.142   0.784   0.688 -1.9633  2.0806  2.0916
17615TIP3    H274261   5.259   0.836   0.768 -1.2746  0.3575  2.2348
17616TIP3   OH274262   2.597   1.704   4.976  0.7680  0.3194  0.1393
17616TIP3    H174263   2.679   1.752   4.992  1.1582  0.4410 -1.9676
17616TIP3    H274264   2.542   1.765   4.927 -0.3683  0.0069  0.9688
17617TIP3   OH274265   0.581   5.284   0.750  0.0347  0.4460  0.1546
17617TIP3    H174266   0.560   5.358   0.694  0.9674  2.1580  1.9435
17617TIP3    H274267   0.669   5.258   0.723 -0.8953 -1.1662 -1.5743
17618TIP3   OH274268   4.123   2.537  16.033  0.4601  0.3594 -0.0775
17618TIP3    H174269   4.215   2.512  16.036  0.0076 -1.7935 -1.6436
17618TIP3    H274270   4.124   2.632  16.042  2.5609  0.1896  3.0069
17619TIP3   OH274271   1.676   2.682  15.524  0.1580  0.7903  0.2434
17619TIP3    H174272   1.703   2.598  15.561 -0.1313  1.2138  1.4751
17619TIP3    H274273   1.668   2.666  15.430 -0.5772 -0.7392  0.5430
17620TIP3   OH274274   5.847   4.310   4.514 -0.0724  0.4885 -0.2540
17620TIP3    H174275   5.760   4.283   4.484 -1.1618  1.5463  1.8025
17620TIP3    H274276   5.858   4.267   4.599  1.1384  0.9219 -0.1647
17621TIP3   OH274277   0.717   3.182  14.965 -0.0446 -0.0262 -0.1628
17621TIP3    H174278   0.809   3.169  14.940 -0.0753 -0.0181 -0.2782
17621TIP3    H274279   0.721   3.248  15.035  0.2348 -1.6959  1.4642
17622TIP3   OH274280   1.716   0.468   0.096  0.1989 -0.5539  0.5587
17622TIP3    H174281   1.655   0.515   0.038 -1.1186 -1.8920  0.8182
17622TIP3    H274282   1.729   0.383   0.054  1.5753 -0.4674  0.7413
17623TIP3   OH274283   0.535   1.146  15.624 -0.2596  0.4562 -0.4368
17623TIP3    H174284   0.475   1.174  15.555  0.4588  1.5597 -0.6444
17623TIP3    H274285   0.595   1.220  15.635 -0.0717  0.1155  1.0464
17624TIP3   OH274286   0.517   3.293  14.364 -0.0110  0.7622 -0.2301
17624TIP3    H174287   0.459   3.336  14.427  1.5756 -1.1524  2.7892
17624TIP3    H274288   0.598   3.343  14.369  0.0986  0.6529 -0.8659
17625TIP3   OH274289   0.648   1.675   1.985 -0.5151 -0.3510 -0.5372
17625TIP3    H174290   0.668   1.581   1.987 -0.5885 -0.3642 -0.4130
17625TIP3    H274291   0.718   1.714   1.932 -0.3866 -0.4514 -0.4386
17626TIP3   OH274292   5.508   2.888   0.060 -0.1708 -0.4051  0.3028
17626TIP3    H174293   5.558   2.970   0.061 -1.0926  0.1665  0.2435
17626TIP3    H274294   5.482   2.876  -0.031 -1.5969  0.2154  0.6028
17627TIP3   OH274295   0.046   3.136  16.384 -0.1676  0.0068  0.2722
17627TIP3    H174296  -0.024   3.168  16.441 -0.0802  0.3789  0.1719
17627TIP3    H274297   0.038   3.188  16.304  0.5632  0.4390  0.4722
17628TIP3   OH274298   6.667   2.669  10.870 -0.2483 -0.1748 -0.0138
17628TIP3    H174299   6.713   2.735  10.922 -2.1546  1.9830 -0.8911
17628TIP3    H274300   6.719   2.663  10.790  0.7965 -0.9438  0.6961
17629TIP3   OH274301   2.933   2.975   1.956 -0.4758  0.4351 -0.0947
17629TIP3    H174302   2.883   2.894   1.945 -0.1555  0.0287  1.2768
17629TIP3    H274303   3.021   2.954   1.924 -0.2996  0.1174  0.5768
17630TIP3   OH274304   4.029   5.148  15.336  0.6489 -0.0319 -0.6757
17630TIP3    H174305   4.074   5.124  15.418  1.2682  3.1964  0.0581
17630TIP3    H274306   3.972   5.221  15.361 -0.8182 -0.4006 -2.7423
17631TIP3   OH274307   3.147   4.278   0.500  0.6663 -0.1380 -0.1602
17631TIP3    H174308   3.234   4.317   0.497  0.2752  0.7027 -1.8464
17631TIP3    H274309   3.088   4.353   0.508  0.0059 -0.5019 -1.4215
17632TIP3   OH274310   5.053   0.988  17.023  1.0070  0.5208  0.6960
17632TIP3    H174311   5.040   0.952  16.935 -0.2833 -1.3655  1.5946
17632TIP3    H274312   5.110   1.064  17.009  1.0508  0.1370 -1.7240
17633TIP3   OH274313   0.826   3.917  16.666 -0.2511 -0.0373  0.0419
17633TIP3    H174314   0.802   4.006  16.639 -0.6804 -0.0857  0.2545
17633TIP3    H274315   0.869   3.880  16.589  1.1914  0.8141  0.3999
17634TIP3   OH274316   1.293   0.699   3.803 -0.4004 -1.4523  0.6599
17634TIP3    H174317   1.301   0.666   3.714 -1.4629  1.1229 -0.5118
17634TIP3    H274318   1.201   0.726   3.810 -0.1720 -0.9932  2.3066
17635TIP3   OH274319   0.332   6.091   1.199  0.4639  0.3431 -0.6032
17635TIP3    H174320   0.299   6.077   1.110  2.5271 -0.4664 -1.3101
17635TIP3    H274321   0.413   6.142   1.187 -0.6211  2.6481  1.0628
17636TIP3   OH274322   5.073   5.447  16.935 -0.1673 -0.0205 -0.3424
17636TIP3    H174323   5.023   5.370  16.964 -0.8031  0.7368  0.6274
17636TIP3    H274324   5.007   5.506  16.898  0.1493  0.5462 -0.0204
17637TIP3   OH274325   5.496   4.541  10.853 -0.3363  0.3993 -0.3665
17637TIP3    H174326   5.498   4.636  10.838  0.2025  0.3125 -0.8454
17637TIP3    H274327   5.451   4.532  10.938 -0.2748  1.0893 -0.2515
17638TIP3   OH274328   1.129   3.219  15.904 -0.2051  0.5634 -0.4708
17638TIP3    H174329   1.111   3.179  15.989  0.6859  0.7754 -0.1650
17638TIP3    H274330   1.221   3.246  15.910  0.3880 -0.9263 -2.0981
17639TIP3   OH274331   3.015   0.187   3.912 -0.2138 -0.3002 -0.2337
17639TIP3    H174332   3.039   0.098   3.887  0.2774 -0.3982  0.5455
17639TIP3    H274333   3.085   0.241   3.876 -0.1769 -0.3002 -0.1622
17640TIP3   OH274334   1.638   2.854  12.095  0.0327 -0.3673 -0.4810
17640TIP3    H174335   1.574   2.783  12.107 -1.3740  0.8322 -0.6945
17640TIP3    H274336   1.600   2.909  12.027  0.7957  0.9421  0.1283
17641TIP3   OH274337   1.348   5.809   5.600 -0.9961  0.4511  0.0353
17641TIP3    H174338   1.284   5.738   5.600  0.8903 -1.3995 -2.0237
17641TIP3    H274339   1.312   5.874   5.539 -0.7531 -0.7981 -1.4980
17642TIP3   OH274340   5.541   4.788  13.226 -0.3200  0.4646  0.4154
17642TIP3    H174341   5.513   4.758  13.139  2.7323  0.6860 -0.7560
17642TIP3    H274342   5.521   4.714  13.283 -1.0966 -0.2618 -0.7298
17643TIP3   OH274343   5.562   2.667   6.114 -0.3373 -0.0158  0.1803
17643TIP3    H174344   5.542   2.579   6.146  2.7068 -0.2337  1.8577
17643TIP3    H274345   5.519   2.725   6.177  0.0516 -0.3509  0.7605
17644TIP3   OH274346   0.057   0.213   1.750  0.4155 -0.0987 -0.2691
17644TIP3    H174347   0.073   0.225   1.844 -0.9319 -2.3198  0.3222
17644TIP3    H274348   0.138   0.175   1.716  0.1673 -1.3601  0.4888
17645TIP3   OH274349   3.446   3.014  12.812 -0.1092 -0.4800  0.5967
17645TIP3    H174350   3.424   3.080  12.879  1.6458 -1.5452  2.3465
17645TIP3    H274351   3.365   3.001  12.764 -0.6251  2.6930  0.3862
17646TIP3   OH274352   5.835   0.150   4.272 -0.2344  0.0596  0.2007
17646TIP3    H174353   5.786   0.068   4.262 -0.8156  0.3012  0.9757
17646TIP3    H274354   5.767   0.218   4.275  0.2374  0.5641 -0.2781
17647TIP3   OH274355   5.796   6.394   6.517 -0.2330 -0.1730 -0.0191
17647TIP3    H174356   5.833   6.472   6.557 -0.5510 -0.0374  0.0151
17647TIP3    H274357   5.858   6.324   6.538 -0.8012 -0.2768  1.4558
17648TIP3   OH274358   5.358   5.217   0.336  0.2413  0.3715  0.4128
17648TIP3    H174359   5.397   5.214   0.249  1.8277 -1.5484  1.1120
17648TIP3    H274360   5.263   5.212   0.320  0.5442 -1.4336 -1.1854
17649TIP3   OH274361   1.319   0.991  16.594 -0.0223 -0.8297 -0.1467
17649TIP3    H174362   1.290   0.956  16.678 -0.8254 -2.9581 -1.2576
17649TIP3    H274363   1.275   1.076  16.587  2.3007  0.8510  2.8051
17650TIP3   OH274364   2.020   0.128   2.317 -0.1716  0.1988 -0.5270
17650TIP3    H174365   1.971   0.203   2.285  0.2930  0.8450  0.2140
17650TIP3    H274366   1.954   0.067   2.349 -0.5336  0.6205 -0.4632
17651TIP3   OH274367   1.536   5.058   0.894  0.1388 -0.0218  0.2176
17651TIP3    H174368   1.528   4.985   0.833 -2.2090  0.7302 -0.5200
17651TIP3    H274369   1.629   5.077   0.897  0.6917 -2.2949 -0.4325
17652TIP3   OH274370   0.200   2.223   2.382 -0.2247  0.3612 -0.3542
17652TIP3    H174371   0.294   2.240   2.390 -0.4716  1.8390 -0.2308
17652TIP3    H274372   0.177   2.257   2.295 -1.1621  2.9001  0.7837
17653TIP3   OH274373   0.540   0.845  13.761  0.6277 -0.4995  0.3481
17653TIP3    H174374   0.634   0.840  13.745  0.6096  4.1586 -3.2335
17653TIP3    H274375   0.531   0.897  13.840  1.2271  1.7231 -0.9787
17654TIP3   OH274376   6.666   0.918   4.311 -0.4466 -0.2170  0.4286
17654TIP3    H174377   6.747   0.905   4.359 -0.2251  0.0811  0.1353
17654TIP3    H274378   6.597   0.897   4.374 -0.1562  0.0556  0.8369
17655TIP3   OH274379   2.534   2.302   3.984 -0.4261  0.4152 -0.1860
17655TIP3    H174380   2.596   2.250   4.035  0.2697 -0.3810 -1.7634
17655TIP3    H274381   2.485   2.352   4.049  0.9367  0.0272  1.1864
17656TIP3   OH274382   6.737   1.211  15.674  0.1242 -0.1489  0.5029
17656TIP3    H174383   6.824   1.243  15.696 -0.0346 -0.6345  1.9084
17656TIP3    H274384   6.728   1.229  15.580  0.9543  1.7282  0.7461
17657TIP3   OH274385   3.488   5.130   0.238 -0.2638  0.0739  0.5824
17657TIP3    H174386   3.485   5.075   0.159  0.4123 -1.9377  1.8634
17657TIP3    H274387   3.412   5.188   0.230 -1.9063 -2.0399 -0.2111
17658TIP3   OH274388   2.934   2.546  13.403 -0.3140 -0.7365  0.3599
17658TIP3    H174389   2.865   2.515  13.344  0.2175  0.3854 -0.9032
17658TIP3    H274390   2.919   2.640  13.411  1.2727 -0.3854 -0.2830
17659TIP3   OH274391   2.572   2.723  14.794 -0.7325  0.7746 -0.3324
17659TIP3    H174392   2.573   2.788  14.864  0.3434  1.3406 -0.8528
17659TIP3    H274393   2.606   2.769  14.717  1.3997 -0.7169 -0.3849
17660TIP3   OH274394   1.042   3.264   4.229 -0.0744 -0.0645  0.0760
17660TIP3    H174395   1.098   3.188   4.241  1.4563  0.6852 -1.8248
17660TIP3    H274396   1.057   3.291   4.139 -2.3858  1.0942 -0.0468
17661TIP3   OH274397   3.188   2.387  17.189 -0.6097 -0.7087  0.3361
17661TIP3    H174398   3.153   2.357  17.106 -2.5049 -0.4924  1.0209
17661TIP3    H274399   3.282   2.371  17.182 -0.3944  1.1350 -2.6234
17662TIP3   OH274400   5.494   1.999  14.831  0.2650  0.4795 -0.5294
17662TIP3    H174401   5.449   2.018  14.914  0.9388  3.6480 -0.7480
17662TIP3    H274402   5.424   1.972  14.772 -0.9234  2.1458  0.0199
17663TIP3   OH274403   0.148   5.167   4.041  0.4935  0.5694 -0.0629
17663TIP3    H174404   0.083   5.195   4.106  1.2662 -1.8472  1.9415
17663TIP3    H274405   0.219   5.129   4.093  2.1348  0.3761 -2.2954
17664TIP3   OH274406   1.426   5.552  15.619 -0.0714 -0.1132  0.2196
17664TIP3    H174407   1.431   5.561  15.714 -1.5912 -1.0793  0.4312
17664TIP3    H274408   1.398   5.639  15.588 -2.2202 -0.4763  0.9605
17665TIP3   OH274409   4.494   3.628  14.985  0.1859 -0.0640  0.2295
17665TIP3    H174410   4.586   3.649  15.001  0.5608 -1.3303 -0.1629
17665TIP3    H274411   4.484   3.633  14.890  0.2018 -1.2230  0.1517
17666TIP3   OH274412   3.417   6.161   2.751  0.0669  0.2682  0.5063
17666TIP3    H174413   3.448   6.148   2.840  1.1272  0.8621  0.2421
17666TIP3    H274414   3.494   6.190   2.702  0.0975 -2.3468 -1.1661
17667TIP3   OH274415   4.433   5.575  12.435  0.0360  0.4319 -0.5372
17667TIP3    H174416   4.382   5.515  12.380 -0.4170  0.1832  0.1437
17667TIP3    H274417   4.467   5.640  12.373  1.2723 -0.9920 -1.4289
17668TIP3   OH274418   1.947   2.179  11.701  0.3244  0.0309 -0.1314
17668TIP3    H174419   1.935   2.273  11.714 -1.4949 -0.4606  2.9559
17668TIP3    H274420   2.038   2.163  11.725  0.1378  0.8287  1.2669
17669TIP3   OH274421   2.451   1.866  16.418  0.6982 -0.0980 -0.0036
17669TIP3    H174422   2.500   1.830  16.491 -0.1051 -3.9340 -1.1530
17669TIP3    H274423   2.374   1.907  16.458  1.5181  0.1525  1.3817
17670TIP3   OH274424   0.357   2.801   0.554 -0.1704  0.3304  0.3967
17670TIP3    H174425   0.361   2.859   0.631  1.6909  0.6328  0.1220
17670TIP3    H274426   0.410   2.725   0.578 -1.9171 -0.9309  0.4361
17671TIP3   OH274427   5.441   4.614  12.803 -0.1268 -1.3913 -0.0457
17671TIP3    H174428   5.470   4.701  12.830 -1.0490 -1.2664  0.5857
17671TIP3    H274429   5.397   4.578  12.880  0.5396 -2.5619 -0.1961
17672TIP3   OH274430   0.647   0.976  13.394 -0.2125 -0.7134 -0.3043
17672TIP3    H174431   0.710   0.985  13.466  0.1603  1.5152 -0.8351
17672TIP3    H274432   0.697   0.932  13.324 -0.1487 -1.5689  0.2600
17673TIP3   OH274433   5.364   0.497   5.733  0.3709 -0.1508 -0.1274
17673TIP3    H174434   5.383   0.588   5.754  2.9332 -0.6823  0.2370
17673TIP3    H274435   5.312   0.501   5.653  1.3607  1.6275 -0.7357
17674TIP3   OH274436   5.085   4.717  16.608  0.3773  0.8698 -0.1908
17674TIP3    H174437   5.068   4.634  16.654  1.9918  1.0502  0.8129
17674TIP3    H274438   5.179   4.713  16.587  0.0356  1.5709 -1.9518
17675TIP3   OH274439   3.389   1.186   2.480 -0.9573  0.4832 -0.4123
17675TIP3    H174440   3.309   1.232   2.508 -0.3614  0.5867  1.2811
17675TIP3    H274441   3.362   1.094   2.470 -1.0238  0.2131  1.7035
17676TIP3   OH274442   0.724   5.692   2.022  0.3529  0.3058  0.2239
17676TIP3    H174443   0.715   5.651   1.936  0.0146  0.1367  0.3397
17676TIP3    H274444   0.766   5.625   2.077  0.2630  0.2945  0.2793
17677TIP3   OH274445   0.294   0.387  13.212 -0.1142 -0.4109 -0.4134
17677TIP3    H174446   0.327   0.476  13.207 -0.5198 -0.2982 -1.2261
17677TIP3    H274447   0.354   0.343  13.273  0.6954  0.1452 -0.7837
17678TIP3   OH274448   6.398   6.263  13.147 -0.3000  0.4915  0.1637
17678TIP3    H174449   6.383   6.177  13.187  0.6351  0.6569  0.9103
17678TIP3    H274450   6.312   6.304  13.146 -0.6159 -0.1414  0.5604
17679TIP3   OH274451   0.994   5.067   1.804  0.2456 -0.9084 -0.0913
17679TIP3    H174452   0.927   5.017   1.849 -1.5743  1.5843  0.1944
17679TIP3    H274453   1.032   5.124   1.871  1.2977 -0.9249 -0.6413
17680TIP3   OH274454   2.418   1.380  15.419 -0.0912  0.4438 -0.7586
17680TIP3    H174455   2.452   1.412  15.336  1.5724 -0.6516 -0.5634
17680TIP3    H274456   2.464   1.296  15.433 -0.3692  0.5627  1.2087
17681TIP3   OH274457   3.773   1.501   4.348  0.2500 -0.4199  0.0273
17681TIP3    H174458   3.844   1.449   4.310 -0.4283 -0.9598 -0.5201
17681TIP3    H274459   3.816   1.554   4.415  1.0719 -1.1810  0.1252
17682TIP3   OH274460   5.559   1.916  12.616 -0.8010  0.3436 -0.1543
17682TIP3    H174461   5.517   1.937  12.700 -0.4140 -0.8811  0.3671
17682TIP3    H274462   5.554   1.821  12.610 -0.0944  0.3553 -1.1501
17683TIP3   OH274463   2.618   1.207  17.206 -0.4544 -0.1536  1.2052
17683TIP3    H174464   2.621   1.283  17.265 -1.8787  0.7580  0.1627
17683TIP3    H274465   2.690   1.223  17.144  0.6229 -0.7797  2.2535
17684TIP3   OH274466   4.061   4.630   4.573  0.4223 -0.6378  0.4898
17684TIP3    H174467   4.098   4.718   4.572 -2.7849  0.8466  0.9855
17684TIP3    H274468   4.068   4.599   4.483  0.2815  0.7344 -0.0073
17685TIP3   OH274469   6.396   2.780  11.549 -0.0955  0.3011  0.0044
17685TIP3    H174470   6.446   2.805  11.472  1.3942 -1.8861  0.1764
17685TIP3    H274471   6.460   2.778  11.620 -0.7965 -0.6482  0.6428
17686TIP3   OH274472   1.448   6.342   1.131 -0.7656 -0.6377 -0.3377
17686TIP3    H174473   1.470   6.341   1.224  0.1873 -0.5708 -0.5527
17686TIP3    H274474   1.459   6.252   1.102  0.6222 -0.3585 -0.7487
17687TIP3   OH274475   5.948   3.291  14.428 -0.4789 -0.7443  0.1792
17687TIP3    H174476   5.970   3.383  14.414 -0.3169 -0.8220 -0.0863
17687TIP3    H274477   5.998   3.265  14.506  0.1614 -0.8450 -0.2596
17688TIP3   OH274478   0.853   0.967  15.679  0.4629  0.2007  0.0270
17688TIP3    H174479   0.909   0.928  15.746 -1.1254 -1.2728  0.5809
17688TIP3    H274480   0.815   1.044  15.721  0.8488  0.3001  0.1974
17689TIP3   OH274481   2.365   1.942  12.480  0.7074  0.4112  0.6010
17689TIP3    H174482   2.372   1.943  12.576  1.3570  0.9424  0.5565
17689TIP3    H274483   2.329   2.028  12.458  0.6356  0.3205  0.3580
17690TIP3   OH274484   3.158   2.201   0.357 -0.0964 -0.6630  0.3339
17690TIP3    H174485   3.219   2.255   0.306 -0.3079 -0.7544 -0.0173
17690TIP3    H274486   3.103   2.159   0.292 -0.0441 -1.1781  0.6148
17691TIP3   OH274487   5.301   4.173   0.360 -0.5964  0.3132 -0.2948
17691TIP3    H174488   5.335   4.195   0.273  0.5825 -0.3525 -0.0245
17691TIP3    H274489   5.379   4.164   0.414 -1.3360  1.1928  0.9634
17692TIP3   OH274490   0.562   5.678  15.840 -0.2575 -0.2968 -0.0214
17692TIP3    H174491   0.502   5.735  15.791 -0.5821  0.9837  1.7504
17692TIP3    H274492   0.647   5.721  15.833 -0.4571  0.3298  1.1257
17693TIP3   OH274493   1.595   2.694   3.000 -0.0536  0.2033 -0.6676
17693TIP3    H174494   1.575   2.633   2.929 -1.3844 -0.0437 -0.1283
17693TIP3    H274495   1.609   2.778   2.957  0.0311 -0.1235 -1.2845
17694TIP3   OH274496   3.979   0.804   3.440  0.0922 -0.0451 -0.0184
17694TIP3    H174497   4.017   0.773   3.522  2.9566 -0.5078 -1.3937
17694TIP3    H274498   3.958   0.896   3.457  1.0783  0.0002  1.0914
17695TIP3   OH274499   4.009   0.230   5.893  1.3461 -0.2456  0.2593
17695TIP3    H174500   3.965   0.239   5.978 -2.4589 -2.7153 -1.1611
17695TIP3    H274501   3.962   0.291   5.835  0.8879 -1.6337 -0.9142
17696TIP3   OH274502   1.388   2.499   3.414  0.5522 -0.0049 -0.0458
17696TIP3    H174503   1.348   2.519   3.329  2.4142 -0.9675 -1.2098
17696TIP3    H274504   1.345   2.559   3.475 -0.8675  0.6909 -1.6445
17697TIP3   OH274505   2.265   2.148   4.092  0.0844  0.5061 -0.2037
17697TIP3    H174506   2.245   2.241   4.101 -2.0243  0.0672  0.2510
17697TIP3    H274507   2.326   2.130   4.163 -0.9528  1.1970  0.9202
17698TIP3   OH274508   5.987   1.480   1.372  0.7583 -0.0495  0.0140
17698TIP3    H174509   5.952   1.401   1.331  0.0485 -0.5996  1.6208
17698TIP3    H274510   5.943   1.552   1.326  0.0936 -0.6331 -0.2878
17699TIP3   OH274511   2.784   3.007   2.638 -0.0557  0.7546  0.0480
17699TIP3    H174512   2.716   3.019   2.571 -1.7599 -1.9632  1.1283
17699TIP3    H274513   2.790   3.093   2.680 -2.8184  1.1807 -0.1798
17700TIP3   OH274514   5.929   1.802  13.811  0.0365  0.1353  0.1121
17700TIP3    H174515   5.905   1.868  13.877  0.6902  1.8322 -1.2573
17700TIP3    H274516   6.023   1.791  13.821 -0.0846 -0.7234  0.4074
17701TIP3   OH274517   1.055   5.298  16.687  0.2218  0.2147  0.1943
17701TIP3    H174518   1.085   5.244  16.613 -0.5625  0.8697 -0.6323
17701TIP3    H274519   0.967   5.326  16.661  0.6231  1.9197  0.5765
17702TIP3   OH274520   0.362   2.580   5.276  0.3817 -0.9424  0.2754
17702TIP3    H174521   0.402   2.665   5.293  0.0696 -0.9762  1.2339
17702TIP3    H274522   0.435   2.524   5.250  0.3929 -0.0123 -1.9861
17703TIP3   OH274523   1.541   0.289  15.366 -0.3148 -0.0544 -0.6004
17703TIP3    H174524   1.481   0.363  15.372  2.2845  2.1249  3.8255
17703TIP3    H274525   1.488   0.213  15.390 -2.0554  1.2243 -0.2073
17704TIP3   OH274526   5.505   2.810  13.519  0.1949 -0.0626 -0.3071
17704TIP3    H174527   5.481   2.731  13.567 -0.5515  1.0508  1.2306
17704TIP3    H274528   5.422   2.856  13.505  0.6012  0.4189 -1.2742
17705TIP3   OH274529   0.801   0.415  16.499 -0.3537  0.4460  0.0004
17705TIP3    H174530   0.726   0.474  16.487  0.6797  1.5389 -1.4109
17705TIP3    H274531   0.878   0.471  16.491  0.6464 -0.8313  0.3029
17706TIP3   OH274532   4.921   0.031   1.576 -0.1731 -0.7970  0.0290
17706TIP3    H174533   5.009  -0.004   1.563  0.0929  0.0319 -0.4251
17706TIP3    H274534   4.927   0.123   1.550 -1.3871 -0.9611 -0.9104
17707TIP3   OH274535   1.197   5.921  16.003 -0.0097 -0.1265  0.1188
17707TIP3    H174536   1.137   5.869  16.056 -0.2857  0.6689  0.6013
17707TIP3    H274537   1.275   5.932  16.058 -0.4294  0.9891  0.5219
17708TIP3   OH274538   2.735   2.222   0.693 -0.2817 -0.3701  0.3740
17708TIP3    H174539   2.823   2.227   0.730  0.2912 -3.8060 -0.1208
17708TIP3    H274540   2.678   2.207   0.769 -0.1567 -0.1737  0.5077
17709TIP3   OH274541   0.016   4.939   0.339 -0.3557 -0.1064 -0.4600
17709TIP3    H174542  -0.047   4.912   0.406 -0.2850  1.0538  0.0977
17709TIP3    H274543  -0.030   5.005   0.288  0.5627  1.1531  0.2872
17710TIP3   OH274544   0.094   3.760  16.536  0.4945 -0.3358  0.3304
17710TIP3    H174545   0.085   3.744  16.630  1.8416 -1.0618  0.3495
17710TIP3    H274546   0.059   3.848  16.523  1.0455  0.0908  1.6467
17711TIP3   OH274547   1.018   5.530  14.430  0.3183  0.3408  0.1287
17711TIP3    H174548   1.112   5.546  14.423  0.1297  1.5743  0.2795
17711TIP3    H274549   1.010   5.434  14.435  1.6342  0.2576  1.1460
17712TIP3   OH274550   5.171   5.837   1.418  0.2222  0.5136  0.0504
17712TIP3    H174551   5.118   5.759   1.432 -0.0821  0.7045 -0.0201
17712TIP3    H274552   5.259   5.804   1.401  0.2842  0.2227  0.9064
17713TIP3   OH274553   1.016   2.737   4.961 -0.3111  0.4158  0.5562
17713TIP3    H174554   1.020   2.793   4.884  2.8133  0.8586  0.8758
17713TIP3    H274555   0.923   2.733   4.984 -1.1340  1.6471 -2.1910
17714TIP3   OH274556   0.695   5.783   0.574  0.7653  0.2791  0.0370
17714TIP3    H174557   0.780   5.759   0.538 -0.0603 -0.2464 -1.7148
17714TIP3    H274558   0.685   5.727   0.651  1.8682  0.1486  0.0986
17715TIP3   OH274559   1.527   6.463  10.307  0.6388 -0.5387 -0.5461
17715TIP3    H174560   1.523   6.557  10.289  1.4841 -0.5729 -0.9783
17715TIP3    H274561   1.548   6.457  10.400  1.7398 -0.2724 -0.7656
17716TIP3   OH274562   2.192   6.017  17.007  0.5555  0.2702  0.4047
17716TIP3    H174563   2.197   5.929  17.044  1.1164  0.0160 -0.2462
17716TIP3    H274564   2.170   6.002  16.915  1.6328  0.7498  0.0593
17717TIP3   OH274565   3.780   1.870   4.449  0.3106  0.3080 -0.7617
17717TIP3    H174566   3.841   1.937   4.479  0.2384  0.1584 -0.2804
17717TIP3    H274567   3.835   1.796   4.425  0.2275 -0.8875  2.2786
17718TIP3   OH274568   3.567   2.287   1.259  0.4182  0.4347  0.6581
17718TIP3    H174569   3.586   2.381   1.256 -1.1783  0.7955  0.8613
17718TIP3    H274570   3.600   2.259   1.344 -0.8069  1.2449  1.4339
17719TIP3   OH274571   6.050   6.271  12.182 -0.0774  0.4315 -0.4531
17719TIP3    H174572   6.128   6.218  12.164  1.2529  2.0294  0.3720
17719TIP3    H274573   6.084   6.351  12.222 -2.2045  0.9171  0.5102
17720TIP3   OH274574   5.905   3.258  14.165  0.1567  0.1396  0.1371
17720TIP3    H174575   5.954   3.227  14.241  1.7482 -1.0321 -1.3077
17720TIP3    H274576   5.946   3.342  14.142  0.7745 -0.3042 -0.4036
17721TIP3   OH274577   3.862   0.777   5.294 -0.1081 -0.5527  0.1965
17721TIP3    H174578   3.884   0.832   5.218  2.3978 -1.4817  0.1409
17721TIP3    H274579   3.939   0.783   5.351 -0.5939 -2.4101  1.1270
17722TIP3   OH274580   0.840   4.945  15.355  0.0616  0.4027  0.0698
17722TIP3    H174581   0.801   5.026  15.390  0.6569  0.2289  1.1884
17722TIP3    H274582   0.872   4.970  15.268 -3.1002  0.3802 -1.2391
17723TIP3   OH274583   4.693   3.976  13.511 -0.2323  0.5407  0.7678
17723TIP3    H174584   4.761   3.985  13.443 -0.3852  2.7363  0.8293
17723TIP3    H274585   4.621   4.030  13.480 -1.6252 -1.0079  1.1668
17724TIP3   OH274586   0.939   0.784   0.433  0.1655  0.5703 -0.1333
17724TIP3    H174587   0.971   0.717   0.493 -1.5832 -0.2724 -0.0713
17724TIP3    H274588   1.000   0.782   0.359  0.3479 -0.8677  0.0300
17725TIP3   OH274589   4.387   5.229   3.996  0.2703 -0.0807 -0.1321
17725TIP3    H174590   4.369   5.323   4.003  0.9663  0.0517 -0.1308
17725TIP3    H274591   4.300   5.189   3.987  0.0170  0.6321 -0.9934
17726TIP3   OH274592   5.354   2.011   3.050  0.3725  0.0692  0.0556
17726TIP3    H174593   5.315   2.095   3.074  0.2973 -0.0056  0.1998
17726TIP3    H274594   5.284   1.947   3.064  0.6116 -0.0944  0.5470
17727TIP3   OH274595   6.393   3.067  16.353 -0.5925 -0.5642 -0.1196
17727TIP3    H174596   6.327   3.087  16.419 -0.4459  0.5871 -0.2973
17727TIP3    H274597   6.358   3.103  16.272 -0.4621 -1.3635 -0.5431
17728TIP3   OH274598   3.962   6.232  13.833 -0.2789 -0.2351 -0.2499
17728TIP3    H174599   3.875   6.195  13.821 -0.1249 -0.0355 -2.3579
17728TIP3    H274600   4.012   6.162  13.876 -1.7863  0.1912  2.4486
17729TIP3   OH274601   3.503   0.635   3.180  0.3219  0.5118 -0.4550
17729TIP3    H174602   3.534   0.638   3.270  0.8165  0.2451 -0.6072
17729TIP3    H274603   3.566   0.690   3.131  0.6782 -0.1888 -0.8009
17730TIP3   OH274604   2.020   6.003   4.051  0.0954  0.3222  0.1541
17730TIP3    H174605   2.005   5.966   3.964 -1.4806 -0.2814  0.6386
17730TIP3    H274606   2.111   5.982   4.071 -0.3552 -2.1971 -0.1380
17731TIP3   OH274607   4.104   2.858   3.093  0.4417 -0.3900 -0.5581
17731TIP3    H174608   4.143   2.925   3.037  0.6601  0.5819  0.6989
17731TIP3    H274609   4.124   2.775   3.050  3.0877  0.1325 -0.4449
17732TIP3   OH274610   0.370   0.337   1.015 -0.5207 -0.2524  0.2054
17732TIP3    H174611   0.315   0.400   1.062  0.1363 -0.6749  1.5721
17732TIP3    H274612   0.394   0.383   0.934 -0.1558  1.2233  1.1033
17733TIP3   OH274613   0.367   4.480   1.746 -0.5650 -0.0497 -0.3776
17733TIP3    H174614   0.362   4.555   1.806 -0.6021  0.5319 -1.1026
17733TIP3    H274615   0.381   4.404   1.804 -1.3877  0.3957  0.4316
17734TIP3   OH274616   3.603   6.723  11.881  0.7085  0.2599 -0.3662
17734TIP3    H174617   3.590   6.805  11.928 -3.3542  0.9641 -2.2600
17734TIP3    H274618   3.624   6.749  11.791  0.2353 -0.7757 -0.7974
17735TIP3   OH274619   3.202   2.504  14.394  0.4485  1.0119  0.1436
17735TIP3    H174620   3.251   2.545  14.465  0.5586 -0.4896  0.9708
17735TIP3    H274621   3.123   2.471  14.435  0.6642 -0.1637 -0.3343
17736TIP3   OH274622   3.749   1.107  15.338  0.0762 -0.9439 -0.1324
17736TIP3    H174623   3.665   1.066  15.361 -0.5640  0.4802  0.1731
17736TIP3    H274624   3.743   1.121  15.243 -0.6890  0.5105  0.1053
17737TIP3   OH274625   6.618   5.441   2.483  0.2793 -0.0848 -0.2911
17737TIP3    H174626   6.609   5.512   2.546  0.1376 -1.1259  0.9238
17737TIP3    H274627   6.554   5.460   2.415  1.5053  1.8863 -0.9731
17738TIP3   OH274628   0.891   4.555  12.788  0.1507 -0.2972 -0.3169
17738TIP3    H174629   0.964   4.496  12.772  0.7340  0.2063  0.4800
17738TIP3    H274630   0.908   4.631  12.732  1.6557  1.0041  1.7673
17739TIP3   OH274631   1.093   0.490  12.092  0.5069 -0.2814  0.7516
17739TIP3    H174632   1.027   0.550  12.126  1.5299  1.2396  0.1928
17739TIP3    H274633   1.103   0.515  12.000  2.1933 -0.0889  0.9452
17740TIP3   OH274634   2.709   0.937   4.593  0.2449 -0.7048 -0.0960
17740TIP3    H174635   2.766   0.952   4.669 -0.2090 -1.1547  0.3388
17740TIP3    H274636   2.637   0.884   4.627 -0.0059 -0.8430 -0.8275
17741TIP3   OH274637   4.796   0.048  13.699 -0.9021 -0.1274  0.0391
17741TIP3    H174638   4.882   0.042  13.739 -0.0756  2.8527 -1.1012
17741TIP3    H274639   4.772  -0.043  13.682  1.3385 -1.1236  1.6841
17742TIP3   OH274640   3.646   3.875  12.286  0.2504  0.0844 -0.4914
17742TIP3    H174641   3.573   3.817  12.310 -0.1613  0.0595 -1.7243
17742TIP3    H274642   3.703   3.821  12.232  1.2936  0.0647  0.5815
17743TIP3   OH274643   0.174   0.185   1.325  0.3168 -0.4647 -0.5132
17743TIP3    H174644   0.247   0.180   1.387  0.1695 -0.8765 -0.3644
17743TIP3    H274645   0.110   0.122   1.360 -1.7534  2.5114  1.5163
17744TIP3   OH274646   3.276   5.615   0.361  0.1313  0.4569 -0.1364
17744TIP3    H174647   3.323   5.613   0.445  0.5116  2.7467 -0.2193
17744TIP3    H274648   3.345   5.612   0.295  0.2341  3.2621 -0.2641
17745TIP3   OH274649   6.702   4.372   6.449  0.6225 -0.0209 -0.0815
17745TIP3    H174650   6.796   4.379   6.429  0.5943  0.5954 -0.0124
17745TIP3    H274651   6.683   4.450   6.501  0.2145 -0.4917  0.4827
17746TIP3   OH274652   4.854   5.800   4.485 -0.2128 -0.0529 -0.4835
17746TIP3    H174653   4.853   5.708   4.514 -0.2201 -0.2491 -1.1047
17746TIP3    H274654   4.844   5.850   4.566  1.1939 -0.5562  0.0227
17747TIP3   OH274655   0.122   2.855   4.209 -0.8190 -0.4014 -0.3769
17747TIP3    H174656   0.039   2.900   4.220  0.0474  1.3198 -0.4800
17747TIP3    H274657   0.172   2.878   4.287 -0.0849 -0.5511 -0.7918
17748TIP3   OH274658   3.462   2.084   3.833  0.0048 -0.0086 -0.3135
17748TIP3    H174659   3.456   2.083   3.928  0.8858  0.5895 -0.2345
17748TIP3    H274660   3.500   2.169   3.812  1.0211 -0.6247 -1.1039
17749TIP3   OH274661   2.108   6.258   4.105  0.1763 -0.2084 -0.2352
17749TIP3    H174662   2.121   6.280   4.012 -2.0139  0.3400 -0.4900
17749TIP3    H274663   2.055   6.178   4.103 -0.5366  0.2344  0.5124
17750TIP3   OH274664   0.745   2.374   0.687 -0.1595  0.5596 -0.5700
17750TIP3    H174665   0.797   2.392   0.609 -0.2676  0.4445 -0.6696
17750TIP3    H274666   0.809   2.369   0.758  0.3437 -2.4353 -1.1023
17751TIP3   OH274667   0.416   5.624  13.714  0.2713 -0.1506 -0.1125
17751TIP3    H174668   0.388   5.675  13.790  1.0409  0.0046  0.0776
17751TIP3    H274669   0.512   5.626  13.718  0.3340  0.5713 -1.5642
17752TIP3   OH274670   0.071   3.751  16.814  0.8642 -0.1179 -0.5450
17752TIP3    H174671  -0.020   3.722  16.818  0.3261  1.4122 -0.8147
17752TIP3    H274672   0.096   3.768  16.905  0.3029  1.0547 -0.5906
17753TIP3   OH274673   2.750   1.801   3.675 -0.0622  0.1073  0.4779
17753TIP3    H174674   2.698   1.792   3.755 -2.0464 -3.6018 -0.9531
17753TIP3    H274675   2.692   1.847   3.614  0.7175  1.2574  0.5791
17754TIP3   OH274676   1.603   5.213   0.447 -0.2198  0.2525  0.5652
17754TIP3    H174677   1.623   5.121   0.431 -2.6703 -0.1977 -0.3441
17754TIP3    H274678   1.547   5.212   0.525 -0.0893  1.0081  0.6773
17755TIP3   OH274679   4.413   3.757  16.329 -0.1861  0.4370  0.5072
17755TIP3    H174680   4.405   3.790  16.240  0.8237  0.1008  0.2813
17755TIP3    H274681   4.459   3.673  16.320  0.1448  0.5155  1.3555
17756TIP3   OH274682   0.189   5.702  12.627  0.7704 -0.0219 -0.0113
17756TIP3    H174683   0.283   5.686  12.619  0.4526 -0.9871 -3.2492
17756TIP3    H274684   0.165   5.743  12.544 -1.8446 -0.7107  0.3176
17757TIP3   OH274685   0.549   3.911  16.354  0.0290  0.4019  0.1390
17757TIP3    H174686   0.540   3.822  16.319 -0.6355  0.5429 -0.0517
17757TIP3    H274687   0.553   3.899  16.449 -1.3020  0.2530  0.1928
17758TIP3   OH274688   6.276   2.627   1.557  0.5849  0.2720  0.3393
17758TIP3    H174689   6.344   2.691   1.577  1.7053 -0.7306 -0.1416
17758TIP3    H274690   6.262   2.635   1.463 -1.2544  1.6694  0.6680
17759TIP3   OH274691   2.941   3.982  15.902  0.0455 -0.1696 -0.2965
17759TIP3    H174692   3.006   3.981  15.831  0.5984 -1.1513  0.2028
17759TIP3    H274693   2.865   3.936  15.866  0.3071 -0.6246 -0.2789
17760TIP3   OH274694   4.150   3.781   2.402  0.5875 -0.3275  0.6133
17760TIP3    H174695   4.106   3.786   2.317  0.7016 -0.7601  0.5240
17760TIP3    H274696   4.124   3.696   2.437  0.8306 -0.3067  0.8493
17761TIP3   OH274697   2.624   5.936   4.930 -0.4760 -0.4865 -0.0234
17761TIP3    H174698   2.701   5.895   4.890 -0.7969 -1.3572  0.2238
17761TIP3    H274699   2.651   5.958   5.019 -0.6735 -1.3046  0.2455
17762TIP3   OH274700   1.156   3.323  16.852  0.2942 -0.0694  0.3629
17762TIP3    H174701   1.206   3.394  16.813 -1.1719  0.9924  0.3517
17762TIP3    H274702   1.096   3.295  16.784  1.0925 -1.5944  0.2494
17763TIP3   OH274703   5.921   0.859   1.130 -1.0329 -0.8671 -0.2884
17763TIP3    H174704   5.997   0.848   1.072 -1.2304  0.3483 -0.8102
17763TIP3    H274705   5.867   0.924   1.086 -1.0222  0.3785  1.4433
17764TIP3   OH274706   2.904   4.390  16.690  0.2361 -0.0806 -0.6994
17764TIP3    H174707   2.952   4.312  16.661 -1.7824 -1.7818  0.2951
17764TIP3    H274708   2.906   4.385  16.786 -0.4229  0.7878 -0.6292
17765TIP3   OH274709   5.630   0.425   4.771 -0.5595  0.2344 -0.1082
17765TIP3    H174710   5.721   0.454   4.784 -0.1944 -0.8704 -0.0133
17765TIP3    H274711   5.635   0.329   4.780 -1.2868 -0.1039 -2.7345
17766TIP3   OH274712   2.342   2.822  12.008 -0.0291 -0.3887  0.1804
17766TIP3    H174713   2.287   2.750  12.038 -0.8645  0.2586  0.2288
17766TIP3    H274714   2.405   2.835  12.080 -0.1626 -0.7734  0.3685
17767TIP3   OH274715   3.086   5.631   2.393  0.6732  0.4582 -0.0598
17767TIP3    H174716   3.178   5.646   2.369  1.0296  0.0902  1.0005
17767TIP3    H274717   3.052   5.719   2.410  0.5167  0.6935 -1.4383
17768TIP3   OH274718   3.255   0.934  15.087 -0.1964  0.0305 -0.0206
17768TIP3    H174719   3.164   0.932  15.058  0.6954  2.0465 -3.5833
17768TIP3    H274720   3.264   1.020  15.129  0.7372  1.4283 -2.8571
17769TIP3   OH274721   0.675   2.076   2.383  0.1520 -0.3509  0.4494
17769TIP3    H174722   0.735   2.002   2.374 -1.4986 -2.1656  2.9842
17769TIP3    H274723   0.606   2.060   2.318  1.5856  1.0348 -1.5418
17770TIP3   OH274724   1.512   4.745  15.467 -0.1576 -0.6391 -0.0732
17770TIP3    H174725   1.434   4.764  15.414  0.0122 -0.4551 -0.2564
17770TIP3    H274726   1.571   4.700  15.408  0.1580 -0.1594 -0.1248
17771TIP3   OH274727   0.071   0.880   4.504 -0.9948 -0.0977  0.1819
17771TIP3    H174728   0.011   0.902   4.575 -1.6014 -2.6448  0.5580
17771TIP3    H274729   0.137   0.824   4.544  0.4172  0.8883 -0.6819
17772TIP3   OH274730   6.659   6.554  17.097  0.5753 -0.2071  0.4099
17772TIP3    H174731   6.675   6.638  17.053 -0.9250  0.7312  1.5858
17772TIP3    H274732   6.660   6.489  17.026  0.9939  0.8916 -0.6180
17773TIP3   OH274733   1.987   1.292  11.387  0.3621  0.3952 -0.0085
17773TIP3    H174734   1.975   1.386  11.399  3.0302  0.6932  0.8876
17773TIP3    H274735   2.074   1.283  11.348  0.1693 -1.7168 -0.0817
17774TIP3   OH274736   4.333   0.881   5.412  0.1581  0.0041 -0.0627
17774TIP3    H174737   4.340   0.802   5.465  0.1506 -1.0394 -1.5651
17774TIP3    H274738   4.421   0.895   5.377 -0.1590 -0.1699 -0.9454
17775TIP3   OH274739   3.777   4.235   5.474  0.1766 -0.3110 -0.2115
17775TIP3    H174740   3.813   4.211   5.559 -4.0698 -1.4725  1.5508
17775TIP3    H274741   3.757   4.151   5.432  0.1385  0.2498 -1.3583
17776TIP3   OH274742   3.656   3.164  15.057 -0.0124  0.3148  0.2012
17776TIP3    H174743   3.676   3.159  15.150 -0.4847  0.0332  0.2910
17776TIP3    H274744   3.561   3.153  15.052  0.2513 -2.2861 -0.5059
17777TIP3   OH274745   6.352   5.827   0.016 -0.4400 -0.2912 -0.5756
17777TIP3    H174746   6.284   5.893   0.009 -0.7451 -0.5616 -0.2117
17777TIP3    H274747   6.327   5.760  -0.048 -1.4404 -1.1898  0.6955
17778TIP3   OH274748   2.091   5.308   3.072 -0.0136 -0.0586 -1.0231
17778TIP3    H174749   2.085   5.353   3.156 -0.1191 -1.9025  0.0043
17778TIP3    H274750   2.014   5.339   3.023  0.3064  1.3942 -0.6558
17779TIP3   OH274751   3.201   1.315   6.329 -0.4358  0.5771 -0.0682
17779TIP3    H174752   3.182   1.408   6.318 -1.7516  0.6096  2.0340
17779TIP3    H274753   3.283   1.313   6.379 -0.8559  0.6419  0.6355
17780TIP3   OH274754   1.745   1.739  15.124  0.2909  0.5407  0.6175
17780TIP3    H174755   1.811   1.809  15.128  1.2755 -0.3412  0.3095
17780TIP3    H274756   1.797   1.659  15.118 -0.8253 -0.1395 -0.1639
17781TIP3   OH274757   5.975   5.583   2.525 -0.0551  0.0473  0.6139
17781TIP3    H174758   5.930   5.643   2.464 -0.2270 -0.9442 -0.2692
17781TIP3    H274759   5.904   5.540   2.572 -0.0216 -0.8099 -0.0893
17782TIP3   OH274760   0.047   4.588  14.844  0.2641 -0.0525  0.5476
17782TIP3    H174761   0.086   4.534  14.912 -0.1963 -0.0961  0.7793
17782TIP3    H274762   0.072   4.545  14.762  3.9871  1.9477  0.3904
17783TIP3   OH274763   1.421   2.071   2.046  0.2018 -0.4705  0.5080
17783TIP3    H174764   1.354   2.125   2.089  1.0369  1.0333  0.0245
17783TIP3    H274765   1.463   2.131   1.984  0.0968 -2.1513 -1.2638
17784TIP3   OH274766   6.678   5.877  16.723  0.0447  0.2886 -0.6963
17784TIP3    H174767   6.629   5.894  16.643 -0.4271 -0.1225 -0.5002
17784TIP3    H274768   6.690   5.782  16.724  2.1323  0.5077 -1.4836
17785TIP3   OH274769   4.580   4.694   3.943 -0.5765 -0.3500 -0.1754
17785TIP3    H174770   4.516   4.695   3.872 -2.6246 -0.9960  1.5562
17785TIP3    H274771   4.576   4.782   3.980  0.0492 -0.1975 -0.4472
17786TIP3   OH274772   1.636   6.464  16.533 -1.0806 -0.1233  0.5902
17786TIP3    H174773   1.585   6.487  16.611 -1.5926  0.5499  0.0736
17786TIP3    H274774   1.583   6.398  16.489 -2.3590  1.7166 -0.7845
17787TIP3   OH274775   2.987   6.776  10.746 -0.3468 -0.6421  0.3309
17787TIP3    H174776   2.997   6.721  10.824  0.3538  0.0297  0.7292
17787TIP3    H274777   3.064   6.757  10.693 -1.8897 -2.7452 -1.2857
17788TIP3   OH274778   4.712   3.724   2.295 -0.3586 -0.6252 -0.2567
17788TIP3    H174779   4.717   3.743   2.201  0.3882 -0.1874 -0.1334
17788TIP3    H274780   4.673   3.802   2.333 -3.6387 -1.9493 -0.5407
17789TIP3   OH274781   1.909   5.737  14.710  0.0199  0.6917 -0.9352
17789TIP3    H174782   1.893   5.657  14.659 -1.8405  1.1180 -1.0700
17789TIP3    H274783   1.949   5.705  14.792 -0.5466 -0.3663 -1.0514
17790TIP3   OH274784   4.746   5.661   5.163  1.0216  0.6528  0.4347
17790TIP3    H174785   4.835   5.665   5.128  1.0822  1.9552  0.6709
17790TIP3    H274786   4.693   5.709   5.099  0.1594 -1.4263 -0.5259
17791TIP3   OH274787   1.200   1.088  13.420  0.8396  0.5024  0.4050
17791TIP3    H174788   1.181   1.098  13.327  0.6377 -0.0321  0.3877
17791TIP3    H274789   1.296   1.083  13.425  0.7953 -0.9144  0.0783
17792TIP3   OH274790   2.359   0.847   1.702 -0.1832 -0.7241  0.1339
17792TIP3    H174791   2.329   0.926   1.746 -2.2430 -1.3921  0.0215
17792TIP3    H274792   2.280   0.806   1.668  1.1083 -1.3319 -2.4091
17793TIP3   OH274793   0.159   4.264   5.249 -0.0810  0.1551  0.2619
17793TIP3    H174794   0.093   4.330   5.227 -0.1641  0.0608  0.2273
17793TIP3    H274795   0.214   4.306   5.315  1.6176  1.3397 -1.7821
17794TIP3   OH274796   1.828   4.482  15.712 -0.6170 -0.1682  0.0897
17794TIP3    H174797   1.737   4.509  15.728 -0.8769 -0.7655 -0.3425
17794TIP3    H274798   1.855   4.439  15.793 -0.8986 -0.4519  0.0352
17795TIP3   OH274799   4.164   5.855  13.748 -0.6854 -0.5361 -0.8395
17795TIP3    H174800   4.167   5.761  13.763  1.0335 -0.3435  0.3894
17795TIP3    H274801   4.152   5.893  13.835  4.3381  0.4735 -0.2571
17796TIP3   OH274802   4.798   0.215  13.450 -0.5186 -0.2618 -0.0294
17796TIP3    H174803   4.765   0.147  13.392 -0.5320 -1.7088  1.5857
17796TIP3    H274804   4.799   0.175  13.537  0.9463  1.2935  0.7542
17797TIP3   OH274805   6.254   3.904  13.581  0.5444  0.2341  0.1619
17797TIP3    H174806   6.248   3.845  13.506  2.0830 -2.2077  1.8151
17797TIP3    H274807   6.205   3.860  13.650  2.2745  0.5265  1.6392
17798TIP3   OH274808   2.942   4.939  15.840  0.3016 -0.0905  0.0871
17798TIP3    H174809   2.991   5.003  15.788 -0.6675 -1.7373 -3.0850
17798TIP3    H274810   2.875   4.991  15.884  0.7331  1.3146 -0.8425
17799TIP3   OH274811   3.763   4.009   6.452 -0.3153  0.4035 -0.1085
17799TIP3    H174812   3.687   4.065   6.470 -0.2462  0.3257  0.4459
17799TIP3    H274813   3.762   3.944   6.522  1.4402  1.6145  1.1280
17800TIP3   OH274814   3.249   5.414   5.351  0.7535 -0.4539  0.4181
17800TIP3    H174815   3.226   5.424   5.444 -1.8716  0.6191 -0.2656
17800TIP3    H274816   3.276   5.502   5.324 -1.4706 -0.0103 -0.5140
17801TIP3   OH274817   1.113   0.094  14.022 -0.0493 -0.2972 -0.1521
17801TIP3    H174818   1.078   0.176  13.987 -0.1495 -0.5695 -0.7028
17801TIP3    H274819   1.057   0.075  14.097 -0.5565 -0.2902 -0.5204
17802TIP3   OH274820   2.362   2.407   0.978  0.5720 -0.4307  0.1393
17802TIP3    H174821   2.365   2.502   0.962  0.2719 -0.6847 -1.6851
17802TIP3    H274822   2.416   2.394   1.055  1.4989  1.1225 -0.1974
17803TIP3   OH274823   6.554   1.953  13.441  0.5377 -0.6758 -0.3962
17803TIP3    H174824   6.523   2.034  13.400 -0.3674 -0.5756  0.4385
17803TIP3    H274825   6.474   1.903  13.459  1.0779 -1.6902 -0.7487
17804TIP3   OH274826   0.601   2.568   5.740  0.6980  0.2757 -0.0588
17804TIP3    H174827   0.522   2.575   5.686 -0.3563 -0.9262  1.2867
17804TIP3    H274828   0.608   2.653   5.783 -2.2929 -0.8308  2.9968
17805TIP3   OH274829   0.086   2.715  16.630 -0.0623  0.5590 -0.2513
17805TIP3    H174830   0.060   2.629  16.597 -0.9659  1.4654 -2.0775
17805TIP3    H274831   0.057   2.716  16.721  1.0521 -1.4758  0.1898
17806TIP3   OH274832   0.760   2.872   4.432  0.2781 -0.1890  0.0168
17806TIP3    H174833   0.826   2.813   4.396 -1.9028 -1.3816 -2.3885
17806TIP3    H274834   0.809   2.951   4.455  2.4640 -0.7114 -2.3533
17807TIP3   OH274835   5.744   0.437   1.650  0.2414  0.0544  0.2406
17807TIP3    H174836   5.781   0.517   1.687  0.0296  1.7551 -2.8841
17807TIP3    H274837   5.671   0.415   1.708 -1.5952  3.8939 -0.3068
17808TIP3   OH274838   2.595   3.556   4.646 -0.3389  0.2193 -0.1505
17808TIP3    H174839   2.622   3.600   4.566 -0.1699  0.6701  0.1543
17808TIP3    H274840   2.625   3.613   4.717 -1.5439  0.4211  0.2139
17809TIP3   OH274841   5.244   1.627  15.016 -0.9368  0.2377 -0.0723
17809TIP3    H174842   5.198   1.657  14.937 -2.0795  1.3399  0.9670
17809TIP3    H274843   5.234   1.532  15.014  1.2896 -0.0663 -2.5518
17810TIP3   OH274844   5.817   3.661   3.747  0.1993  0.1147 -0.1406
17810TIP3    H174845   5.804   3.686   3.656 -0.8129 -1.9999 -0.6509
17810TIP3    H274846   5.869   3.581   3.742 -0.8146 -0.6589  1.0336
17811TIP3   OH274847   1.523   6.689  12.488 -0.1414  0.4169  0.3026
17811TIP3    H174848   1.578   6.740  12.429 -2.1846  1.4214 -0.8018
17811TIP3    H274849   1.473   6.754  12.537 -1.5908 -0.4784  0.0577
17812TIP3   OH274850   2.568   1.734  12.502 -0.0381  0.2744 -0.0540
17812TIP3    H174851   2.516   1.814  12.500  1.8467  1.5566 -0.4740
17812TIP3    H274852   2.535   1.682  12.429 -0.9069  0.9221 -0.1293
17813TIP3   OH274853   2.008   5.877  13.100 -0.0858  0.1698 -0.2426
17813TIP3    H174854   1.984   5.908  13.013  2.5735  1.9618 -0.4701
17813TIP3    H274855   1.958   5.934  13.160 -0.0116  0.6658 -0.6415
17814TIP3   OH274856   4.574   0.119   5.698 -1.2498 -0.0021 -0.3858
17814TIP3    H174857   4.562   0.207   5.661 -1.2198 -0.1015 -0.6364
17814TIP3    H274858   4.599   0.065   5.623  0.4619  0.1314  0.0534
17815TIP3   OH274859   4.100   6.020  16.584 -1.0145  0.2895  0.3291
17815TIP3    H174860   4.110   6.111  16.612  0.3786  0.0620  0.6676
17815TIP3    H274861   4.160   6.010  16.511 -1.0863 -0.3808  0.3519
17816TIP3   OH274862   0.010   2.989   1.513  0.3773  0.3701 -0.3407
17816TIP3    H174863   0.041   2.955   1.430  0.0400 -0.6260 -0.0739
17816TIP3    H274864   0.045   2.929   1.579  0.7071  1.1879  0.2457
17817TIP3   OH274865   5.092   4.527  15.295 -0.1633  0.5617 -0.5396
17817TIP3    H174866   5.055   4.452  15.341  0.7393  0.5894  0.2687
17817TIP3    H274867   5.016   4.572  15.257 -0.7370 -0.5747 -0.7784
17818TIP3   OH274868   0.006   0.578  14.154 -0.5478  0.5697  0.3405
17818TIP3    H174869   0.072   0.544  14.093 -0.4185  1.5154 -0.0613
17818TIP3    H274870  -0.061   0.510  14.156 -0.3130  0.2971 -0.4726
17819TIP3   OH274871   1.921   0.786   4.794  0.4327 -0.4521 -0.2825
17819TIP3    H174872   1.841   0.828   4.761  0.6265  0.6805  0.6326
17819TIP3    H274873   1.926   0.813   4.885  0.8855 -2.0322  0.1893
17820TIP3   OH274874   5.775   5.507   5.089 -0.3550 -0.2122  0.2830
17820TIP3    H174875   5.867   5.529   5.077 -0.8890  1.7942 -0.5167
17820TIP3    H274876   5.747   5.476   5.003 -1.2446  2.6402 -0.5555
17821TIP3   OH274877   6.491   3.826   2.890 -0.1442 -0.6922 -0.3104
17821TIP3    H174878   6.436   3.874   2.828  0.8820 -0.0996 -0.7920
17821TIP3    H274879   6.506   3.888   2.961 -1.0872 -1.2738  0.4058
17822TIP3   OH274880   1.559   1.699  12.239 -0.2232 -0.1016  0.1392
17822TIP3    H174881   1.528   1.631  12.179  0.3671  0.0188 -0.3144
17822TIP3    H274882   1.537   1.781  12.195  2.2105  0.0235 -1.0590
17823TIP3   OH274883   6.127   5.894   4.123 -0.2857  0.1074  0.1791
17823TIP3    H174884   6.044   5.850   4.143 -0.3953 -0.2433 -0.9454
17823TIP3    H274885   6.101   5.984   4.099 -0.3165  0.0858  0.1288
17824TIP3   OH274886   4.468   4.702  13.116  0.1692 -0.0105  0.2858
17824TIP3    H174887   4.482   4.682  13.023 -0.9819 -0.6931  0.2491
17824TIP3    H274888   4.510   4.788  13.128  0.0217  0.2588 -0.9488
17825TIP3   OH274889   5.509   5.079  12.505  0.0838  0.1839 -0.7932
17825TIP3    H174890   5.538   4.989  12.488  0.1895 -0.3934  1.9183
17825TIP3    H274891   5.444   5.097  12.437 -2.5201 -3.2682  0.4463
17826TIP3   OH274892   0.530   2.607   0.632  0.1170 -0.0013 -0.1108
17826TIP3    H174893   0.493   2.533   0.680 -0.7464 -0.4754 -1.4591
17826TIP3    H274894   0.587   2.568   0.567  2.7401  0.7104  1.6092
17827TIP3   OH274895   2.798   6.782  10.490 -0.2953 -0.4043  0.2360
17827TIP3    H174896   2.822   6.701  10.445  0.6479  1.3411 -2.6624
17827TIP3    H274897   2.851   6.781  10.570  0.9145 -1.9128 -0.5229
17828TIP3   OH274898   0.735   1.339  10.581 -0.1772 -0.4676  0.2924
17828TIP3    H174899   0.685   1.258  10.592 -0.0339 -0.5760  0.1671
17828TIP3    H274900   0.819   1.310  10.546 -0.8655 -0.1041 -1.8252
17829TIP3   OH274901   5.812   0.708   1.700  0.2229 -0.8439  0.2525
17829TIP3    H174902   5.899   0.684   1.732  0.2139  0.0596  0.9834
17829TIP3    H274903   5.828   0.784   1.644 -0.0856 -0.7824  0.2502
17830TIP3   OH274904   2.205   0.078  11.691 -0.4583  0.4276 -0.0307
17830TIP3    H174905   2.240   0.159  11.728  0.5395 -0.9324  2.2035
17830TIP3    H274906   2.114   0.098  11.672 -0.4260  1.8740  1.1512
17831TIP3   OH274907   4.174   2.938   2.671 -0.3249 -0.4881 -0.2508
17831TIP3    H174908   4.132   3.025   2.670 -2.8037 -1.6011 -0.6429
17831TIP3    H274909   4.117   2.885   2.727  0.7843 -2.0500 -0.5516
17832TIP3   OH274910   6.156   0.035   5.081  0.0428  0.3854 -0.0219
17832TIP3    H174911   6.125   0.119   5.045  0.8480  0.3648 -0.8046
17832TIP3    H274912   6.078  -0.005   5.119 -0.9881  0.2440 -2.1150
17833TIP3   OH274913   1.741   6.528   2.254 -0.1843  0.2337  0.0216
17833TIP3    H174914   1.829   6.491   2.266  0.4425  1.7777  0.5299
17833TIP3    H274915   1.684   6.472   2.306  0.0709 -2.2190 -2.1560
17834TIP3   OH274916   3.727   6.480  11.822  0.0422 -0.2708  0.5304
17834TIP3    H174917   3.656   6.544  11.826  1.9477  1.9414  1.5904
17834TIP3    H274918   3.754   6.468  11.913  0.2379 -2.0557  0.2749
17835TIP3   OH274919   3.327   1.614   2.571 -0.6301  0.4267 -0.0537
17835TIP3    H174920   3.403   1.659   2.536 -0.3373  0.5338  0.7023
17835TIP3    H274921   3.352   1.589   2.660 -1.8656  1.4879  0.6382
17836TIP3   OH274922   3.592   0.004  13.081  0.2535  0.2306 -0.7942
17836TIP3    H174923   3.601  -0.016  12.988 -3.6181  0.2735 -1.3713
17836TIP3    H274924   3.533  -0.064  13.114  3.3683 -1.2504  2.3472
17837TIP3   OH274925   3.719   0.269   1.550  0.2180 -0.0084  0.3509
17837TIP3    H174926   3.640   0.239   1.504  0.6622  2.0102 -1.9687
17837TIP3    H274927   3.791   0.237   1.497  0.7605  2.3104 -0.4221
17838TIP3   OH274928   5.531   3.895   0.070 -0.1487 -0.0334  0.2487
17838TIP3    H174929   5.466   3.945   0.120  0.8181  1.4083  0.1210
17838TIP3    H274930   5.612   3.908   0.119  0.3483 -0.5091 -0.4503
17839TIP3   OH274931   6.254   4.144  12.590 -0.0460  0.8162 -0.2242
17839TIP3    H174932   6.269   4.238  12.601  0.8127  0.4783  2.1536
17839TIP3    H274933   6.160   4.133  12.601 -0.0522  1.3252  0.2365
17840TIP3   OH274934   2.991   0.068   0.365 -0.3170  0.0368 -0.6638
17840TIP3    H174935   2.953   0.018   0.437  0.3855 -0.4205 -0.6027
17840TIP3    H274936   3.012   0.003   0.298 -1.4703  0.5148 -1.5391
17841TIP3   OH274937   3.981   5.575  15.063 -0.1377  0.1008  0.2756
17841TIP3    H174938   3.896   5.616  15.080  0.7285  1.4054  1.7326
17841TIP3    H274939   4.023   5.631  14.997 -0.7129 -1.0276 -1.0931
17842TIP3   OH274940   4.999   3.634   2.866 -0.4429  0.6039  0.2401
17842TIP3    H174941   5.004   3.539   2.878 -1.9097  0.1578 -2.0266
17842TIP3    H274942   4.969   3.667   2.951 -1.9335 -1.2412  0.5086
17843TIP3   OH274943   1.553   5.822  15.987 -0.5455  0.0224 -0.4697
17843TIP3    H174944   1.638   5.857  16.012 -1.4081  2.1872 -0.3467
17843TIP3    H274945   1.494   5.850  16.058 -1.1422 -2.6729  0.1972
17844TIP3   OH274946   2.309   3.616  14.063 -0.1185  0.0184  0.3946
17844TIP3    H174947   2.329   3.683  14.129  0.0981 -1.6861  2.1906
17844TIP3    H274948   2.387   3.560  14.063 -0.7549 -0.8825 -0.1653
17845TIP3   OH274949   5.588   0.512   0.274  0.3184  0.0678  0.0312
17845TIP3    H174950   5.549   0.524   0.188 -0.3936  2.5380  0.6262
17845TIP3    H274951   5.591   0.600   0.312  0.0479 -1.0034  2.7677
17846TIP3   OH274952   6.635   2.305  11.901  0.2077 -0.4013 -0.2710
17846TIP3    H174953   6.545   2.285  11.875 -0.1654  0.1051  0.5992
17846TIP3    H274954   6.640   2.282  11.993  0.6517  0.5673 -0.0381
17847TIP3   OH274955   5.542   4.307  13.509  0.2478 -0.6541 -0.0662
17847TIP3    H174956   5.484   4.300  13.585  0.5688  2.1323  0.5635
17847TIP3    H274957   5.500   4.254  13.441 -3.0947  1.1553  0.3641
17848TIP3   OH274958   0.253   4.783   4.527  0.6535 -0.2475  0.2251
17848TIP3    H174959   0.286   4.767   4.616  0.8433 -0.1009  0.1817
17848TIP3    H274960   0.256   4.878   4.517 -1.8807  0.0078  1.0314
17849TIP3   OH274961   6.490   6.774   0.682  0.0158 -1.0545 -0.5226
17849TIP3    H174962   6.502   6.738   0.594  1.0001 -1.1941 -0.3391
17849TIP3    H274963   6.445   6.858   0.667  2.4110  0.1654 -1.4042
17850TIP3   OH274964   1.168   3.635   2.850  0.0081  0.8715  0.7129
17850TIP3    H174965   1.181   3.694   2.925  0.8231  2.0786 -0.3397
17850TIP3    H274966   1.166   3.693   2.774  0.2609 -0.4259 -0.3152
17851TIP3   OH274967   5.669   1.095   1.337 -0.0189  0.1351  0.2471
17851TIP3    H174968   5.641   1.095   1.429  0.1965 -1.0612  0.3233
17851TIP3    H274969   5.593   1.129   1.290 -0.5782 -0.3964  0.7469
17852TIP3   OH274970   6.654   1.403  12.132  0.1763  0.5910 -0.3777
17852TIP3    H174971   6.645   1.447  12.048 -1.1912 -0.6237 -0.9164
17852TIP3    H274972   6.583   1.339  12.133 -1.1753  1.9101  2.5443
17853TIP3   OH274973   5.610   0.542   1.309  0.0750 -0.6366 -0.2101
17853TIP3    H174974   5.571   0.626   1.283 -0.5585 -0.8538  0.0056
17853TIP3    H274975   5.684   0.566   1.364 -0.1192 -0.2195 -0.1259
17854TIP3   OH274976   0.360   3.758  13.973 -0.3250  0.8135  0.5043
17854TIP3    H174977   0.297   3.718  13.914 -0.9100  0.2342  1.4914
17854TIP3    H274978   0.385   3.688  14.033 -1.3435  1.8583  2.2547
17855TIP3   OH274979   6.336   6.785   1.957  0.2205  0.0381  0.1134
17855TIP3    H174980   6.399   6.782   2.029  0.1585  3.7931  0.4927
17855TIP3    H274981   6.377   6.839   1.890 -1.7367  0.7957 -0.5481
17856TIP3   OH274982   5.735   3.023  11.079 -0.4771  0.7868 -0.4314
17856TIP3    H174983   5.775   3.081  11.015  0.9480 -0.7443 -1.0205
17856TIP3    H274984   5.792   2.945  11.079 -1.7997 -0.2364  0.9400
17857TIP3   OH274985   6.314   0.319  16.402  0.1258  0.0940  0.3026
17857TIP3    H174986   6.402   0.357  16.411  0.6721 -0.6737 -1.2949
17857TIP3    H274987   6.259   0.393  16.378  0.1227  0.7484  2.1964
17858TIP3   OH274988   2.659   2.569  12.961  0.4394 -0.3137  0.1196
17858TIP3    H174989   2.729   2.634  12.964 -0.1023  0.3937 -1.4439
17858TIP3    H274990   2.673   2.522  12.879 -0.8786 -0.1844 -0.2088
17859TIP3   OH274991   1.891   1.332   2.327  0.0623 -0.0876  0.4390
17859TIP3    H174992   1.875   1.314   2.420  0.4979 -1.5165  0.2638
17859TIP3    H274993   1.977   1.373   2.324 -1.2800  3.0917  0.9263
17860TIP3   OH274994   5.955   0.477  15.850  0.2481  0.0539  0.3429
17860TIP3    H174995   5.998   0.403  15.807  1.5784  1.3935 -0.7498
17860TIP3    H274996   5.868   0.444  15.874  1.1571 -2.1463  0.8242
17861TIP3   OH274997   2.589   3.971   4.278  0.2872  0.2089 -0.1623
17861TIP3    H174998   2.527   4.039   4.252  0.1896  0.8223  1.5227
17861TIP3    H274999   2.564   3.895   4.227 -2.1117  0.3456  0.6860
17862TIP3   OH275000   4.342   4.091  13.701 -0.1252  0.1542 -0.1026
17862TIP3    H175001   4.308   4.176  13.729  1.5186  0.2809  1.7276
17862TIP3    H275002   4.409   4.069  13.766 -1.0210 -2.9311 -0.0797
17863TIP3   OH275003   5.490   4.152  14.953 -0.0658  0.0136  0.4590
17863TIP3    H175004   5.461   4.242  14.938 -1.8385 -0.4559  0.8302
17863TIP3    H275005   5.426   4.098  14.907  1.9186 -1.0642 -1.1758
17864TIP3   OH275006   0.742   2.775  16.650  0.2458  0.1878 -0.5004
17864TIP3    H175007   0.744   2.862  16.690  0.6680  0.9936 -2.2169
17864TIP3    H275008   0.652   2.745  16.664 -0.1069  1.1996 -0.4873
17865TIP3   OH275009   1.019   0.913   3.744 -0.5333  0.0557 -0.1094
17865TIP3    H175010   1.108   0.928   3.776 -0.7457  0.9826  0.0717
17865TIP3    H275011   0.965   0.972   3.796 -1.3443 -0.9151  0.1909
17866TIP3   OH275012   6.719   5.522  16.138  0.6133  0.0063 -0.2344
17866TIP3    H175013   6.648   5.460  16.124  2.0742 -1.3311 -2.2519
17866TIP3    H275014   6.678   5.598  16.180 -1.4052 -1.9120  1.4578
17867TIP3   OH275015   5.749   3.255   2.114 -0.0656 -0.1690 -0.1719
17867TIP3    H175016   5.757   3.160   2.105 -0.0420 -0.1098 -0.8540
17867TIP3    H275017   5.802   3.290   2.042 -1.3457  0.3334 -0.8910
17868TIP3   OH275018   4.728   2.467   0.284 -0.2647 -0.8170 -0.0327
17868TIP3    H175019   4.685   2.545   0.248 -1.3753 -0.7507  1.3502
17868TIP3    H275020   4.656   2.408   0.306  0.4875 -1.6494  0.2764
17869TIP3   OH275021   3.676   0.078   3.423 -0.5706 -0.0858  0.9849
17869TIP3    H175022   3.584   0.073   3.396 -0.4216 -0.3408  0.5162
17869TIP3    H275023   3.684   0.014   3.493 -0.7329 -0.1242  0.9683
17870TIP3   OH275024   3.916   4.342  10.484  0.9409  0.0171  0.0505
17870TIP3    H175025   3.832   4.386  10.498  1.0259  0.0736  0.4024
17870TIP3    H275026   3.962   4.396  10.420  0.8538  0.1847  0.1293
17871TIP3   OH275027   2.688   1.759  12.888  0.2598 -0.2163 -0.2108
17871TIP3    H175028   2.620   1.754  12.956  1.4908  0.4514  1.1189
17871TIP3    H275029   2.708   1.852  12.882  1.2660 -0.4358 -0.3569
17872TIP3   OH275030   3.589   4.010  12.536  0.0913  0.0092 -0.1835
17872TIP3    H175031   3.596   3.965  12.452  2.3890 -1.6312  0.7982
17872TIP3    H275032   3.678   4.038  12.557 -0.4778  0.7229  1.5215
17873TIP3   OH275033   4.636   5.113   4.942  0.5716 -0.0987 -0.6783
17873TIP3    H175034   4.611   5.086   4.854  0.0726 -1.7305 -0.0956
17873TIP3    H275035   4.629   5.032   4.994 -1.3736  1.2135  1.3352
17874TIP3   OH275036   5.260   0.300   0.006 -0.0349  0.0777 -0.3415
17874TIP3    H175037   5.347   0.261  -0.002 -0.7088 -2.0276  1.5843
17874TIP3    H275038   5.260   0.343   0.092 -0.9211 -0.0647 -0.2587
17875TIP3   OH275039   4.034   2.891   3.864  0.1200 -0.6177  0.5331
17875TIP3    H175040   3.998   2.822   3.919  0.5362  0.0335  1.6633
17875TIP3    H275041   4.069   2.955   3.926 -0.3368  0.6583 -0.4676
17876TIP3   OH275042   6.181   2.444  11.281 -0.5433 -0.1584 -0.4133
17876TIP3    H175043   6.162   2.488  11.198 -0.3059 -0.5817 -0.7016
17876TIP3    H275044   6.263   2.484  11.311 -0.2583 -0.4858 -0.7409
17877TIP3   OH275045   5.669   4.650  16.802 -0.6730 -0.3085 -0.0628
17877TIP3    H175046   5.685   4.693  16.718  0.1304  0.3203  0.3989
17877TIP3    H275047   5.692   4.559  16.787  1.1904  0.1148 -0.0708
17878TIP3   OH275048   0.832   6.259  16.893 -0.6008  0.2574 -0.2006
17878TIP3    H175049   0.829   6.354  16.906  0.1158 -0.0487  2.8952
17878TIP3    H275050   0.923   6.241  16.869 -0.4884  0.2729  0.2068
17879TIP3   OH275051   1.669   0.360   0.347  0.1030  0.7444 -0.5335
17879TIP3    H175052   1.702   0.440   0.387 -0.8110  1.2927 -0.8288
17879TIP3    H275053   1.676   0.377   0.252  1.0338 -0.0110 -0.6021
17880TIP3   OH275054   1.728   1.848   6.136 -0.0598  0.1104  0.3987
17880TIP3    H175055   1.788   1.812   6.071 -1.3742 -1.5750  0.0474
17880TIP3    H275056   1.689   1.924   6.093 -0.8543 -0.9364 -0.7975
17881TIP3   OH275057   6.625   5.799  15.363  0.3433 -0.2912  0.2849
17881TIP3    H175058   6.678   5.776  15.287 -1.1615 -0.0659 -0.8909
17881TIP3    H275059   6.688   5.822  15.430  1.7475 -1.5213 -0.5537
17882TIP3   OH275060   0.317   0.947  11.738  0.2229  0.1976  0.2593
17882TIP3    H175061   0.311   0.851  11.737 -0.3464  0.2323  0.2381
17882TIP3    H275062   0.266   0.974  11.814 -1.2728  0.5762 -0.8212
17883TIP3   OH275063   2.591   5.379   4.644  0.1051 -0.1156 -0.0052
17883TIP3    H175064   2.658   5.445   4.663  1.1067 -1.0208 -0.2976
17883TIP3    H275065   2.508   5.422   4.667  0.8106  0.8695  0.8055
17884TIP3   OH275066   0.819   4.159  13.447  0.1773 -0.4775  0.3846
17884TIP3    H175067   0.871   4.109  13.510  1.8887  1.3646  0.5479
17884TIP3    H275068   0.790   4.236  13.495  3.1102  1.9478 -1.3941
17885TIP3   OH275069   0.588   6.226   3.707  0.0806  0.5326 -0.3075
17885TIP3    H175070   0.606   6.137   3.738 -1.3737  0.8129  1.5155
17885TIP3    H275071   0.498   6.223   3.674 -0.1072  1.3960  0.1014
17886TIP3   OH275072   4.499   5.283  17.067  0.1518  0.1719  0.2376
17886TIP3    H175073   4.578   5.334  17.084  0.1821  0.1228  0.2428
17886TIP3    H275074   4.435   5.347  17.040  0.4529  0.1033 -0.6554
17887TIP3   OH275075   0.680   0.107  13.595 -0.0182  0.3209  0.4297
17887TIP3    H175076   0.699   0.084  13.504 -1.3988 -0.6989  0.3582
17887TIP3    H275077   0.679   0.203  13.596  1.1785  0.3574 -0.3560
17888TIP3   OH275078   1.623   0.194   5.577 -0.1790  0.5063  0.0078
17888TIP3    H175079   1.545   0.145   5.603 -0.1689  0.2645 -0.4124
17888TIP3    H275080   1.600   0.236   5.495  1.0730 -2.0500 -1.8339
17889TIP3   OH275081   3.769   1.278   0.600 -0.1457 -1.2942 -0.3999
17889TIP3    H175082   3.800   1.266   0.510 -1.8550 -1.2095 -1.0415
17889TIP3    H275083   3.756   1.373   0.609 -0.5332 -1.3551 -0.2765
17890TIP3   OH275084   2.264   6.123   3.716  0.3042 -0.6236  0.4185
17890TIP3    H175085   2.268   6.028   3.724  0.9676 -0.5406  1.2653
17890TIP3    H275086   2.353   6.152   3.733  0.4663  0.0698 -1.3652
17891TIP3   OH275087   4.892   3.257  12.958 -0.0424  0.0127 -0.0166
17891TIP3    H175088   4.818   3.196  12.962 -0.4017  0.5159  1.4275
17891TIP3    H275089   4.862   3.326  12.898 -1.1148  0.6399  1.1879
17892TIP3   OH275090   0.324   5.293   2.628  0.7766  0.3661  0.3947
17892TIP3    H175091   0.336   5.266   2.719  0.8125 -0.8395  0.0491
17892TIP3    H275092   0.349   5.216   2.576 -0.5219  0.5697 -0.5975
17893TIP3   OH275093   2.553   3.634  13.892  0.3837 -0.1393  0.4255
17893TIP3    H175094   2.506   3.649  13.975 -0.2728 -0.5635  0.1311
17893TIP3    H275095   2.643   3.619  13.919 -0.2177 -2.5681  1.2714
17894TIP3   OH275096   2.903   1.423   4.852 -0.0270  0.1097  0.0147
17894TIP3    H175097   2.979   1.382   4.810 -0.1239 -0.5225  0.4329
17894TIP3    H275098   2.856   1.350   4.892 -2.4172  0.0720 -2.5541
17895TIP3   OH275099   5.983   2.296  17.194 -0.0168 -0.0018  0.3456
17895TIP3    H175100   5.951   2.294  17.284 -0.1494  0.6438  0.3153
17895TIP3    H275101   5.975   2.205  17.164 -2.0279  0.1479  0.2751
17896TIP3   OH275102   2.159   5.168   2.072 -0.5360  0.0478 -0.2492
17896TIP3    H175103   2.091   5.155   2.138 -0.3189  0.4576  0.0557
17896TIP3    H275104   2.124   5.234   2.013 -0.4992  0.0840 -0.2301
17897TIP3   OH275105   1.517   6.073   0.692  0.0922  0.3258  0.5922
17897TIP3    H175106   1.454   6.127   0.644  0.2643  0.0075  0.0022
17897TIP3    H275107   1.602   6.099   0.658  0.2571  0.4603  1.0934
17898TIP3   OH275108   6.241   1.948   1.950  0.1300 -0.1779  0.2515
17898TIP3    H175109   6.174   1.967   1.884 -1.3772  1.9457  2.2439
17898TIP3    H275110   6.321   1.987   1.916 -0.9187  2.0362  0.1831
17899TIP3   OH275111   3.084   5.672   0.619 -0.4095  0.3844 -0.3307
17899TIP3    H175112   3.100   5.581   0.597  0.1217  0.3366  0.2247
17899TIP3    H275113   3.011   5.698   0.563 -1.0922 -0.6167  0.0753
17900TIP3   OH275114   5.573   4.615  16.422  0.3574 -0.1653  0.2029
17900TIP3    H175115   5.650   4.558  16.417 -0.3666 -1.2292  0.8112
17900TIP3    H275116   5.607   4.702  16.404  1.4469 -0.8184 -1.1239
17901TIP3   OH275117   5.821   1.008   2.936  1.0724 -0.5948  0.3378
17901TIP3    H175118   5.747   1.034   2.992  0.7974 -0.8090  0.0742
17901TIP3    H275119   5.857   1.091   2.905  1.5149 -0.4510  1.1934
17902TIP3   OH275120   5.382   0.556   3.794  0.0223 -0.5234 -0.0324
17902TIP3    H175121   5.349   0.605   3.718 -0.6601 -1.2580 -0.2325
17902TIP3    H275122   5.417   0.475   3.756  0.2787 -0.6053  0.3800
17903TIP3   OH275123   5.161   1.709  11.321 -0.4357  0.2713 -0.0266
17903TIP3    H175124   5.147   1.645  11.251 -2.5029  0.8652 -0.2314
17903TIP3    H275125   5.256   1.720  11.325 -0.2127 -0.3834 -2.1924
17904TIP3   OH275126   0.604   3.643   2.555  0.0845  0.0590 -0.3580
17904TIP3    H175127   0.592   3.599   2.471 -0.6714 -0.0839 -0.1805
17904TIP3    H275128   0.690   3.613   2.585  0.1729 -0.2249 -0.8737
17905TIP3   OH275129   4.587   6.239   2.945  0.4585  0.0404 -0.8098
17905TIP3    H175130   4.673   6.201   2.962  0.8577  0.9905 -0.6297
17905TIP3    H275131   4.597   6.332   2.968 -0.8119  0.0215 -0.1054
17906TIP3   OH275132   2.375   4.853   4.565  0.4997  0.2491 -0.5104
17906TIP3    H175133   2.280   4.855   4.556  0.5263 -0.4535 -1.0400
17906TIP3    H275134   2.402   4.944   4.557 -0.3664  0.8969  2.5247
17907TIP3   OH275135   5.403   4.491   1.992 -0.3949  0.4861  0.2567
17907TIP3    H175136   5.341   4.507   2.064 -1.5990  2.4358 -1.1035
17907TIP3    H275137   5.348   4.493   1.914  0.9609 -1.0548 -0.7836
17908TIP3   OH275138   6.049   5.711   3.326 -0.1979 -0.2041  0.1081
17908TIP3    H175139   5.987   5.656   3.279 -0.7047  1.3758 -1.1804
17908TIP3    H275140   6.100   5.755   3.257  2.2525 -1.2733  1.1100
17909TIP3   OH275141   4.610   1.838  12.211 -0.4577 -0.5367  0.4523
17909TIP3    H175142   4.527   1.874  12.181 -0.0965  0.5739  0.7630
17909TIP3    H275143   4.610   1.853  12.305  0.8673  1.1313  0.2232
17910TIP3   OH275144   0.733   4.783   1.541  0.1272  0.1792  0.4880
17910TIP3    H175145   0.644   4.752   1.555  0.3384 -0.5101  0.3108
17910TIP3    H275146   0.787   4.725   1.594  0.4664  0.6490  0.6620
17911TIP3   OH275147   1.359   4.788  16.024 -0.3209  0.5680  0.1003
17911TIP3    H175148   1.451   4.775  16.002  0.2331  1.5512  1.6955
17911TIP3    H275149   1.355   4.776  16.119 -1.5678  1.9701  0.2566
17912TIP3   OH275150   3.757   4.378   2.898 -0.3265  0.1725  0.0586
17912TIP3    H175151   3.791   4.322   2.829  0.7562  0.1250  0.6134
17912TIP3    H275152   3.751   4.321   2.975 -1.8123  0.1440 -0.0449
17913TIP3   OH275153   5.457   5.489   3.489  0.6462 -0.2228 -0.3870
17913TIP3    H175154   5.508   5.568   3.505  1.1624 -0.5016 -0.6256
17913TIP3    H275155   5.489   5.426   3.554 -0.7609  0.1842  0.7662
17914TIP3   OH275156   3.697   5.694  11.135 -0.1159 -0.0535  0.1568
17914TIP3    H175157   3.738   5.613  11.104 -1.1569 -0.4794 -0.1601
17914TIP3    H275158   3.759   5.763  11.112  0.6632 -0.7320  0.1809
17915TIP3   OH275159   5.779   4.036  12.898 -0.1920  0.3466  0.3407
17915TIP3    H175160   5.795   4.052  12.991  0.3341  2.6979 -0.0848
17915TIP3    H275161   5.857   3.989  12.868 -1.2756 -2.3736  1.4292
17916TIP3   OH275162   5.962   3.561  14.319 -0.3026 -0.4122 -0.1397
17916TIP3    H175163   5.880   3.577  14.271  0.8211  0.4801 -1.8618
17916TIP3    H275164   6.024   3.623  14.281  0.9336 -0.3539  1.8441
17917TIP3   OH275165   1.457   0.262  12.117 -0.2312 -0.2373 -0.0652
17917TIP3    H175166   1.424   0.224  12.199 -2.5206  1.4686 -0.1274
17917TIP3    H275167   1.381   0.267  12.060  0.1344  3.3945 -0.4368
17918TIP3   OH275168   2.726   2.352  11.653 -0.1874  0.2591 -0.0717
17918TIP3    H175169   2.641   2.396  11.665  0.1636  0.9922 -0.2162
17918TIP3    H275170   2.791   2.420  11.669  0.4298 -0.6634  1.5518
17919TIP3   OH275171   3.633   5.189   2.743 -0.2423  0.5011  0.2001
17919TIP3    H175172   3.665   5.260   2.799  0.2238 -0.0086  0.5868
17919TIP3    H275173   3.712   5.143   2.715 -0.6412 -1.0313  1.4986
17920TIP3   OH275174   4.214   6.174  16.037 -0.1744  0.9455  0.5320
17920TIP3    H175175   4.303   6.186  16.071  0.2711  0.0136 -0.2564
17920TIP3    H275176   4.158   6.176  16.115  0.6316  0.6083  1.1382
17921TIP3   OH275177   4.482   1.660   0.956 -0.3602  0.2934  0.1289
17921TIP3    H175178   4.397   1.662   1.000  0.0930  2.7521  1.0980
17921TIP3    H275179   4.542   1.625   1.022 -0.1005  1.6696  0.6556
17922TIP3   OH275180   3.186   6.480  14.399  0.2753  0.0915 -0.0278
17922TIP3    H175181   3.209   6.572  14.393 -1.8413  0.7297  0.7981
17922TIP3    H275182   3.142   6.472  14.484  0.3844 -1.6777 -0.0987
17923TIP3   OH275183   2.541   3.595   2.249  0.0724 -0.3900  0.9084
17923TIP3    H175184   2.631   3.616   2.273  0.1085  1.0270 -0.2852
17923TIP3    H275185   2.543   3.503   2.225  1.5766 -0.0257 -0.5566
17924TIP3   OH275186   6.360   0.459  16.822 -0.8439 -0.6529 -0.7199
17924TIP3    H175187   6.343   0.471  16.915 -2.3687 -2.1518 -0.7480
17924TIP3    H275188   6.366   0.364  16.811  1.2117 -0.4510 -1.8756
17925TIP3   OH275189   1.028   2.782  14.649  0.7140  0.7644  0.1559
17925TIP3    H175190   0.937   2.800  14.625  0.2247 -0.4051  1.0378
17925TIP3    H275191   1.053   2.709  14.592  0.2013 -0.6810  1.7047
17926TIP3   OH275192   5.882   5.572   3.859 -0.0050  0.4196  0.2873
17926TIP3    H175193   5.882   5.476   3.858 -0.4954  0.3320  2.4737
17926TIP3    H275194   5.974   5.596   3.857  0.1094 -0.0689 -0.6967
17927TIP3   OH275195   4.243   2.317  15.616 -0.1819  0.7911  0.0222
17927TIP3    H175196   4.328   2.357  15.637  0.3581 -0.2514 -0.1137
17927TIP3    H275197   4.194   2.319  15.698  0.6196 -0.1373  0.5452
17928TIP3   OH275198   4.399   5.062   3.635 -0.0763  0.0164 -0.0309
17928TIP3    H175199   4.379   5.049   3.542 -0.2241  0.3913 -0.0570
17928TIP3    H275200   4.460   5.136   3.636  0.1136 -0.1407  0.1554
17929TIP3   OH275201   6.623   2.735  11.731  0.3512  0.1527  0.0787
17929TIP3    H175202   6.670   2.692  11.802  0.1650 -1.5345 -0.7670
17929TIP3    H275203   6.628   2.828  11.752  3.2854  0.0075  0.5142
17930TIP3   OH275204   4.444   3.948  12.207  0.3443  0.3749  0.0332
17930TIP3    H175205   4.522   3.894  12.199  1.3055  1.8590 -0.9477
17930TIP3    H275206   4.388   3.921  12.135  0.2223 -0.2149  0.3381
17931TIP3   OH275207   0.096   1.595  11.795 -0.4613 -0.7594  0.4751
17931TIP3    H175208   0.190   1.586  11.812 -0.4697 -1.6266  0.1066
17931TIP3    H275209   0.082   1.690  11.788  0.7193 -0.6778 -1.3036
17932TIP3   OH275210   2.415   1.198   2.480  0.5978  0.2523 -0.5683
17932TIP3    H175211   2.411   1.214   2.386  0.8461 -1.6085 -0.9165
17932TIP3    H275212   2.339   1.245   2.515  0.9083  1.5656 -1.5689
17933TIP3   OH275213   2.322   4.441  15.101 -0.1209 -0.1501  0.3527
17933TIP3    H175214   2.313   4.496  15.179  0.8145 -2.3005  2.0737
17933TIP3    H275215   2.307   4.352  15.132 -0.4495 -1.0425 -2.1040
17934TIP3   OH275216   6.037   4.461  13.890  0.0511 -0.6487  0.0107
17934TIP3    H175217   6.125   4.497  13.877 -0.4962  1.1625  0.9816
17934TIP3    H275218   6.034   4.439  13.983  0.3724 -3.4051 -0.5408
17935TIP3   OH275219   1.798   1.972   4.730  0.3125  0.2905 -0.1757
17935TIP3    H175220   1.748   1.957   4.810 -0.2821  0.2247 -0.5555
17935TIP3    H275221   1.788   2.066   4.713 -2.2676 -0.1885 -1.9087
17936TIP3   OH275222   4.472   4.974   0.979  0.4763 -0.0970 -0.1702
17936TIP3    H175223   4.560   5.012   0.976  0.2123  0.4817 -2.2564
17936TIP3    H275224   4.473   4.917   1.056  2.4326  0.4551  0.2659
17937TIP3   OH275225   0.308   5.332   1.290  0.0810 -0.1180 -0.2419
17937TIP3    H175226   0.323   5.427   1.293 -0.6612 -0.0145  0.6833
17937TIP3    H275227   0.246   5.316   1.361 -1.0064 -1.0689 -1.3597
17938TIP3   OH275228   0.188   1.233  13.377 -0.6325  0.3411 -0.0904
17938TIP3    H175229   0.193   1.290  13.300 -1.5058 -1.0841 -1.2631
17938TIP3    H275230   0.276   1.196  13.385 -0.2455  1.3252  0.2681
17939TIP3   OH275231   5.558   1.856   2.079  0.0186 -0.1155 -0.5267
17939TIP3    H175232   5.592   1.940   2.050  0.2309 -0.3834 -1.0649
17939TIP3    H275233   5.496   1.878   2.149  0.1908  0.4715 -0.5527
17940TIP3   OH275234   1.218   1.335   3.195 -1.0904 -0.5916 -0.1494
17940TIP3    H175235   1.135   1.292   3.215 -1.7528  0.9097  0.4472
17940TIP3    H275236   1.218   1.414   3.249 -0.3227  0.6524 -1.8916
17941TIP3   OH275237   6.736   3.757   2.116  0.5782  0.2255 -0.7715
17941TIP3    H175238   6.816   3.767   2.066  0.0914  1.7482 -1.3316
17941TIP3    H275239   6.666   3.757   2.050  0.0603  0.0099 -0.2345
17942TIP3   OH275240   0.443   4.128   5.245 -0.2467  0.0620 -0.1429
17942TIP3    H175241   0.383   4.092   5.178  0.6489  0.9763 -1.4726
17942TIP3    H275242   0.402   4.210   5.272  0.4472  0.7915 -1.2019
17943TIP3   OH275243   5.760   0.648   1.968  0.1136  0.0345 -0.1444
17943TIP3    H175244   5.799   0.719   2.020 -0.3673  1.4000 -1.5926
17943TIP3    H275245   5.765   0.679   1.878  0.9866 -2.3228 -0.9768
17944TIP3   OH275246   4.440   6.719   4.210  0.3543  0.3861 -0.5129
17944TIP3    H175247   4.415   6.681   4.294 -0.5865  0.6042 -0.6764
17944TIP3    H275248   4.362   6.768   4.182  0.8524  0.7875 -1.2367
17945TIP3   OH275249   3.666   4.685   0.606 -0.5565 -0.5847  0.4158
17945TIP3    H175250   3.572   4.685   0.622 -0.6152 -0.6515  0.0811
17945TIP3    H275251   3.674   4.669   0.512 -0.2210 -0.1596  0.3705
17946TIP3   OH275252   4.754   3.527  13.430 -0.2972 -0.2104  0.5492
17946TIP3    H175253   4.740   3.505  13.338 -0.0260  0.8172  0.2505
17946TIP3    H275254   4.667   3.525  13.469 -0.1947 -2.8309  0.8019
17947TIP3   OH275255   5.143   5.837  17.046  0.0856  0.5865  0.2854
17947TIP3    H175256   5.089   5.774  17.094  0.3321 -0.5155 -0.8327
17947TIP3    H275257   5.118   5.824  16.954 -0.1498  2.4128  0.0540
17948TIP3   OH275258   4.064   6.329  17.195  1.1223 -0.2039 -0.3398
17948TIP3    H175259   4.075   6.251  17.250 -1.9654 -1.8074 -1.7558
17948TIP3    H275260   4.116   6.311  17.116  0.9377 -0.5148 -0.3892
17949TIP3   OH275261   5.719   0.865  11.493  0.9830  0.1961 -0.5522
17949TIP3    H175262   5.712   0.831  11.583 -0.8102  0.4339 -0.5596
17949TIP3    H275263   5.801   0.828  11.460  0.0238 -2.7829  0.0286
17950TIP3   OH275264   5.821   5.787   2.334  0.6289 -0.1729 -0.1266
17950TIP3    H175265   5.736   5.752   2.309  1.0221 -0.1174 -1.6305
17950TIP3    H275266   5.862   5.813   2.251  2.1900 -0.4005  0.5382
17951TIP3   OH275267   2.858   2.705  12.488  0.1097  0.8602 -0.2913
17951TIP3    H175268   2.836   2.650  12.413 -4.1417  2.0572 -0.2485
17951TIP3    H275269   2.932   2.757  12.459 -0.4818  0.2760 -3.1751
17952TIP3   OH275270   5.265   0.740  12.277  0.3069  0.7561  0.1226
17952TIP3    H175271   5.294   0.824  12.242 -1.1694  0.8777 -0.8400
17952TIP3    H275272   5.309   0.735  12.362  1.5581  1.8276 -0.4150
17953TIP3   OH275273   2.974   4.892  15.248 -0.2325  0.0895 -0.1559
17953TIP3    H175274   3.070   4.891  15.254 -0.3231 -0.3054  3.2389
17953TIP3    H275275   2.950   4.801  15.232 -0.0735  0.1014 -0.4802
17954TIP3   OH275276   6.008   3.011  13.718  0.1886 -0.3037 -0.5941
17954TIP3    H175277   5.963   3.093  13.699  1.4266  0.7834  0.8499
17954TIP3    H275278   6.045   3.024  13.806  2.2965 -1.5517 -1.2300
17955TIP3   OH275279   2.621   0.982  11.634 -0.0601 -0.1281 -0.1703
17955TIP3    H175280   2.661   0.990  11.548 -1.4508 -0.1474 -0.8379
17955TIP3    H275281   2.678   0.921  11.682  1.1251  0.4471 -0.8061
17956TIP3   OH275282   3.296   4.690  11.106 -0.4984  0.7694 -0.0892
17956TIP3    H175283   3.385   4.656  11.090 -0.9248 -0.4463  0.0220
17956TIP3    H275284   3.254   4.623  11.159 -1.9971  0.5714 -1.4491
17957TIP3   OH275285   3.777   3.231  12.625 -0.3434 -0.2129  0.0899
17957TIP3    H175286   3.698   3.197  12.582 -0.5584 -0.1585  0.4358
17957TIP3    H275287   3.849   3.205  12.567 -0.6881  0.4264 -0.6463
17958TIP3   OH275288   1.599   5.157  17.168 -0.2338 -0.2437 -0.2356
17958TIP3    H175289   1.690   5.184  17.180 -0.1950 -1.2451  2.2700
17958TIP3    H275290   1.605   5.072  17.125  0.0014 -0.3144 -0.0635
17959TIP3   OH275291   1.402   2.117   3.008  0.3144  0.1688 -0.4575
17959TIP3    H175292   1.358   2.148   3.087 -1.9319 -1.7983 -0.8211
17959TIP3    H275293   1.480   2.071   3.040  1.1897  2.0794  0.3325
17960TIP3   OH275294   5.794   5.466   0.195 -0.1065 -0.7636 -0.1564
17960TIP3    H175295   5.715   5.427   0.232 -1.9827  1.3303 -1.7462
17960TIP3    H275296   5.789   5.449   0.101 -0.2063  1.7908 -0.6956
17961TIP3   OH275297   4.129   2.875   5.470  0.0712  0.0844  0.5232
17961TIP3    H175298   4.109   2.893   5.378  2.2383  2.2053  0.3687
17961TIP3    H275299   4.177   2.792   5.468  2.5582  1.4625 -0.6936
17962TIP3   OH275300   0.195   1.452  13.587 -0.4254  0.2285 -0.0793
17962TIP3    H175301   0.200   1.518  13.517 -1.1808 -1.3272 -1.6800
17962TIP3    H275302   0.208   1.368  13.542 -0.6630 -0.8200  1.7056
17963TIP3   OH275303   0.232   3.954  11.967  0.0759  0.4928  0.7254
17963TIP3    H175304   0.202   3.979  12.055  1.2813  1.1524  0.9642
17963TIP3    H275305   0.214   3.860  11.961 -0.3219  0.5087  1.5489
17964TIP3   OH275306   5.886   6.526  11.756  0.2397 -0.3552 -0.3038
17964TIP3    H175307   5.919   6.437  11.757 -0.2927 -0.5813  1.9500
17964TIP3    H275308   5.792   6.517  11.738  0.0822 -0.3169  0.4585
17965TIP3   OH275309   0.201   3.897  11.342  0.1841  0.0265  0.3796
17965TIP3    H175310   0.244   3.980  11.323  1.8394 -1.0060 -0.6737
17965TIP3    H275311   0.229   3.838  11.272 -2.2889 -0.9909  0.1360
17966TIP3   OH275312   3.171   6.162  12.780  0.1603 -0.0968 -0.2402
17966TIP3    H175313   3.224   6.153  12.701 -0.2876 -0.8685 -0.4702
17966TIP3    H275314   3.231   6.144  12.852  0.8690  1.8341 -0.3075
17967TIP3   OH275315   4.127   6.073  12.098  0.0574  0.0272 -0.4056
17967TIP3    H175316   4.051   6.040  12.145 -0.7634  1.7179 -0.4702
17967TIP3    H275317   4.143   6.008  12.030 -1.0735 -0.5549 -0.1434
17968TIP3   OH275318   0.538   0.219   1.200  0.0227 -0.5677  0.0725
17968TIP3    H175319   0.520   0.293   1.257  2.2853 -0.9526  1.4272
17968TIP3    H275320   0.490   0.238   1.119 -1.4245  1.1250  1.2500
17969TIP3   OH275321   0.695   4.436   2.640 -0.0507  0.1729  0.0768
17969TIP3    H175322   0.600   4.443   2.627 -0.3483  0.1232  1.8807
17969TIP3    H275323   0.734   4.485   2.568 -1.4886  1.2661  0.0125
17970TIP3   OH275324   3.641   5.111  10.659 -0.2017 -0.1644 -0.2298
17970TIP3    H175325   3.722   5.061  10.670 -0.3805 -0.2978  0.5515
17970TIP3    H275326   3.581   5.049  10.618 -0.3778 -0.5569  0.6066
17971TIP3   OH275327   2.790   0.513   1.845 -0.6905  0.3323 -0.0953
17971TIP3    H175328   2.758   0.591   1.890 -0.0859  0.7963 -0.4370
17971TIP3    H275329   2.846   0.469   1.909 -3.5780 -1.6498  1.2667
17972TIP3   OH275330   5.290   3.520  15.129  0.2218  0.5865 -0.2460
17972TIP3    H175331   5.376   3.482  15.112  0.3505  1.2183 -1.0548
17972TIP3    H275332   5.308   3.604  15.170 -0.0379  0.2930  0.4792
17973TIP3   OH275333   2.574   6.424  17.056  0.6599  0.6126  0.4210
17973TIP3    H175334   2.583   6.519  17.070  2.0143  0.4678  0.7068
17973TIP3    H275335   2.651   6.400  17.004  1.4253 -0.6394  2.0445
17974TIP3   OH275336   4.754   2.382  11.360  0.1084  0.2505 -0.0231
17974TIP3    H175337   4.746   2.346  11.448 -1.5480 -0.9543 -0.6412
17974TIP3    H275338   4.829   2.336  11.322  1.3427  1.3405  0.9636
17975TIP3   OH275339   4.563   1.501   2.552 -0.0145  0.1652 -0.2297
17975TIP3    H175340   4.549   1.548   2.470  0.5096  1.3066  0.2970
17975TIP3    H275341   4.485   1.448   2.564 -0.1552  0.0805 -1.3912
17976TIP3   OH275342   1.010   5.308   1.388  0.2926  0.2180  0.3951
17976TIP3    H175343   1.095   5.264   1.381  0.0230 -0.2736  0.2321
17976TIP3    H275344   0.959   5.253   1.446 -1.5688 -2.1131 -3.1285
17977TIP3   OH275345   3.992   6.542  13.339 -0.2362  0.3257  0.6183
17977TIP3    H175346   4.042   6.611  13.294  0.1245 -0.3923 -0.1145
17977TIP3    H275347   3.916   6.587  13.376 -0.3068  1.0206 -0.3392
17978TIP3   OH275348   6.711   4.757   1.339 -0.1815 -0.0592 -0.2089
17978TIP3    H175349   6.792   4.786   1.296 -0.2255 -0.4708 -0.5882
17978TIP3    H275350   6.721   4.662   1.344  0.6267  0.0871  2.3606
17979TIP3   OH275351   5.490   4.660   2.859  0.8939  0.3265 -0.1073
17979TIP3    H175352   5.508   4.731   2.921  1.8819  0.1874 -0.2329
17979TIP3    H275353   5.551   4.674   2.787  1.4369 -0.9285  0.0830
17980TIP3   OH275354   6.181   5.812  15.797 -0.1138 -0.2458 -0.0467
17980TIP3    H175355   6.218   5.820  15.885  0.8601 -0.1482 -0.4442
17980TIP3    H275356   6.103   5.866  15.798  0.0370 -0.0343  0.6833
17981TIP3   OH275357   6.504   0.056   0.161  0.0916  0.4007 -0.2477
17981TIP3    H175358   6.556   0.011   0.228  0.8825  2.3722  0.5441
17981TIP3    H275359   6.416   0.062   0.198 -0.3837 -1.5763 -0.9293
17982TIP3   OH275360   5.836   3.813   3.979 -0.1846  0.2161 -0.0103
17982TIP3    H175361   5.774   3.753   4.020  0.7795 -0.8335 -0.0515
17982TIP3    H275362   5.847   3.780   3.890 -0.2890  0.9663 -0.3135
17983TIP3   OH275363   4.011   3.970   5.708 -0.1564  0.8582  0.5285
17983TIP3    H175364   4.013   4.038   5.640  0.4188  0.5775  0.2631
17983TIP3    H275365   3.993   3.889   5.660  1.3690  0.4849  0.5530
17984TIP3   OH275366   0.633   4.778   4.613  0.0527 -0.2229  0.1552
17984TIP3    H175367   0.671   4.728   4.541  0.1497  1.6514 -1.1626
17984TIP3    H275368   0.694   4.851   4.626 -0.0114 -0.4746  2.1034
17985TIP3   OH275369   1.456   0.539  11.669 -0.4060 -0.0557 -1.0949
17985TIP3    H175370   1.365   0.508  11.664 -1.2491  1.9541  0.5306
17985TIP3    H275371   1.456   0.620  11.617  0.1234  0.6292 -0.0531
17986TIP3   OH275372   1.424   6.679   4.567 -0.0816  0.4224 -0.1860
17986TIP3    H175373   1.351   6.641   4.519 -0.7512  1.5643 -0.1144
17986TIP3    H275374   1.389   6.698   4.654  1.2123 -1.9127  0.9231
17987TIP3   OH275375   0.990   2.618  14.152  0.5065 -0.0687 -0.0170
17987TIP3    H175376   0.929   2.600  14.080 -0.2775  0.5863  0.4627
17987TIP3    H275377   0.977   2.712  14.170  2.1214  0.2320 -0.3149
17988TIP3   OH275378   3.170   2.983   1.096  0.6496 -0.1197 -0.2345
17988TIP3    H175379   3.093   2.927   1.095  2.5580 -2.9530 -0.2843
17988TIP3    H275380   3.136   3.071   1.082 -2.5916 -1.1457  0.3877
17989TIP3   OH275381   2.860   5.906   2.266 -0.2788 -0.1007  0.2888
17989TIP3    H175382   2.821   5.832   2.312  1.0292 -0.3578  1.0295
17989TIP3    H275383   2.937   5.929   2.318  0.8055  0.1242 -1.3378
17990TIP3   OH275384   2.950   2.984   6.315 -0.0580  0.2185  0.3692
17990TIP3    H175385   2.980   3.039   6.242  0.1406  0.0296  0.3082
17990TIP3    H275386   2.891   3.041   6.365 -0.1838  0.3550  0.0708
17991TIP3   OH275387   2.163   5.585   0.766 -0.4618  0.4133  0.4151
17991TIP3    H175388   2.144   5.602   0.674 -0.7286 -1.5271  0.0585
17991TIP3    H275389   2.110   5.508   0.788 -1.4457  1.5990  2.6039
17992TIP3   OH275390   4.134   3.425   2.108  0.4165 -0.2171 -0.2661
17992TIP3    H175391   4.174   3.344   2.138 -1.5061 -1.7649 -1.5936
17992TIP3    H275392   4.066   3.444   2.174  1.9835  1.3717  0.9918
17993TIP3   OH275393   0.875   5.442  13.273  0.0708 -0.4361  0.2292
17993TIP3    H175394   0.947   5.382  13.293  0.5699 -0.7931 -2.3005
17993TIP3    H275395   0.799   5.405  13.318  0.7015 -2.1300 -0.0449
17994TIP3   OH275396   5.387   2.007   1.635  0.1015 -0.2048  0.5447
17994TIP3    H175397   5.368   1.918   1.666  1.0272 -1.2191 -1.6217
17994TIP3    H275398   5.339   2.063   1.695  0.3142 -2.1019  2.6321
17995TIP3   OH275399   5.355   4.316   5.572  0.6371 -0.3762  0.0908
17995TIP3    H175400   5.262   4.302   5.588  0.7292  1.5309  2.7732
17995TIP3    H275401   5.399   4.266   5.641  1.6109 -0.6719 -0.7182
17996TIP3   OH275402   5.210   5.486  13.756  0.4483 -0.3502  0.1648
17996TIP3    H175403   5.246   5.554  13.813  0.7681  0.1990 -0.6767
17996TIP3    H275404   5.269   5.411  13.769 -0.4870 -0.8415  1.8584
17997TIP3   OH275405   2.114   3.254   3.574 -0.0124 -0.2470  0.1915
17997TIP3    H175406   2.143   3.168   3.603 -0.3371 -0.6783 -0.7327
17997TIP3    H275407   2.114   3.307   3.654 -4.8026 -2.3851  1.9611
17998TIP3   OH275408   5.957   1.694   3.571  0.7491 -0.4836 -0.2751
17998TIP3    H175409   5.936   1.786   3.589  1.3737 -0.5036  0.5959
17998TIP3    H275410   5.884   1.645   3.610  1.4651 -0.4558  1.1708
17999TIP3   OH275411   6.003   5.837   5.282 -0.4118  0.2452 -0.0148
17999TIP3    H175412   5.970   5.837   5.192 -0.2884  1.0818 -0.0596
17999TIP3    H275413   5.969   5.917   5.321 -1.2141 -0.5493  0.9692
18000TIP3   OH275414   6.351   3.487   0.255  0.4549  0.1084 -0.0702
18000TIP3    H175415   6.436   3.477   0.298  1.9336  2.6154 -2.1180
18000TIP3    H275416   6.302   3.546   0.311  1.1413  0.8161 -0.1987
18001TIP3   OH275417   0.601   4.279   4.904  0.1523 -0.5084  0.3296
18001TIP3    H175418   0.573   4.362   4.943  1.7862  0.1005  0.3011
18001TIP3    H275419   0.580   4.287   4.811  1.5487  0.4976  0.0597
18002TIP3   OH275420   4.769   5.138  16.544  0.4002  0.6236  0.0271
18002TIP3    H175421   4.824   5.149  16.466  1.4826 -1.0243  0.5046
18002TIP3    H275422   4.681   5.158  16.513  0.4041 -2.2885 -2.3342
18003TIP3   OH275423   5.788   3.356   0.908 -0.1024 -0.2371 -0.3874
18003TIP3    H175424   5.779   3.371   0.813  0.5970  3.0329 -0.0799
18003TIP3    H275425   5.750   3.435   0.948 -0.2175 -1.4591  2.0788
18004TIP3   OH275426   4.546   4.015   3.038  0.3329 -0.6363  0.3802
18004TIP3    H175427   4.568   4.066   3.116 -0.8930 -0.6244  0.7332
18004TIP3    H275428   4.630   4.004   2.992  0.6679  1.6632  0.3016
18005TIP3   OH275429   2.762   4.759   1.487 -0.3602 -0.5118  0.0247
18005TIP3    H175430   2.682   4.805   1.512 -1.0448 -1.7077  0.0849
18005TIP3    H275431   2.743   4.725   1.399  0.0600 -0.8383  0.0589
18006TIP3   OH275432   2.187   1.482   0.431  0.2143 -0.6663 -0.8088
18006TIP3    H175433   2.125   1.503   0.361  2.3894  1.2108 -2.2958
18006TIP3    H275434   2.202   1.565   0.476  0.4260 -1.4273  0.6021
18007TIP3   OH275435   2.820   5.381  16.313  0.2021  0.6784 -0.3892
18007TIP3    H175436   2.853   5.470  16.299  0.6142  0.5715 -0.1099
18007TIP3    H275437   2.866   5.350  16.390  1.4668 -0.4495 -1.5370
18008TIP3   OH275438   2.307   0.728   6.076 -0.3186  0.4869 -0.3955
18008TIP3    H175439   2.358   0.806   6.097  0.1758  0.2825 -0.8269
18008TIP3    H275440   2.327   0.709   5.984  0.2486 -0.6347 -0.0686
18009TIP3   OH275441   5.740   3.292   5.283  0.6190  0.7406 -0.1350
18009TIP3    H175442   5.705   3.331   5.203  1.1945  1.8260  0.1239
18009TIP3    H275443   5.814   3.347   5.306  1.4678 -0.5219  0.2553
18010TIP3   OH275444   4.528   0.545   4.420  0.1580  0.7639  0.0329
18010TIP3    H175445   4.515   0.481   4.490  0.2431  0.0386 -0.5959
18010TIP3    H275446   4.525   0.493   4.340  0.3469  1.5394 -0.4865
18011TIP3   OH275447   2.183   4.598  11.505 -0.2939 -0.7781 -0.3209
18011TIP3    H175448   2.142   4.650  11.574 -0.3183  0.7008 -1.4074
18011TIP3    H275449   2.249   4.655  11.467 -1.6565 -0.7256 -2.8782
18012TIP3   OH275450   1.938   5.663  16.963 -0.0945 -0.4083 -0.2047
18012TIP3    H175451   1.907   5.577  16.992 -0.3164 -0.1403  0.3691
18012TIP3    H275452   1.859   5.717  16.958  0.2482  0.2803  1.2708
18013TIP3   OH275453   6.066   2.199  15.261 -0.0003 -0.6602 -0.0438
18013TIP3    H175454   6.033   2.243  15.182 -0.6200 -0.7318  0.1695
18013TIP3    H275455   5.998   2.214  15.326  1.2674  0.8683  1.0059
18014TIP3   OH275456   2.298   5.635   3.534 -0.1187 -0.0987 -0.3334
18014TIP3    H175457   2.392   5.629   3.556 -0.0108  0.1671 -0.7202
18014TIP3    H275458   2.275   5.547   3.504 -0.5225 -0.7933  1.7988
18015TIP3   OH275459   6.271   2.367   0.397  0.0214 -0.1313  0.0436
18015TIP3    H175460   6.349   2.312   0.384  1.1208  1.0032  1.5329
18015TIP3    H275461   6.253   2.403   0.310  0.6050 -1.1107 -0.5079
18016TIP3   OH275462   1.715   3.763   4.121  0.2721 -0.5201 -0.0295
18016TIP3    H175463   1.796   3.777   4.170 -0.1881  1.2736  0.3233
18016TIP3    H275464   1.650   3.745   4.189 -0.1975  1.1405  0.0247
18017TIP3   OH275465   5.001   5.459  10.767 -0.1256  0.6986 -0.3571
18017TIP3    H175466   5.050   5.475  10.686 -0.9001 -0.0538 -0.9894
18017TIP3    H275467   4.910   5.458  10.741 -0.5798  2.6873  0.9195
18018TIP3   OH275468   2.591   1.248   5.644  0.2296 -0.3599 -0.6885
18018TIP3    H175469   2.500   1.272   5.624  0.5673  0.7189 -1.0014
18018TIP3    H275470   2.610   1.293   5.726  0.1543 -1.4726 -0.0333
18019TIP3   OH275471   3.048   4.238  11.298 -0.1079 -0.1488  0.1071
18019TIP3    H175472   3.132   4.200  11.322  1.5653  2.2484 -1.4817
18019TIP3    H275473   2.999   4.241  11.380  0.8687 -2.6054  0.8742
18020TIP3   OH275474   4.211   3.349   3.065 -0.1767 -0.0880  0.5190
18020TIP3    H175475   4.248   3.437   3.073  0.0464 -0.1907  0.6264
18020TIP3    H275476   4.287   3.291   3.063 -0.2796 -0.2020 -0.6214
18021TIP3   OH275477   1.668   5.896   1.154 -0.0864  0.1950  0.3688
18021TIP3    H175478   1.585   5.869   1.115  0.0477  2.0731 -1.3705
18021TIP3    H275479   1.663   5.991   1.157  0.7465  0.2497  3.2487
18022TIP3   OH275480   2.422   3.279  12.790 -0.1729  0.1153  0.1035
18022TIP3    H175481   2.453   3.212  12.729 -1.4763 -0.2847 -0.1475
18022TIP3    H275482   2.360   3.331  12.740  1.2136  1.9087  0.1255
18023TIP3   OH275483   1.853   1.455  11.616  0.0247  0.0806  0.0990
18023TIP3    H175484   1.924   1.519  11.623  0.7748 -0.7501  0.2963
18023TIP3    H275485   1.890   1.374  11.652 -0.2352 -1.0033 -1.9526
18024TIP3   OH275486   2.531   5.790  16.376  0.1841 -0.2012  0.2240
18024TIP3    H175487   2.491   5.728  16.315  0.2205  1.5349 -1.6996
18024TIP3    H275488   2.530   5.745  16.461 -0.9438 -2.2764 -0.8050
18025TIP3   OH275489   2.862   2.248  15.990  0.0127  0.0362 -0.1518
18025TIP3    H175490   2.841   2.155  15.979 -1.2141  0.3340 -0.4207
18025TIP3    H275491   2.928   2.266  15.923 -2.1403  0.1093 -2.4066
18026TIP3   OH275492   2.615   1.555  13.490  0.0259  0.0189 -0.0082
18026TIP3    H175493   2.699   1.595  13.512  0.6575 -1.6005  0.6883
18026TIP3    H275494   2.552   1.599  13.548  0.9210 -0.8617  1.7224
18027TIP3   OH275495   5.501   2.034  11.901  0.1669 -0.0438  0.4951
18027TIP3    H175496   5.447   2.051  11.824  0.2323 -0.2937  0.3931
18027TIP3    H275497   5.460   2.085  11.971 -0.2097 -0.2405  0.4222
18028TIP3   OH275498   3.698   2.610  15.812  0.0509 -0.0389 -0.2950
18028TIP3    H175499   3.694   2.562  15.895  0.0770  0.2353 -0.1353
18028TIP3    H275500   3.634   2.680  15.821 -1.5173 -1.2664 -1.3264
18029TIP3   OH275501   2.905   6.377  14.832  0.2192  0.5748 -0.4444
18029TIP3    H175502   2.866   6.338  14.754 -0.4319  1.3820 -0.5301
18029TIP3    H275503   2.911   6.305  14.895 -0.5721  0.2405 -0.7461
18030TIP3   OH275504   0.383   5.095   4.212 -0.7684  0.0843 -0.1141
18030TIP3    H175505   0.401   5.033   4.283 -1.3083 -0.5574 -0.5222
18030TIP3    H275506   0.414   5.050   4.133 -1.1601  0.3348 -0.4162
18031TIP3   OH275507   0.556   4.718  13.908  0.7009  0.0919  0.0894
18031TIP3    H175508   0.583   4.782  13.973  0.0297 -1.2418  1.7676
18031TIP3    H275509   0.510   4.769  13.841 -1.1100  1.2488  2.0838
18032TIP3   OH275510   5.764   3.194  12.185 -0.3563 -0.1083 -0.4082
18032TIP3    H175511   5.807   3.248  12.252 -0.8904  0.7770 -0.7487
18032TIP3    H275512   5.808   3.110  12.189 -0.1243  0.0581  0.7937
18033TIP3   OH275513   1.540   2.638  13.353 -0.4348 -0.2756  0.5420
18033TIP3    H175514   1.617   2.589  13.381  0.4751  0.8199 -0.0080
18033TIP3    H275515   1.546   2.722  13.399 -1.1683 -0.0788  0.2920
18034TIP3   OH275516   4.604   2.157   6.020  0.0213  0.1346 -0.5120
18034TIP3    H175517   4.580   2.236   5.973 -2.3522 -0.1149  0.1451
18034TIP3    H275518   4.582   2.176   6.112  3.1371  0.0809  0.3471
18035TIP3   OH275519   4.724   4.048  14.628 -0.1596  0.6705  0.2218
18035TIP3    H175520   4.691   4.054  14.538 -0.0165 -0.4248  0.0752
18035TIP3    H275521   4.729   3.954  14.645  0.2464  0.8594  1.2204
18036TIP3   OH275522   6.761   2.910   5.973 -0.1290  0.0433  0.1613
18036TIP3    H175523   6.707   2.986   5.949  1.5488  1.1612 -0.2234
18036TIP3    H275524   6.820   2.898   5.899 -0.7109 -2.0375 -0.0390
18037TIP3   OH275525   3.626   1.504  16.235  0.4983 -0.1779 -0.0571
18037TIP3    H175526   3.654   1.509  16.144 -0.7514 -2.6300 -0.6668
18037TIP3    H275527   3.704   1.528  16.286  1.2946  0.9413 -1.7355
18038TIP3   OH275528   4.398   1.226  15.333 -0.6042 -0.0602 -0.1965
18038TIP3    H175529   4.345   1.298  15.300  1.0645  1.7973  0.9257
18038TIP3    H275530   4.409   1.245  15.426  0.6364 -1.2801 -0.0557
18039TIP3   OH275531   0.516   6.274  16.881 -0.3694  0.0361 -0.0642
18039TIP3    H175532   0.480   6.322  16.806 -0.2356 -1.9139 -1.4295
18039TIP3    H275533   0.610   6.268  16.862 -0.1616  0.4259  0.7996
18040TIP3   OH275534   2.307   4.887  15.856  0.0908 -0.5644 -0.0515
18040TIP3    H175535   2.358   4.825  15.908  1.2183  0.8526  0.6183
18040TIP3    H275536   2.373   4.945  15.816 -0.8884 -0.1315 -1.1017
18041TIP3   OH275537   4.754   0.972  17.097 -0.1969 -0.0074  1.1750
18041TIP3    H175538   4.740   0.880  17.075  0.9745  0.1837 -0.5688
18041TIP3    H275539   4.843   0.991  17.067  0.4369  1.1239  3.5568
18042TIP3   OH275540   0.592   6.169   6.048 -0.5091 -0.2005 -0.1237
18042TIP3    H175541   0.578   6.217   6.130 -1.1601  0.9016 -0.8616
18042TIP3    H275542   0.687   6.169   6.036 -0.5346  2.1748 -0.8195
18043TIP3   OH275543   0.021   1.783   3.195 -0.6430 -0.0425 -0.1465
18043TIP3    H175544   0.090   1.813   3.256 -0.4633 -2.5102  0.9891
18043TIP3    H275545   0.056   1.804   3.108  0.2807  1.2407  0.4912
18044TIP3   OH275546   0.987   1.680  13.515 -0.1898  0.4901 -0.4312
18044TIP3    H175547   0.918   1.732  13.472  0.7322  1.4511 -0.8003
18044TIP3    H275548   1.024   1.627  13.445  0.4223  1.0685 -0.5521
18045TIP3   OH275549   5.436   6.005   1.664  0.2248  0.0827 -0.5100
18045TIP3    H175550   5.440   6.060   1.742 -1.0650 -0.1637 -0.2386
18045TIP3    H275551   5.514   6.028   1.614  0.4349  1.1335  0.2647
18046TIP3   OH275552   4.591   0.523  16.295  0.3137 -0.1645 -0.5112
18046TIP3    H175553   4.641   0.482  16.366 -0.8743 -0.1542  0.3728
18046TIP3    H275554   4.524   0.458  16.273 -0.7361  0.7188 -0.0336
18047TIP3   OH275555   2.774   3.165   3.041 -0.3740 -0.3177  0.0335
18047TIP3    H175556   2.802   3.243   2.994  0.4969 -0.9061 -0.4594
18047TIP3    H275557   2.784   3.187   3.134 -1.0913  0.4843 -0.0695
18048TIP3   OH275558   6.186   3.030  17.090 -0.3831 -0.0717 -0.5571
18048TIP3    H175559   6.265   3.046  17.142 -0.7777  1.0231 -0.2794
18048TIP3    H275560   6.114   3.046  17.150 -0.8357  0.4273 -1.2247
18049TIP3   OH275561   1.256   1.618  12.081 -0.1501  0.5674 -0.6065
18049TIP3    H175562   1.226   1.686  12.142  1.4072  0.4578  0.3153
18049TIP3    H275563   1.176   1.573  12.054 -0.8467  0.2690  1.7740
18050TIP3   OH275564   2.012   1.695   1.772 -0.3419  0.1306 -0.3315
18050TIP3    H175565   1.950   1.768   1.767  1.4829  1.7417 -0.4449
18050TIP3    H275566   2.029   1.673   1.681  0.1754  0.5323 -0.3372
18051TIP3   OH275567   1.760   4.372  14.305  1.1640 -0.6003  1.0994
18051TIP3    H175568   1.709   4.329  14.237  1.2754  1.3395 -0.2891
18051TIP3    H275569   1.703   4.373  14.382  0.0016 -0.5331  0.2529
18052TIP3   OH275570   1.152   5.432  16.902  0.6264  0.6277 -0.5149
18052TIP3    H175571   1.129   5.405  16.813  0.8895 -0.4500 -0.2656
18052TIP3    H275572   1.171   5.350  16.948 -0.7407  1.0546  0.8914
18053TIP3   OH275573   0.659   5.877  15.577 -0.0200  0.0858  0.0610
18053TIP3    H175574   0.583   5.819  15.568  0.1403 -0.1693  0.3439
18053TIP3    H275575   0.731   5.818  15.598 -0.5536  0.6902  4.3427
18054TIP3   OH275576   5.863   2.034   0.679  0.0754 -0.1824  0.5230
18054TIP3    H175577   5.853   1.940   0.694 -0.9276 -0.0613  0.6691
18054TIP3    H275578   5.832   2.075   0.760  0.4210  0.2761  0.4262
18055TIP3   OH275579   6.706   2.418  14.135 -0.0290  0.0802 -0.0747
18055TIP3    H175580   6.747   2.372  14.062  1.3524 -0.3365  0.9198
18055TIP3    H275581   6.710   2.511  14.111 -0.1398 -0.0906 -0.7775
18056TIP3   OH275582   4.257   0.475   4.719  0.1494 -0.3923  0.3339
18056TIP3    H175583   4.264   0.568   4.743 -0.3818 -0.9572  2.8982
18056TIP3    H275584   4.166   0.464   4.693  0.1492 -0.2534  0.2753
18057TIP3   OH275585   1.186   2.545  16.274 -0.0921  0.1612  0.5477
18057TIP3    H175586   1.141   2.630  16.270  0.1506  0.5546  3.6505
18057TIP3    H275587   1.120   2.484  16.306  0.4989 -0.1299  1.2551
18058TIP3   OH275588   2.098   4.218  11.572 -0.2539  0.9435 -0.6701
18058TIP3    H175589   2.143   4.276  11.510  0.7461  0.0811 -0.7730
18058TIP3    H275590   2.090   4.270  11.652  0.5632  1.2488 -0.7841
18059TIP3   OH275591   6.099   1.239   4.428  0.4021 -0.6123 -0.3324
18059TIP3    H175592   6.082   1.219   4.520  2.4749  0.9093  0.4669
18059TIP3    H275593   6.044   1.178   4.379 -0.6022 -1.5981  1.9088
18060TIP3   OH275594   2.391   4.542   0.480 -0.8526  0.0622 -0.0343
18060TIP3    H175595   2.308   4.590   0.474  0.8194  3.3555  0.8982
18060TIP3    H275596   2.456   4.602   0.444  1.1925 -2.3880 -0.6589
18061TIP3   OH275597   4.314   1.485  14.024  0.1408 -0.1344  0.5738
18061TIP3    H175598   4.374   1.531  13.965 -1.4452  0.4923 -0.6362
18061TIP3    H275599   4.310   1.396  13.990  2.3456 -0.9412  2.2418
18062TIP3   OH275600   2.397   6.316  12.120 -0.2061 -0.0978 -0.0319
18062TIP3    H175601   2.409   6.303  12.026  1.1118  0.6129  0.0034
18062TIP3    H275602   2.438   6.401  12.137  0.4197 -0.6408  1.3283
18063TIP3   OH275603   2.663   3.092   0.257  0.8031 -0.0704  0.7087
18063TIP3    H175604   2.660   3.065   0.165 -0.6440  3.3599 -0.3968
18063TIP3    H275605   2.577   3.067   0.291  0.1024  1.4871  0.1580
18064TIP3   OH275606   5.043   5.378   1.358 -0.2718 -0.3326  0.2233
18064TIP3    H175607   5.079   5.295   1.389 -0.9932  0.1852  2.6407
18064TIP3    H275608   4.966   5.393   1.413  0.4957  2.5042  0.6739
18065TIP3   OH275609   5.178   4.688   0.025  0.5749  0.4013 -0.2685
18065TIP3    H175610   5.197   4.684  -0.069  2.5292  0.0013  0.1094
18065TIP3    H275611   5.241   4.628   0.065 -1.0945 -0.4736  1.2022
18066TIP3   OH275612   1.411   3.467   4.322  0.4649 -0.1649  0.4287
18066TIP3    H175613   1.419   3.406   4.395 -2.7721 -0.2943  0.8088
18066TIP3    H275614   1.471   3.539   4.344  0.2586 -0.6320  2.7641
18067TIP3   OH275615   0.988   3.286  12.945 -0.4418  0.3273 -0.3096
18067TIP3    H175616   1.047   3.211  12.945  1.1577  1.4872  1.5691
18067TIP3    H275617   0.919   3.263  13.007 -0.3331  0.1446 -0.2559
18068TIP3   OH275618   3.551   1.045  14.926 -0.5321  0.1967 -0.1239
18068TIP3    H175619   3.609   1.099  14.979 -0.5977  0.5980 -0.4578
18068TIP3    H275620   3.610   0.986  14.878 -0.4143  0.4455 -0.2856
18069TIP3   OH275621   2.158   1.068   5.800 -0.8118  0.3568  1.3503
18069TIP3    H175622   2.075   1.103   5.768  0.2657  1.2002 -0.7661
18069TIP3    H275623   2.191   1.015   5.727  1.5790  1.9446  1.1702
18070TIP3   OH275624   0.492   4.671  13.331 -0.3266  0.4804  0.0179
18070TIP3    H175625   0.579   4.631  13.327 -0.0714  1.0464 -0.1085
18070TIP3    H275626   0.432   4.596  13.330  0.1617  0.0712  0.3998
18071TIP3   OH275627   3.224   3.067  11.416 -0.4069  0.2662 -0.1419
18071TIP3    H175628   3.227   3.150  11.462 -0.4090  0.1037  0.1526
18071TIP3    H275629   3.315   3.043  11.402 -0.3532 -0.6184  1.4805
18072TIP3   OH275630   3.915   6.297   5.531 -0.2459  0.5887 -0.5075
18072TIP3    H175631   3.873   6.232   5.475  0.0451 -0.8619  0.8717
18072TIP3    H275632   3.976   6.247   5.585 -0.7272  1.8219  1.3162
18073TIP3   OH275633   0.961   0.099  14.257  0.3706 -0.4052 -0.2314
18073TIP3    H175634   0.910   0.018  14.255  0.6276 -0.5577 -0.6806
18073TIP3    H275635   0.896   0.169  14.248  0.3854 -0.6499 -3.0546
18074TIP3   OH275636   4.873   1.597  11.340 -0.3815 -0.0132  0.0667
18074TIP3    H175637   4.812   1.643  11.398 -0.4619  1.3458 -1.0538
18074TIP3    H275638   4.911   1.528  11.396 -2.0549 -0.1593  1.1090
18075TIP3   OH275639   6.268   3.605  17.005 -0.1856  0.4745  0.8300
18075TIP3    H175640   6.245   3.516  16.979 -3.0098  0.9183  1.4909
18075TIP3    H275641   6.333   3.633  16.941  1.4445 -2.2970  1.0919
18076TIP3   OH275642   1.288   5.805  11.168  0.2299 -0.6684 -0.0048
18076TIP3    H175643   1.235   5.828  11.092 -0.5635  2.7308  1.3757
18076TIP3    H275644   1.355   5.874  11.172  1.8120 -2.1866  1.0090
18077TIP3   OH275645   5.176   6.376  15.865 -0.2003 -0.5427 -0.3483
18077TIP3    H175646   5.267   6.372  15.894 -1.0009 -0.8991  2.4021
18077TIP3    H275647   5.161   6.292  15.822  0.7151 -0.5524 -0.6640
18078TIP3   OH275648   2.787   3.957  16.769 -0.7765  0.3887 -0.0793
18078TIP3    H175649   2.868   3.997  16.737 -0.0812 -1.2511 -0.4780
18078TIP3    H275650   2.719   4.020  16.749  0.2805  1.3895 -0.6083
18079TIP3   OH275651   3.028   0.701  12.088  0.1606 -0.9735 -0.1383
18079TIP3    H175652   3.048   0.640  12.017  1.2244  0.6960 -1.3621
18079TIP3    H275653   3.099   0.689  12.151  0.1210 -1.2948 -0.1539
18080TIP3   OH275654   1.414   4.092   0.025  0.1187  0.0260  0.2930
18080TIP3    H175655   1.350   4.160   0.044  0.3434  0.8933 -1.8402
18080TIP3    H275656   1.375   4.040  -0.045  1.2952 -0.0811 -0.3037
18081TIP3   OH275657   5.431   1.991   5.657  0.1684  0.0814 -0.4996
18081TIP3    H175658   5.486   2.065   5.630  0.6047 -0.8765 -2.3975
18081TIP3    H275659   5.446   1.924   5.590 -0.7396 -1.4863  0.7929
18082TIP3   OH275660   3.724   2.247   2.903  0.0543 -0.4277  0.5255
18082TIP3    H175661   3.639   2.244   2.858  0.6758  1.2703 -0.9063
18082TIP3    H275662   3.716   2.320   2.964  0.7959  0.5154 -0.4466
18083TIP3   OH275663   4.310   2.749  12.365  0.6793  0.6408  0.0151
18083TIP3    H175664   4.368   2.812  12.323 -0.0305  1.0101 -0.4350
18083TIP3    H275665   4.281   2.792  12.445  0.6432  0.6556 -0.0058
18084TIP3   OH275666   2.552   1.531   4.707 -0.0939 -0.3941  0.6135
18084TIP3    H175667   2.640   1.524   4.668 -0.6076 -1.2589 -0.4635
18084TIP3    H275668   2.564   1.588   4.783  0.7558  2.4888 -1.4807
18085TIP3   OH275669   1.617   5.925  11.755  0.4735  0.0256  0.2967
18085TIP3    H175670   1.652   5.840  11.780 -1.2155 -0.4621  1.1125
18085TIP3    H275671   1.544   5.906  11.697 -2.0514  0.6559  3.0196
18086TIP3   OH275672   4.260   5.701   3.561 -0.0167  0.1154 -0.2658
18086TIP3    H175673   4.265   5.747   3.644  0.1967  1.0153 -0.7601
18086TIP3    H275674   4.351   5.691   3.533 -0.0873 -0.1560 -0.4099
18087TIP3   OH275675   6.504   2.110   4.219  0.1758  0.3150  0.2215
18087TIP3    H175676   6.532   2.185   4.166  2.0114  0.0056  0.6878
18087TIP3    H275677   6.442   2.147   4.281 -0.1079  1.1460 -0.5307
18088TIP3   OH275678   2.272   5.034  11.912  0.1360 -0.1055 -0.0326
18088TIP3    H175679   2.337   4.970  11.881 -0.5463 -0.5955 -0.4946
18088TIP3    H275680   2.208   5.039  11.841 -1.4246 -1.1743  1.2263
18089TIP3   OH275681   2.660   5.658  14.721  0.5346  0.0618 -0.3085
18089TIP3    H175682   2.656   5.732  14.782 -0.3407 -0.3034  0.0978
18089TIP3    H275683   2.726   5.683  14.657 -0.0303  1.3820 -0.4093
18090TIP3   OH275684   3.537   0.924   4.705  0.2037  0.5792  0.4712
18090TIP3    H175685   3.575   0.925   4.793  1.1773 -1.1598  0.1000
18090TIP3    H275686   3.547   1.014   4.674  1.6039  0.7714  1.4113
18091TIP3   OH275687   1.012   0.530  15.762  0.3122  0.3355 -0.5795
18091TIP3    H175688   1.001   0.491  15.675 -1.5228 -0.9164  0.1502
18091TIP3    H275689   0.983   0.462  15.823  1.2584  1.2948  1.0078
18092TIP3   OH275690   2.711   5.308  10.681  0.0118  0.3461 -0.6139
18092TIP3    H175691   2.801   5.336  10.699  0.5307 -0.7655 -1.3778
18092TIP3    H275692   2.703   5.312  10.585 -0.7373  0.3862 -0.5563
18093TIP3   OH275693   2.223   1.280  11.291  0.5674 -0.1770  0.3328
18093TIP3    H175694   2.239   1.192  11.257 -0.2289  0.3566 -1.5295
18093TIP3    H275695   2.295   1.333  11.255  1.5835 -0.1900  2.1984
18094TIP3   OH275696   2.489   5.039  10.585 -0.2957 -0.5927  0.0968
18094TIP3    H175697   2.459   5.096  10.514 -2.1680 -0.1396  1.1768
18094TIP3    H275698   2.514   4.958  10.542 -1.3122 -0.3005 -1.1075
18095TIP3   OH275699   4.205   3.883   1.318 -0.1273 -0.5484 -0.3013
18095TIP3    H175700   4.114   3.898   1.345  0.3322  1.1113  0.4207
18095TIP3    H275701   4.200   3.866   1.224 -1.0081  1.4649 -0.6510
18096TIP3   OH275702   2.150   6.373  12.572 -0.0206  0.5215 -0.2959
18096TIP3    H175703   2.104   6.456  12.561 -4.0405 -1.0803  2.2960
18096TIP3    H275704   2.219   6.392  12.636 -1.4251  1.7271  0.9224
18097TIP3   OH275705   6.313   5.783  11.834 -0.2737  0.1327  0.1581
18097TIP3    H175706   6.342   5.788  11.744  1.1458  0.4419  0.6138
18097TIP3    H275707   6.218   5.767  11.828 -0.3750  1.1468 -1.3608
18098TIP3   OH275708   1.667   0.945   4.104  0.4996 -0.3483  0.2498
18098TIP3    H175709   1.650   1.037   4.124 -0.2187 -0.3161 -0.4408
18098TIP3    H275710   1.582   0.902   4.114  0.9593 -1.0563  1.1693
18099TIP3   OH275711   4.635   1.985  14.834  0.4069  0.5130 -0.0523
18099TIP3    H175712   4.667   1.896  14.838 -0.0604  0.3577  0.4607
18099TIP3    H275713   4.707   2.036  14.798  0.1188 -0.3208 -1.9223
18100TIP3   OH275714   0.476   2.345   0.682  0.1623  0.2733  0.0177
18100TIP3    H175715   0.455   2.295   0.760  0.6390  0.6005  0.3561
18100TIP3    H275716   0.571   2.340   0.674  0.0580 -0.3985 -0.9745
18101TIP3   OH275717   2.670   0.798   1.254 -0.6654 -0.2264  0.1414
18101TIP3    H175718   2.754   0.785   1.298  0.3155 -0.9412 -1.8011
18101TIP3    H275719   2.674   0.888   1.221 -0.4681 -0.3939 -0.3019
18102TIP3   OH275720   3.675   4.697  12.418  0.1005 -0.4300  0.0785
18102TIP3    H175721   3.759   4.692  12.372  0.1277  1.0987 -0.0918
18102TIP3    H275722   3.653   4.606  12.439  0.9707 -0.9987 -1.3696
18103TIP3   OH275723   6.707   3.746  14.537  0.3809 -0.6374  0.2032
18103TIP3    H175724   6.768   3.682  14.576 -1.0810 -2.5731 -0.4932
18103TIP3    H275725   6.729   3.746  14.444 -0.3691 -1.0227  0.0168
18104TIP3   OH275726   6.155   3.984  11.032 -0.3819  0.1740 -0.3600
18104TIP3    H175727   6.208   3.927  10.976  1.4224  2.4584 -1.1862
18104TIP3    H275728   6.068   3.984  10.991 -0.0396 -0.9048 -1.1247
18105TIP3   OH275729   2.703   1.781  11.468  0.0880 -0.5553  0.7157
18105TIP3    H175730   2.669   1.801  11.555  0.4457 -0.6526  0.8772
18105TIP3    H275731   2.786   1.828  11.464 -0.8207  1.0691 -0.2876
18106TIP3   OH275732   5.356   0.359  11.971 -0.4794 -0.0432 -0.0590
18106TIP3    H175733   5.369   0.266  11.950  0.1741  0.2886 -1.1831
18106TIP3    H275734   5.266   0.378  11.944 -1.0175 -0.6251  1.2593
18107TIP3   OH275735   1.219   4.327  14.118 -0.1589 -0.3149 -0.6982
18107TIP3    H175736   1.229   4.407  14.170  0.3795 -0.0557 -1.1892
18107TIP3    H275737   1.161   4.352  14.046 -0.3123 -0.4765 -0.6317
18108TIP3   OH275738   2.624   4.551   5.307 -0.9484 -0.1334  0.2311
18108TIP3    H175739   2.587   4.587   5.226 -0.1576  1.4758  0.5543
18108TIP3    H275740   2.706   4.510   5.280  1.1823  3.5041  0.5989
18109TIP3   OH275741   2.165   5.884  11.332 -0.4725  0.0055 -0.2659
18109TIP3    H175742   2.213   5.866  11.413  0.1112  0.3820 -0.5232
18109TIP3    H275743   2.072   5.875  11.356 -0.2888 -0.3009  0.3367
18110TIP3   OH275744   1.089   6.251  16.816 -0.1297 -0.4669  0.0851
18110TIP3    H175745   1.163   6.250  16.756  1.0343 -1.2425  1.4746
18110TIP3    H275746   1.103   6.176  16.873 -0.5432  0.9056  2.0991
18111TIP3   OH275747   6.747   5.040  13.296 -0.0336  0.0083  0.0121
18111TIP3    H175748   6.786   5.022  13.381 -0.5063  0.0550  0.2438
18111TIP3    H275749   6.654   5.051  13.314  0.0789  1.6611 -0.2541
18112TIP3   OH275750   0.378   5.831   1.775  0.0881  0.6355  0.2118
18112TIP3    H175751   0.463   5.866   1.801 -0.2649  0.1264  2.2487
18112TIP3    H275752   0.315   5.875   1.832 -0.5981 -1.5901  1.3060
18113TIP3   OH275753   1.984   3.131   2.333  0.5554  0.2996  0.2028
18113TIP3    H175754   1.904   3.083   2.354 -0.8430  1.7825 -1.3730
18113TIP3    H275755   2.047   3.104   2.400 -1.7111  0.2542  2.4708
18114TIP3   OH275756   1.178   2.097   0.354 -0.6793  0.3020 -0.1002
18114TIP3    H175757   1.094   2.123   0.316 -0.0667  1.1005 -0.9469
18114TIP3    H275758   1.229   2.178   0.357  1.6409 -0.7902 -3.6834
18115TIP3   OH275759   6.733   1.643   5.863  0.0968  0.5236 -0.2527
18115TIP3    H175760   6.668   1.572   5.871 -0.3579  0.7000 -1.9159
18115TIP3    H275761   6.685   1.714   5.821  1.2559  0.8248 -1.0970
18116TIP3   OH275762   3.771   0.960   1.396  0.1266 -0.1510 -0.2943
18116TIP3    H175763   3.773   0.876   1.350 -0.9472  0.1253 -0.8723
18116TIP3    H275764   3.705   0.949   1.465  0.0738  0.1780 -0.2881
18117TIP3   OH275765   4.123   1.980   0.322  0.4504 -0.0553  0.2829
18117TIP3    H175766   4.050   1.923   0.344  1.1581 -1.4586 -0.8515
18117TIP3    H275767   4.089   2.069   0.334 -1.7314 -0.6438 -1.0423
18118TIP3   OH275768   3.527   5.608   0.618 -0.5227 -0.0171  0.3859
18118TIP3    H175769   3.447   5.637   0.663  0.1228  0.2504  1.3933
18118TIP3    H275770   3.563   5.687   0.579  0.3101  0.2663  1.6586
18119TIP3   OH275771   6.054   2.922   5.517  0.0408  0.0085 -0.3252
18119TIP3    H175772   6.053   2.868   5.437 -2.5664  0.2422 -0.5336
18119TIP3    H275773   6.142   2.910   5.552  0.5743 -1.8444 -2.0704
18120TIP3   OH275774   5.185   2.316  13.406  0.2826 -0.1976  0.4000
18120TIP3    H175775   5.101   2.291  13.367  1.4659  0.6870 -3.1233
18120TIP3    H275776   5.170   2.405  13.439 -0.2273 -0.0866 -0.0995
18121TIP3   OH275777   3.476   0.287  13.340 -0.2891 -0.3191 -0.1193
18121TIP3    H175778   3.569   0.267  13.347  0.0689  0.7242 -1.6488
18121TIP3    H275779   3.461   0.358  13.402  0.0969  0.0063 -0.3963
18122TIP3   OH275780   4.210   3.509  12.032 -0.3130  0.0714 -0.2504
18122TIP3    H175781   4.195   3.510  11.937  1.2023  4.0471 -0.6544
18122TIP3    H275782   4.126   3.536  12.069 -0.0533  1.8376 -0.8269
18123TIP3   OH275783   0.691   5.363   5.434 -0.0575 -0.0608  0.3941
18123TIP3    H175784   0.621   5.342   5.372 -0.7859 -0.5031  1.3376
18123TIP3    H275785   0.756   5.410   5.382 -0.7908 -0.1469 -0.6300
18124TIP3   OH275786   0.467   6.300  12.115 -0.6786 -0.8388 -0.0894
18124TIP3    H175787   0.468   6.396  12.115 -1.5047 -0.8100  1.0223
18124TIP3    H275788   0.453   6.277  12.023  0.7869  0.0583 -0.5733
18125TIP3   OH275789   6.336   1.170  11.073  0.1269 -0.3055 -0.1992
18125TIP3    H175790   6.420   1.134  11.101  1.2683  1.6193 -0.9038
18125TIP3    H275791   6.312   1.118  10.997  0.2303 -1.4203  0.5025
18126TIP3   OH275792   6.226   5.020  12.632  0.3247 -0.2456 -0.2364
18126TIP3    H175793   6.299   4.961  12.608 -0.1739 -0.7359 -0.5791
18126TIP3    H275794   6.148   4.965  12.627 -0.1027  0.3350 -0.0940
18127TIP3   OH275795   1.466   5.315   3.848  0.2703 -0.2428  0.2194
18127TIP3    H175796   1.548   5.322   3.897 -0.1506 -0.2435  0.9380
18127TIP3    H275797   1.455   5.221   3.833  0.4444 -0.2361  0.0486
18128TIP3   OH275798   0.997   4.772   0.605 -0.0608  0.1675  0.4498
18128TIP3    H175799   0.962   4.708   0.667 -0.6934  0.8649  0.8386
18128TIP3    H275800   1.027   4.844   0.661  1.1967 -0.0324  0.0612
18129TIP3   OH275801   1.482   6.416   3.579 -0.5516 -0.1772  0.5768
18129TIP3    H175802   1.551   6.431   3.515 -0.6179 -1.1934  0.2458
18129TIP3    H275803   1.431   6.344   3.543 -2.0411  0.8183  0.6248
18130TIP3   OH275804   0.062   0.222  12.670  0.3878  0.1066  0.1593
18130TIP3    H175805   0.009   0.302  12.674  1.6046  0.8687  1.9884
18130TIP3    H275806   0.083   0.212  12.577 -1.7936  0.5130 -0.4518
18131TIP3   OH275807   1.163   4.075   4.002  0.0328  0.8055  0.5602
18131TIP3    H175808   1.222   4.021   3.949  0.9512  2.3922 -0.1006
18131TIP3    H275809   1.176   4.043   4.091  0.6875  0.0464  0.2056
18132TIP3   OH275810   6.089   1.161  11.655 -0.2355  0.2482  0.5100
18132TIP3    H175811   6.112   1.071  11.635  0.3301  0.8328 -1.7147
18132TIP3    H275812   5.996   1.168  11.634 -0.5460 -0.0393  1.6877
18133TIP3   OH275813   2.407   5.247   2.889  0.1435  0.0945 -0.2254
18133TIP3    H175814   2.446   5.160   2.904  0.7663  0.2847 -0.6985
18133TIP3    H275815   2.323   5.243   2.933  1.2019  0.0856  1.9208
18134TIP3   OH275816   2.284   0.734  12.314  0.4873 -0.8147  0.4582
18134TIP3    H175817   2.288   0.695  12.226 -0.0691  0.2554 -0.0550
18134TIP3    H275818   2.273   0.659  12.372 -0.7634 -1.4323 -0.5166
18135TIP3   OH275819   3.658   2.201   6.555 -0.1686  0.4609 -0.1032
18135TIP3    H175820   3.579   2.233   6.599 -2.2515 -2.4231 -1.4349
18135TIP3    H275821   3.709   2.159   6.624 -0.2614  1.4100  0.5759
18136TIP3   OH275822   5.641   6.528   0.867  0.0933 -0.2032 -0.0291
18136TIP3    H175823   5.647   6.475   0.947  2.2776  0.3215  0.1935
18136TIP3    H275824   5.660   6.617   0.895  0.4796  0.0594 -1.0791
18137TIP3   OH275825   3.999   6.223  14.532 -0.0022 -0.1746 -0.5545
18137TIP3    H175826   3.926   6.201  14.476  0.1622 -0.8501 -0.5082
18137TIP3    H275827   4.076   6.213  14.477  0.2705 -2.1066  0.1172
18138TIP3   OH275828   5.932   5.363  15.792  0.7866  0.3790 -0.1009
18138TIP3    H175829   5.937   5.451  15.754  0.7174 -0.1391 -1.3497
18138TIP3    H275830   5.896   5.309  15.722  1.6313 -0.8204  0.3676
18139TIP3   OH275831   0.983   5.557  17.084 -0.6559  0.4875 -0.2370
18139TIP3    H175832   0.920   5.618  17.044 -0.8582 -0.1095 -0.8461
18139TIP3    H275833   1.032   5.522  17.010 -2.0294 -1.7630 -0.1753
18140TIP3   OH275834   6.134   0.493   2.624 -0.8243  0.0661  0.1885
18140TIP3    H175835   6.148   0.486   2.718 -0.2924 -0.8480  0.0514
18140TIP3    H275836   6.118   0.403   2.595  2.2300 -0.1702 -1.0655
18141TIP3   OH275837   6.164   4.412   6.466 -0.0975  0.0332 -0.3820
18141TIP3    H175838   6.248   4.395   6.510 -0.7060 -1.1891  0.3703
18141TIP3    H275839   6.188   4.437   6.377  1.0864  0.2626 -0.0194
18142TIP3   OH275840   2.428   6.343  14.505 -0.4219  0.0216 -0.3745
18142TIP3    H175841   2.346   6.350  14.553  0.2018 -0.4077  0.8027
18142TIP3    H275842   2.404   6.354  14.414 -1.5467  1.6786  0.0825
18143TIP3   OH275843   1.496   6.702   5.468 -0.5160 -0.3275 -0.4702
18143TIP3    H175844   1.426   6.744   5.517  1.6127  0.8660  1.7790
18143TIP3    H275845   1.519   6.624   5.519  0.4234 -0.1855 -0.6572
18144TIP3   OH275846   4.348   5.201   5.226 -0.2518  0.5246  0.2818
18144TIP3    H175847   4.256   5.210   5.202 -0.1333 -0.2210 -0.5039
18144TIP3    H275848   4.346   5.187   5.321 -0.7775  2.6589  0.6363
18145TIP3   OH275849   1.687   4.891   6.024  0.3633  0.2824  0.0550
18145TIP3    H175850   1.698   4.948   6.100  0.2356  0.7388 -0.2635
18145TIP3    H275851   1.709   4.803   6.056 -2.2389 -0.0098  1.3712
18146TIP3   OH275852   4.603   1.423  17.169 -0.1525  0.6899  0.1865
18146TIP3    H175853   4.642   1.343  17.204  3.8068  1.7429 -1.2161
18146TIP3    H275854   4.554   1.395  17.093  1.8079 -0.4314 -0.7321
18147TIP3   OH275855   2.749   2.772   1.912 -0.4988 -0.0824 -0.1052
18147TIP3    H175856   2.765   2.780   1.818 -0.6967  0.3733 -0.1036
18147TIP3    H275857   2.702   2.689   1.922  0.6154 -0.7534 -0.2616
18148TIP3   OH275858   5.666   2.112   6.609  0.3418  0.3313  0.3907
18148TIP3    H175859   5.727   2.152   6.671 -0.3432  1.1111  0.5718
18148TIP3    H275860   5.690   2.148   6.524  0.7606 -0.1245  0.3074
18149TIP3   OH275861   5.227   4.952  15.215  0.2500  0.3032 -0.2921
18149TIP3    H175862   5.255   4.989  15.299  1.0229  0.8502 -0.7691
18149TIP3    H275863   5.260   5.015  15.149  0.7320 -0.7276 -1.0655
18150TIP3   OH275864   2.200   5.848   2.142 -0.2899 -0.0826  0.2118
18150TIP3    H175865   2.228   5.913   2.077 -2.5562  1.1227  0.3657
18150TIP3    H275866   2.242   5.875   2.223  0.4435 -0.0623 -0.1619
18151TIP3   OH275867   6.768   3.261   2.274  0.3032 -0.7914 -0.1960
18151TIP3    H175868   6.740   3.171   2.290 -1.8835 -0.4281 -1.4127
18151TIP3    H275869   6.812   3.288   2.354 -1.9380 -1.9059  1.5440
18152TIP3   OH275870   1.208   5.946   2.014 -0.5600 -0.5784 -0.0983
18152TIP3    H175871   1.205   6.034   2.052 -0.2664 -0.2859 -0.7366
18152TIP3    H275872   1.120   5.932   1.981 -0.3152 -0.0519 -1.0157
18153TIP3   OH275873   6.346   4.440   0.873  0.3386  0.0050 -0.2473
18153TIP3    H175874   6.361   4.378   0.944  0.1555  2.0599  1.6864
18153TIP3    H275875   6.358   4.388   0.793  2.2699 -2.0190  1.2357
18154TIP3   OH275876   0.645   6.377  13.909  0.8972 -0.8748 -0.2095
18154TIP3    H175877   0.670   6.370  13.817 -1.1523 -0.5545 -0.8424
18154TIP3    H275878   0.727   6.399  13.955  1.7503  0.0930 -2.0949
18155TIP3   OH275879   3.773   5.687  14.691 -0.4497 -0.2311  0.2203
18155TIP3    H175880   3.846   5.625  14.684  0.0253  0.3361  0.0648
18155TIP3    H275881   3.742   5.676  14.781  0.4050  0.1441  0.5770
18156TIP3   OH275882   2.554   3.019   5.190  0.0318 -0.5821  0.2017
18156TIP3    H175883   2.529   2.927   5.186 -0.2717 -0.4843 -0.2969
18156TIP3    H275884   2.480   3.065   5.151 -0.6834  0.0564  2.2037
18157TIP3   OH275885   5.991   0.082   6.074  0.1610  0.0514 -0.2105
18157TIP3    H175886   6.074   0.035   6.087 -0.2152 -0.8587 -0.9000
18157TIP3    H275887   5.952   0.087   6.161  0.4180 -0.5469 -0.0510
18158TIP3   OH275888   3.934   2.740   4.095  0.3294  0.2279 -0.4499
18158TIP3    H175889   3.852   2.762   4.051 -0.5162  0.6661  1.2532
18158TIP3    H275890   3.915   2.660   4.144  0.4613  1.0636  1.0405
18159TIP3   OH275891   6.591   3.549  15.699 -0.0987  0.2255 -0.0539
18159TIP3    H175892   6.649   3.502  15.759 -0.8081  0.8102  1.1079
18159TIP3    H275893   6.591   3.639  15.730 -0.2378  0.6106 -1.1284
18160TIP3   OH275894   6.079   1.608  15.774 -0.1589 -0.2177 -0.7892
18160TIP3    H175895   6.053   1.517  15.786 -1.7706  0.1047 -1.5725
18160TIP3    H275896   6.100   1.639  15.863 -1.4822 -0.8256 -0.2417
18161TIP3   OH275897   4.619   0.305  15.903 -0.2805  0.3255  0.3967
18161TIP3    H175898   4.546   0.351  15.943 -0.5213  0.6363 -0.3815
18161TIP3    H275899   4.621   0.220  15.948 -1.4864  0.0885  0.0394
18162TIP3   OH275900   3.708   5.803   3.647 -0.4284 -0.1337  0.7162
18162TIP3    H175901   3.742   5.713   3.638  1.4548  0.5006  1.1161
18162TIP3    H275902   3.732   5.845   3.564 -0.9589  0.1266  0.6922
18163TIP3   OH275903   4.826   2.514  16.417  0.3393  0.1195 -0.1318
18163TIP3    H175904   4.879   2.439  16.443  0.0608  1.0289  3.7131
18163TIP3    H275905   4.887   2.588  16.414 -0.0621  0.5012  0.6333
18164TIP3   OH275906   4.677   1.159  12.955  0.0138 -0.0084  0.1682
18164TIP3    H175907   4.664   1.114  13.039  0.1948 -0.1697  0.1105
18164TIP3    H275908   4.592   1.153  12.911 -0.0516 -0.0170  0.2942
18165TIP3   OH275909   1.011   5.258   4.551  0.1493  0.4216 -0.1239
18165TIP3    H175910   1.014   5.334   4.610 -0.5732 -0.2975  0.8872
18165TIP3    H275911   1.101   5.247   4.521  0.4238  1.1610  0.3836
18166TIP3   OH275912   5.019   2.402   4.223  0.0581 -0.2578 -0.6769
18166TIP3    H175913   4.940   2.437   4.181  0.5129  1.0564 -0.4643
18166TIP3    H275914   5.006   2.307   4.221 -0.5754 -0.1759 -2.5158
18167TIP3   OH275915   0.927   6.314  15.207 -0.4298 -0.1271 -0.0466
18167TIP3    H175916   0.931   6.229  15.162  0.2413  0.4291 -1.0615
18167TIP3    H275917   1.001   6.363  15.173  0.1905  0.2829  1.7968
18168TIP3   OH275918   1.675   0.111   5.166  0.4061  0.1606 -0.3655
18168TIP3    H175919   1.717   0.191   5.199 -1.4536  0.5915  1.1546
18168TIP3    H275920   1.722   0.040   5.210  0.1580  0.5848  0.6133
18169TIP3   OH275921   6.587   1.970   3.190 -0.9121  0.1018 -0.0693
18169TIP3    H175922   6.556   2.053   3.225  1.2161 -0.1550  2.7654
18169TIP3    H275923   6.678   1.987   3.165 -0.1663 -1.4809  1.3224
18170TIP3   OH275924   3.115   0.873  13.798  0.1371 -0.2285 -0.1138
18170TIP3    H175925   3.040   0.817  13.816 -0.0276  0.4925  1.6850
18170TIP3    H275926   3.116   0.936  13.871  1.3901  0.9419 -1.0790
18171TIP3   OH275927   6.587   5.115  11.767 -0.0614  0.3925  0.2528
18171TIP3    H175928   6.495   5.119  11.742 -0.0999  1.3555  0.5063
18171TIP3    H275929   6.585   5.108  11.862  0.1258 -0.2726  0.2136
18172TIP3   OH275930   3.398   4.983   1.415  0.2404  0.5173  0.1163
18172TIP3    H175931   3.435   5.024   1.493 -0.5717 -2.0654  1.9908
18172TIP3    H275932   3.329   5.043   1.387  0.6158  1.5528  1.3169
18173TIP3   OH275933   6.138   5.660   3.921 -0.2039 -0.3170  0.3567
18173TIP3    H175934   6.231   5.638   3.916 -0.2547 -0.9160  1.5469
18173TIP3    H275935   6.135   5.754   3.937  0.1736 -0.2148 -0.1558
18174TIP3   OH275936   2.873   3.945  12.270 -0.0769 -0.0822 -0.1728
18174TIP3    H175937   2.851   4.037  12.255  2.7595  0.6145 -0.6698
18174TIP3    H275938   2.831   3.898  12.198  0.4375  1.1903 -1.3456
18175TIP3   OH275939   0.115   5.162   6.678 -0.5480  0.2930 -0.1541
18175TIP3    H175940   0.116   5.230   6.746  0.9212  0.9718 -0.8042
18175TIP3    H275941   0.205   5.130   6.676 -0.8344 -0.4827 -1.0316
18176TIP3   OH275942   1.079   5.347  12.968  0.0061 -0.5406  0.2229
18176TIP3    H175943   1.090   5.317  13.058  0.7677 -1.8783 -0.3003
18176TIP3    H275944   1.167   5.343  12.930  0.0654  1.8466 -0.0564
18177TIP3   OH275945   3.228   1.031   4.610  0.3291  0.2781  0.0093
18177TIP3    H175946   3.134   1.014   4.605  0.3054  0.5753 -0.7227
18177TIP3    H275947   3.268   0.945   4.617 -0.0118  0.1646  0.5961
18178TIP3   OH275948   2.859   1.826   5.015 -0.1236  0.0767 -0.1663
18178TIP3    H175949   2.889   1.780   5.093 -0.0386  0.1674 -0.1452
18178TIP3    H275950   2.885   1.917   5.029 -1.4743  0.3959  0.4035
18179TIP3   OH275951   5.554   5.589  16.115 -0.1222  0.1129 -0.0763
18179TIP3    H175952   5.617   5.661  16.128 -0.3835  0.4751 -0.7424
18179TIP3    H275953   5.591   5.538  16.043 -0.7896  0.5736 -0.7659
18180TIP3   OH275954   0.685   2.412   3.822 -0.4551  0.0297  0.2310
18180TIP3    H175955   0.616   2.346   3.823 -1.4815  1.0831  1.1455
18180TIP3    H275956   0.738   2.390   3.744 -1.3143 -1.2806 -0.0143
18181TIP3   OH275957   1.670   6.508  13.860 -0.4775  0.2987  0.0558
18181TIP3    H175958   1.596   6.567  13.866 -1.0581 -0.3966 -0.0763
18181TIP3    H275959   1.735   6.555  13.808 -2.2799 -0.4903 -3.1736
18182TIP3   OH275960   4.744   0.036  16.682  0.6537 -0.2103  0.1719
18182TIP3    H175961   4.812   0.071  16.623 -0.5364  1.2174 -0.4159
18182TIP3    H275962   4.662   0.056  16.638 -0.1817 -1.8457  0.9114
18183TIP3   OH275963   0.141   1.421  17.181  0.1870 -0.3440  0.3761
18183TIP3    H175964   0.199   1.353  17.215 -0.2399 -0.5184  0.7702
18183TIP3    H275965   0.092   1.452  17.257 -1.1913 -1.1349 -0.1382
18184TIP3   OH275966   4.755   0.005   2.685  0.3238  0.7391  0.6700
18184TIP3    H175967   4.715   0.055   2.614 -1.5719 -2.4808 -0.8000
18184TIP3    H275968   4.827  -0.043   2.642 -0.7595 -1.1461  0.8243
18185TIP3   OH275969   0.290   1.562  14.169 -0.2494  0.2835  0.4797
18185TIP3    H175970   0.296   1.527  14.258 -0.1299  2.6921  1.4889
18185TIP3    H275971   0.197   1.569  14.152 -0.3125  1.4461  1.1576
18186TIP3   OH275972   6.161   1.930   2.683 -0.1094  0.6172 -0.4695
18186TIP3    H175973   6.227   1.994   2.707  1.2643 -0.2470 -1.7238
18186TIP3    H275974   6.077   1.975   2.695  0.7519  2.1642 -0.0447
18187TIP3   OH275975   2.444   2.747  14.368 -0.1741  0.0615 -0.6659
18187TIP3    H175976   2.447   2.842  14.371 -0.4177  0.0820 -1.0348
18187TIP3    H275977   2.521   2.722  14.317  1.7908 -0.1113  2.1262
18188TIP3   OH275978   0.341   6.168  12.598 -1.0135 -0.0394 -0.3579
18188TIP3    H175979   0.339   6.169  12.502  1.1166 -0.0427 -0.4463
18188TIP3    H275980   0.389   6.247  12.622  0.2729 -1.0673  0.5929
18189TIP3   OH275981   6.442   4.026  14.647  0.1261  0.3004 -0.2803
18189TIP3    H175982   6.395   4.019  14.730 -0.1410  0.9646 -0.3666
18189TIP3    H275983   6.382   4.074  14.589  0.6275  0.5548 -0.6000
18190TIP3   OH275984   2.819   5.111  14.217  0.1414  0.4884 -0.1751
18190TIP3    H175985   2.777   5.054  14.280 -0.3175 -1.2358 -1.9283
18190TIP3    H275986   2.762   5.187  14.210 -1.6670 -0.8708 -0.9944
18191TIP3   OH275987   4.799   0.155  15.625  0.6470  0.2401 -0.4730
18191TIP3    H175988   4.797   0.074  15.574 -0.1451  0.2212 -0.4290
18191TIP3    H275989   4.707   0.176  15.641  0.8581  0.7319  0.1802
18192TIP3   OH275990   2.356   4.761  11.387 -0.2093  0.6041  0.1182
18192TIP3    H175991   2.404   4.724  11.313 -0.6613  0.1580  0.0423
18192TIP3    H275992   2.286   4.814  11.347  0.0085  0.9797  0.2281
18193TIP3   OH275993   5.173   1.643  10.997 -0.4567 -0.1562  0.0595
18193TIP3    H175994   5.206   1.600  11.076  1.7574 -0.5120 -0.9673
18193TIP3    H275995   5.110   1.581  10.960  0.0601 -0.9360  0.4547
18194TIP3   OH275996   4.659   1.373   4.078 -0.0099 -0.2275 -0.1303
18194TIP3    H175997   4.633   1.465   4.064  0.5228  0.1681  1.2822
18194TIP3    H275998   4.653   1.361   4.173  3.0057 -0.6783  0.1010
18195TIP3   OH275999   5.252   5.246  15.734  0.7374  0.0318 -0.3669
18195TIP3    H176000   5.188   5.187  15.774  1.3122 -0.1265  0.3575
18195TIP3    H276001   5.325   5.247  15.797  0.2685  2.4443  0.2521
18196TIP3   OH276002   5.814   0.544   1.071 -0.6093 -0.3800  0.3650
18196TIP3    H176003   5.780   0.512   1.155 -0.8443 -1.4513 -0.1166
18196TIP3    H276004   5.908   0.552   1.084 -0.5673 -1.1080  0.5757
18197TIP3   OH276005   6.164   4.982  15.597  0.1387 -0.6306 -0.0945
18197TIP3    H176006   6.079   5.021  15.619  0.2779 -1.1223  1.4164
18197TIP3    H276007   6.226   5.054  15.606  0.2330 -0.8860  1.5011
18198TIP3   OH276008   2.020   1.681  12.635  0.3078  0.2413  0.1273
18198TIP3    H176009   2.103   1.724  12.656 -0.5024  1.4432  1.0119
18198TIP3    H276010   1.988   1.649  12.719 -2.0587  3.4227  0.6113
18199TIP3   OH276011   5.373   2.246  15.974  0.5063 -0.9161 -0.4033
18199TIP3    H176012   5.360   2.328  15.927  0.2908 -0.9055 -0.3244
18199TIP3    H276013   5.413   2.188  15.910  2.7608 -0.0771  0.1201
18200TIP3   OH276014   4.857   6.156   2.955 -0.4988  0.4419 -0.5987
18200TIP3    H176015   4.938   6.207   2.958  0.0135 -0.3701  1.6585
18200TIP3    H276016   4.881   6.075   2.910  0.0991  0.0355  0.4103
18201TIP3   OH276017   2.900   4.671  13.299 -0.1644 -0.2458 -0.3425
18201TIP3    H176018   2.968   4.605  13.313 -1.4833 -1.3977  1.0449
18201TIP3    H276019   2.892   4.716  13.384 -1.4444 -0.4809 -0.3126
18202TIP3   OH276020   0.919   0.311   3.776 -0.5108 -0.1216 -0.2321
18202TIP3    H176021   0.850   0.372   3.800  0.8542  0.9964  1.0587
18202TIP3    H276022   0.957   0.283   3.859  0.5485 -0.7581 -0.9016
18203TIP3   OH276023   6.362   2.656   4.379  0.1393 -0.5417  0.1392
18203TIP3    H176024   6.403   2.570   4.388  2.0241  0.3504  0.6539
18203TIP3    H276025   6.291   2.642   4.316  1.9080 -1.9887 -1.6963
18204TIP3   OH276026   6.478   5.368  11.503 -0.5715  0.0964  0.2310
18204TIP3    H176027   6.394   5.412  11.490  0.2935  1.3207 -1.6600
18204TIP3    H276028   6.532   5.432  11.551 -0.3176 -0.1756  0.3132
18205TIP3   OH276029   3.243   1.847   5.104  0.1509  0.1240  0.2267
18205TIP3    H176030   3.321   1.840   5.159 -0.5266  0.3754  1.2629
18205TIP3    H276031   3.240   1.764   5.056  0.6800 -0.1671  0.6878
18206TIP3   OH276032   2.633   3.789  15.408  0.1335  0.2019 -0.1636
18206TIP3    H176033   2.566   3.782  15.476 -0.8360  0.6282 -1.0535
18206TIP3    H276034   2.697   3.850  15.443 -0.2435  0.2481  0.4582
18207TIP3   OH276035   4.825   4.602  16.364 -0.2305 -0.8033 -0.3459
18207TIP3    H176036   4.827   4.506  16.365 -1.7825 -0.8608 -1.0920
18207TIP3    H276037   4.805   4.627  16.454 -0.2765 -1.1859 -0.2483
18208TIP3   OH276038   2.161   3.262  12.393 -0.0140 -0.0065  0.0306
18208TIP3    H176039   2.091   3.283  12.332 -0.2355 -0.5047  0.1114
18208TIP3    H276040   2.217   3.341  12.393  0.0095 -0.0053 -0.8348
18209TIP3   OH276041   2.580   6.530   5.865 -0.0413 -0.1191  0.8482
18209TIP3    H176042   2.653   6.475   5.836  0.0458  1.1447 -1.6930
18209TIP3    H276043   2.577   6.519   5.960  4.0240  0.4054  1.2444
18210TIP3   OH276044   2.222   4.142  16.349 -0.3393  0.5947  0.2276
18210TIP3    H176045   2.225   4.155  16.444  2.0011 -2.1680  0.6658
18210TIP3    H276046   2.311   4.157  16.320 -0.3123 -1.5596 -1.0094
18211TIP3   OH276047   5.160   2.566   2.658  0.3875 -0.0021 -0.0348
18211TIP3    H176048   5.244   2.589   2.618  0.1096 -0.7936 -1.1152
18211TIP3    H276049   5.095   2.591   2.592 -0.2769  1.0393  0.9796
18212TIP3   OH276050   2.419   0.961   5.906 -0.3429  0.4931 -0.3754
18212TIP3    H176051   2.358   0.995   5.841 -0.9018  0.5736  0.1836
18212TIP3    H276052   2.463   0.889   5.862 -0.3077  0.9041 -1.0307
18213TIP3   OH276053   0.014   3.751   3.086  0.7580 -0.3244 -0.2326
18213TIP3    H176054  -0.011   3.714   3.002  1.1962 -2.6056  0.5690
18213TIP3    H276055   0.102   3.718   3.103 -0.6201 -3.0438  2.6973
18214TIP3   OH276056   6.087   0.554   4.488 -0.3771  0.6371  0.6716
18214TIP3    H176057   6.176   0.588   4.497 -1.1050  2.3433  1.8355
18214TIP3    H276058   6.085   0.476   4.542  0.8615 -0.4093 -0.7189
18215TIP3   OH276059   4.840   4.167   2.542 -0.5571  0.2731 -0.1130
18215TIP3    H176060   4.749   4.196   2.543 -0.5774  0.2321 -0.5745
18215TIP3    H276061   4.877   4.201   2.624 -1.4601 -1.2428  0.9960
18216TIP3   OH276062   4.232   3.618   4.428 -0.1563  0.1284 -0.6347
18216TIP3    H176063   4.249   3.529   4.460  1.7366  0.5002 -0.4640
18216TIP3    H276064   4.197   3.664   4.504  0.3821 -0.0667 -0.2638
18217TIP3   OH276065   0.820   2.980  11.689 -0.1384  0.2470 -0.3117
18217TIP3    H176066   0.810   2.891  11.656 -1.3131 -0.0891  0.9060
18217TIP3    H276067   0.757   3.032  11.639 -0.2921  0.1789 -0.1868
18218TIP3   OH276068   0.406   1.294   2.772 -0.5593  0.0659 -0.1476
18218TIP3    H176069   0.327   1.318   2.819 -0.5495 -1.2275  0.5644
18218TIP3    H276070   0.378   1.285   2.681 -1.0169  0.5570 -0.0591
18219TIP3   OH276071   2.277   0.451  16.779 -0.6366  0.3421  0.6358
18219TIP3    H176072   2.319   0.537  16.789  0.0400  0.3706 -1.7892
18219TIP3    H276073   2.199   0.469  16.726  0.2065 -0.6452 -1.0377
18220TIP3   OH276074   0.457   4.400   2.443  0.4062 -0.6371 -0.8995
18220TIP3    H176075   0.489   4.322   2.488 -1.1260 -0.9594 -0.3014
18220TIP3    H276076   0.364   4.383   2.429 -0.3131  1.6605  0.5635
18221TIP3   OH276077   0.208   5.335   4.849 -0.2301  0.0677  0.0718
18221TIP3    H176078   0.260   5.379   4.916 -0.5121 -0.3360  0.5558
18221TIP3    H276079   0.272   5.305   4.785  0.0838  0.0355  0.3982
18222TIP3   OH276080   4.756   4.705   3.179  0.1301 -1.0169 -0.3863
18222TIP3    H176081   4.730   4.704   3.087 -1.9025  0.0865  0.1046
18222TIP3    H276082   4.818   4.778   3.186 -1.4767  0.4484 -0.5354
18223TIP3   OH276083   3.739   3.813   3.372  0.0457 -0.1372 -0.4721
18223TIP3    H176084   3.764   3.789   3.461  1.8540  1.0483 -0.6046
18223TIP3    H276085   3.801   3.765   3.316 -0.5936 -0.2970 -1.0509
18224TIP3   OH276086   5.466   4.221  16.851 -0.3226  0.3406  0.1951
18224TIP3    H176087   5.370   4.226  16.850 -0.4298 -0.5010  2.1254
18224TIP3    H276088   5.491   4.254  16.937  1.1418  0.5602 -0.2936
18225TIP3   OH276089   6.053   1.628   6.120 -0.2565  0.2631  0.0754
18225TIP3    H176090   6.131   1.651   6.171  0.3607  1.8833 -1.4740
18225TIP3    H276091   5.981   1.635   6.182  0.6022  0.8961  1.0483
18226TIP3   OH276092   0.501   3.203  15.262  0.2251  0.2038  0.4684
18226TIP3    H176093   0.421   3.161  15.295  0.3574 -0.4010  0.0472
18226TIP3    H276094   0.499   3.185  15.168  1.4550 -0.8363  0.6270
18227TIP3   OH276095   4.565   1.672   2.344  0.1046  0.2611 -0.3491
18227TIP3    H176096   4.571   1.693   2.250  2.5066 -1.7551 -0.7526
18227TIP3    H276097   4.471   1.673   2.362 -0.4921  0.0148 -2.9724
18228TIP3   OH276098   6.187   5.482   3.268  0.3361  0.4455  0.1618
18228TIP3    H176099   6.158   5.411   3.325 -0.0899  1.2981  1.0272
18228TIP3    H276100   6.113   5.496   3.208  0.6103 -0.1467 -0.3362
18229TIP3   OH276101   5.083   2.396  13.668 -0.0946 -0.3136  0.6550
18229TIP3    H176102   5.074   2.301  13.671  0.2408 -0.3357  0.9891
18229TIP3    H276103   4.993   2.428  13.666 -0.3253 -0.5591  3.3868
18230TIP3   OH276104   2.707   3.160  16.827  0.0290 -0.8377 -0.5734
18230TIP3    H176105   2.745   3.101  16.762 -0.8746  0.3777 -2.2840
18230TIP3    H276106   2.657   3.223  16.775 -3.4008 -1.6605  1.4046
18231TIP3   OH276107   3.550   0.949   5.532 -0.2611 -0.0186 -0.2197
18231TIP3    H176108   3.520   0.865   5.567 -1.1690  1.3594  2.5795
18231TIP3    H276109   3.644   0.949   5.545 -0.3474 -0.3291  0.4281
18232TIP3   OH276110   2.818   3.115  14.748 -0.4517  0.1050  0.0628
18232TIP3    H176111   2.841   3.098  14.656  1.7039  1.7161  0.2328
18232TIP3    H276112   2.852   3.039  14.795 -0.0632  0.0591 -0.2860
18233TIP3   OH276113   3.880   4.211  13.700  0.4191 -0.0868  0.6853
18233TIP3    H176114   3.813   4.196  13.767  2.0725  2.2655  3.0892
18233TIP3    H276115   3.864   4.300  13.670  0.3005 -0.7758 -1.4894
18234TIP3   OH276116   6.268   5.724  11.315  0.3509  0.3639 -0.1374
18234TIP3    H176117   6.216   5.780  11.257  0.7585 -0.4302 -1.3029
18234TIP3    H276118   6.292   5.649  11.260 -0.3485 -1.0527  1.4392
18235TIP3   OH276119   2.022   4.312  13.116  0.0538  0.0185  0.0610
18235TIP3    H176120   2.045   4.220  13.134  1.4174  0.7114  2.3109
18235TIP3    H276121   2.085   4.363  13.168 -1.0752  2.2264 -0.6181
18236TIP3   OH276122   6.750   4.514  12.676  0.3781 -0.3657 -0.1570
18236TIP3    H176123   6.776   4.603  12.700  0.6526 -0.7041  0.8290
18236TIP3    H276124   6.749   4.515  12.580  0.3668  0.6991 -0.1577
18237TIP3   OH276125   2.246   3.184  11.431  0.3329 -0.1835  0.1497
18237TIP3    H176126   2.235   3.275  11.456  1.2966  0.0673 -0.2671
18237TIP3    H276127   2.164   3.142  11.454  0.3504  0.5087  1.5811
18238TIP3   OH276128   2.277   2.313  11.070  0.0265  0.0279  0.1704
18238TIP3    H176129   2.346   2.378  11.086  0.9841 -1.1930  1.2599
18238TIP3    H276130   2.298   2.241  11.129 -0.5960 -1.5860 -1.4693
18239TIP3   OH276131   0.528   4.446   0.538  0.5198 -0.8871  0.9041
18239TIP3    H176132   0.561   4.476   0.623 -0.1298  0.0149  0.8472
18239TIP3    H276133   0.607   4.430   0.486  0.9548  2.1967  0.4393
18240TIP3   OH276134   0.287   0.984  16.287 -0.0098 -0.6091 -0.3050
18240TIP3    H176135   0.253   0.948  16.368  0.2070  0.9909  0.5137
18240TIP3    H276136   0.213   0.982  16.226 -0.2358 -1.5779 -0.0173
18241TIP3   OH276137   4.714   4.473   2.891  0.1328  0.0099 -0.4960
18241TIP3    H176138   4.632   4.435   2.859 -1.3033  0.4293  2.3402
18241TIP3    H276139   4.707   4.566   2.872 -0.6420  0.2309  0.7142
18242TIP3   OH276140   1.872   4.023   5.160 -0.5796 -0.1356 -0.1234
18242TIP3    H176141   1.863   4.061   5.072 -0.8651  1.5167  0.5798
18242TIP3    H276142   1.966   4.018   5.174 -0.3564 -3.5810 -1.7597
18243TIP3   OH276143   1.221   6.531  14.881  0.3440 -0.9860 -0.1926
18243TIP3    H176144   1.310   6.495  14.893 -0.2022 -2.4255 -0.2133
18243TIP3    H276145   1.230   6.592  14.808  1.3341 -1.0708 -0.1627
18244TIP3   OH276146   4.894   2.272   0.066 -0.1513 -0.1108 -0.2569
18244TIP3    H176147   4.902   2.186   0.108  0.5672 -0.5796 -1.3100
18244TIP3    H276148   4.800   2.291   0.067 -0.2572 -0.6272  0.5065
18245TIP3   OH276149   0.154   1.830   5.705  0.2248  0.0358 -0.1299
18245TIP3    H176150   0.208   1.829   5.626 -0.9116  0.5346 -0.9514
18245TIP3    H276151   0.205   1.880   5.769  0.3350  1.3330 -1.1966
18246TIP3   OH276152   6.174   4.807  13.242  0.5694  0.4461 -0.4265
18246TIP3    H176153   6.199   4.885  13.292  1.3282 -1.1653  1.8725
18246TIP3    H276154   6.099   4.771  13.289 -0.2232  0.1321 -1.8647
18247TIP3   OH276155   6.396   6.159   2.030  0.1810 -0.2381  0.4107
18247TIP3    H176156   6.313   6.139   1.986 -0.4552  1.0862  0.9521
18247TIP3    H276157   6.453   6.191   1.960 -0.0584 -0.3244  0.1720
18248TIP3   OH276158   4.041   5.707   5.884  0.3446 -0.1622 -0.7931
18248TIP3    H176159   4.035   5.788   5.934  1.0662  0.8370 -2.2769
18248TIP3    H276160   4.108   5.655   5.931  0.1021  0.2097 -0.0160
18249TIP3   OH276161   3.573   5.807  16.156 -0.6440 -0.3062 -0.1041
18249TIP3    H176162   3.494   5.809  16.211  0.2706 -1.7498  1.3834
18249TIP3    H276163   3.644   5.791  16.218  0.3292 -3.3288 -1.7846
18250TIP3   OH276164   2.947   0.644  16.483  0.2514 -0.3834  0.5749
18250TIP3    H176165   2.934   0.618  16.392  2.2897  0.0702  0.0975
18250TIP3    H276166   2.982   0.733  16.478  0.4570 -0.3774  1.8034
18251TIP3   OH276167   5.975   6.374  15.008 -0.3656  0.1709 -0.3815
18251TIP3    H176168   6.021   6.299  15.047 -0.3620  0.4188  0.0946
18251TIP3    H276169   5.882   6.355  15.023 -0.3134  1.5912  2.2922
18252TIP3   OH276170   1.856   3.529   3.200  0.2667  0.3044 -0.0361
18252TIP3    H176171   1.904   3.556   3.121  0.6767 -0.2393  0.0179
18252TIP3    H276172   1.924   3.498   3.259 -0.2023 -1.1241 -0.2185
18253TIP3   OH276173   0.550   3.804   4.526 -0.1979 -0.7276 -0.3413
18253TIP3    H176174   0.608   3.743   4.481  1.9132  0.7634  0.1852
18253TIP3    H276175   0.600   3.834   4.601 -1.8337  0.3606  0.3811
18254TIP3   OH276176   1.377   5.268  13.219  0.2878 -0.0458  0.1985
18254TIP3    H176177   1.410   5.189  13.260  0.1446 -0.2394 -0.0530
18254TIP3    H276178   1.442   5.336  13.240  0.0523 -0.0649  1.0068
18255TIP3   OH276179   0.519   4.641   2.334 -0.4829 -0.6955 -0.4051
18255TIP3    H176180   0.500   4.561   2.383 -3.0956  0.8743  1.3977
18255TIP3    H276181   0.534   4.708   2.401  2.4347  0.2722 -1.8547
18256TIP3   OH276182   2.103   5.564   3.945  0.0527  0.9736  0.2394
18256TIP3    H176183   2.037   5.619   3.904  0.9891  1.4500 -0.6988
18256TIP3    H276184   2.155   5.531   3.871  0.2849 -0.1434  0.8786
18257TIP3   OH276185   2.716   1.346  16.527 -0.2501  0.5352  0.2224
18257TIP3    H176186   2.632   1.318  16.563  0.0573  0.4104  0.8522
18257TIP3    H276187   2.718   1.308  16.439  0.0616 -1.2584  0.9649
18258TIP3   OH276188   4.624   6.383   3.698 -0.0963  0.1557  0.4714
18258TIP3    H176189   4.556   6.347   3.755  0.8928  1.7348  2.7967
18258TIP3    H276190   4.604   6.347   3.611 -3.8657  0.5206  1.0150
18259TIP3   OH276191   3.000   3.345  16.106  0.1236  0.1603 -0.7528
18259TIP3    H176192   2.930   3.281  16.113  0.1541  0.3211  2.8434
18259TIP3    H276193   2.957   3.427  16.081 -1.0626  0.2514  1.3808
18260TIP3   OH276194   1.319   6.648   6.132 -0.5583  0.2994 -0.6597
18260TIP3    H176195   1.232   6.668   6.099 -1.1550  0.3115  0.8436
18260TIP3    H276196   1.303   6.595   6.210  0.7715  0.4778 -0.2446
18261TIP3   OH276197   1.794   2.331  15.153 -0.6322 -0.4597 -0.2225
18261TIP3    H176198   1.868   2.308  15.209 -1.2747  1.1246  1.3834
18261TIP3    H276199   1.721   2.343  15.214 -0.6895  4.3035 -0.8613
18262TIP3   OH276200   1.980   5.952  13.569  0.1307  0.1470  0.2473
18262TIP3    H176201   1.899   5.999  13.586 -0.5381 -0.1552 -1.9317
18262TIP3    H276202   2.045   6.021  13.555  0.0579  0.3828  0.9945
18263TIP3   OH276203   5.054   5.858  12.457 -0.0505 -0.1254 -0.0070
18263TIP3    H176204   5.072   5.828  12.546 -0.1609 -1.2075 -0.3308
18263TIP3    H276205   4.959   5.865  12.453 -0.0781 -0.5841 -0.1918
18264TIP3   OH276206   6.679   3.292  16.545 -0.4837  0.1160  0.7724
18264TIP3    H176207   6.661   3.358  16.478 -0.3458  1.2511  1.8368
18264TIP3    H276208   6.600   3.289  16.598 -0.2968 -0.1977  1.0391
18265TIP3   OH276209   3.163   0.704   1.674 -0.7572 -0.2699 -0.4030
18265TIP3    H176210   3.147   0.654   1.754  0.4978  1.7559  1.1807
18265TIP3    H276211   3.078   0.743   1.653 -0.9808 -0.3932  0.2428
18266TIP3   OH276212   5.230   1.494  15.986 -0.2258  0.2444 -0.7955
18266TIP3    H176213   5.145   1.512  16.026  0.5593  0.0119  1.0900
18266TIP3    H276214   5.209   1.451  15.904 -1.9386  0.7615 -0.6630
18267TIP3   OH276215   6.256   5.688  16.598 -0.2684 -0.1237 -0.3510
18267TIP3    H176216   6.265   5.602  16.558  0.7371 -0.0245 -0.3664
18267TIP3    H276217   6.170   5.719  16.569 -0.9545 -1.3987  0.2269
18268TIP3   OH276218   5.222   4.862   3.362 -0.4525  0.1396  0.1501
18268TIP3    H176219   5.313   4.848   3.336  0.3916  0.8633  2.4454
18268TIP3    H276220   5.226   4.935   3.424 -2.7458  0.8158 -0.4095
18269TIP3   OH276221   0.958   2.119  16.049  0.4455  0.5896  0.2841
18269TIP3    H176222   0.868   2.118  16.081  0.8703 -0.9614  1.5685
18269TIP3    H276223   0.966   2.201  16.000 -1.4778  1.0280  0.6507
18270TIP3   OH276224   1.196   3.042   4.292 -0.1616 -0.1815  0.6659
18270TIP3    H176225   1.187   2.966   4.234 -0.5585  0.4486 -0.1182
18270TIP3    H276226   1.244   3.009   4.368  1.4099 -0.7659 -0.5344
18271TIP3   OH276227   5.323   5.963  13.845  0.4971 -0.0727  0.0942
18271TIP3    H176228   5.230   5.986  13.851  0.2959  0.0006 -2.3329
18271TIP3    H276229   5.327   5.898  13.775  2.4008  0.6973 -0.5659
18272TIP3   OH276230   6.313   1.987   4.037  0.3493  0.0782 -0.3365
18272TIP3    H176231   6.364   1.916   3.998  0.1882  0.1381 -0.6544
18272TIP3    H276232   6.380   2.050   4.066  0.6075 -0.9365  1.4702
18273TIP3   OH276233   0.287   1.754   2.757  0.9035 -0.4709 -0.5229
18273TIP3    H176234   0.240   1.837   2.746 -0.3623 -1.0479  0.3614
18273TIP3    H276235   0.317   1.731   2.669 -0.3026  0.0168 -1.0737
18274TIP3   OH276236   2.444   3.873   3.542 -0.4497 -0.5517  0.3503
18274TIP3    H176237   2.455   3.960   3.581 -0.7002 -0.4254  0.1476
18274TIP3    H276238   2.349   3.864   3.530 -0.3670 -0.5088 -0.3938
18275TIP3   OH276239   0.581   2.307  14.415  0.1646  0.9665  0.2855
18275TIP3    H176240   0.491   2.316  14.385  0.5743 -0.2349 -1.4152
18275TIP3    H276241   0.631   2.368  14.360  0.3283  2.1918  1.7240
18276TIP3   OH276242   6.354   4.603   5.810 -0.3226  0.1150  0.8245
18276TIP3    H176243   6.359   4.572   5.720 -1.4872  0.0047  0.7866
18276TIP3    H276244   6.354   4.524   5.863 -0.1945  0.1640  0.8996
18277TIP3   OH276245   1.727   5.872  10.380 -0.2480 -0.3524  0.0876
18277TIP3    H176246   1.666   5.852  10.309 -0.2181 -2.2098  0.5271
18277TIP3    H276247   1.680   5.848  10.460  0.9592 -1.7427  0.4446
18278TIP3   OH276248   5.472   5.002  17.115 -0.1690  0.4562 -0.3806
18278TIP3    H176249   5.448   5.025  17.025  0.7612  1.4740 -0.3873
18278TIP3    H276250   5.490   4.908  17.111 -2.4532 -0.0101 -0.7133
18279TIP3   OH276251   5.045   2.830  14.604  0.1591 -0.3206 -0.1377
18279TIP3    H176252   5.000   2.859  14.525  1.1517  1.1440 -0.2057
18279TIP3    H276253   5.069   2.739  14.586  3.0381  0.7651 -2.8793
18280TIP3   OH276254   5.794   4.164  15.694  0.4426  0.3499 -0.3128
18280TIP3    H176255   5.762   4.094  15.750  1.4290 -0.8876 -1.2318
18280TIP3    H276256   5.722   4.227  15.691  0.9130  1.3053  3.5750
18281TIP3   OH276257   5.523   0.224  16.691 -0.3991 -0.0613 -0.4114
18281TIP3    H176258   5.568   0.172  16.758 -1.2572  0.1800  0.3749
18281TIP3    H276259   5.443   0.254  16.734 -0.4730  0.9563 -1.2176
18282TIP3   OH276260   5.034   2.074  14.148  0.2203 -0.0374  0.0762
18282TIP3    H176261   4.966   2.068  14.215  0.4130  0.9376  0.3724
18282TIP3    H276262   5.000   2.136  14.084  1.4792  1.7459  1.0520
18283TIP3   OH276263   5.926   4.598   4.674  0.2706 -0.2111  0.5542
18283TIP3    H176264   5.858   4.545   4.715 -1.6369 -0.3795 -2.4902
18283TIP3    H276265   5.990   4.535   4.642 -0.1369 -0.4086  0.1119
18284TIP3   OH276266   6.561   6.300  13.348 -0.0349  0.2623  0.2308
18284TIP3    H176267   6.506   6.305  13.426  0.5343  0.8611  0.6111
18284TIP3    H276268   6.500   6.299  13.274 -0.5561  0.5615  0.6549
18285TIP3   OH276269   5.046   0.114   5.002 -0.0272 -0.3847 -0.0111
18285TIP3    H176270   5.109   0.161   4.947  0.8830 -2.1164 -0.5037
18285TIP3    H276271   5.027   0.034   4.954 -0.7876 -0.9916  1.2545
18286TIP3   OH276272   3.328   0.542  13.880 -0.0770 -0.2511  0.1820
18286TIP3    H176273   3.329   0.601  13.804 -2.0536 -1.3877 -0.8009
18286TIP3    H276274   3.299   0.597  13.953  3.4574  1.2929  0.6597
18287TIP3   OH276275   5.015   3.770   0.441 -0.3680 -0.2689 -0.2015
18287TIP3    H176276   5.052   3.789   0.355  0.1034  1.0765  0.2802
18287TIP3    H276277   4.950   3.839   0.455  0.0585 -0.0652  0.8191
18288TIP3   OH276278   4.902   2.629  11.207 -0.1404 -0.0170 -0.1988
18288TIP3    H176279   4.966   2.676  11.153  0.8556 -0.1587  0.8133
18288TIP3    H276280   4.949   2.610  11.288 -0.7381 -2.1079 -0.2795
18289TIP3   OH276281   4.402   3.141  15.925 -0.4300 -0.3495 -0.4987
18289TIP3    H176282   4.427   3.087  15.999 -0.2338 -0.5646 -0.7204
18289TIP3    H276283   4.451   3.223  15.936  2.0460 -1.5139 -2.0286
18290TIP3   OH276284   2.676   1.130  16.225  0.0345 -0.3086 -0.0169
18290TIP3    H176285   2.704   1.220  16.211  1.7149 -0.6275  1.0477
18290TIP3    H276286   2.587   1.126  16.188  0.1416  1.6159 -0.5605
18291TIP3   OH276287   6.676   4.717   3.450 -0.1070  0.2434  0.3506
18291TIP3    H176288   6.609   4.650   3.436 -1.4235  1.4627  0.6123
18291TIP3    H276289   6.650   4.789   3.393  0.1910  1.2852  1.4982
18292TIP3   OH276290   6.382   4.779   3.245 -0.2504 -0.0207  0.5662
18292TIP3    H176291   6.390   4.684   3.252 -2.1831 -0.2747  0.1216
18292TIP3    H276292   6.471   4.810   3.229  0.5721 -1.6458  1.7128
18293TIP3   OH276293   2.905   0.001  13.616  0.4517  0.1386  0.5288
18293TIP3    H176294   2.914  -0.090  13.646 -0.3083 -0.4545 -0.9404
18293TIP3    H276295   2.994   0.037  13.622  0.9277 -0.9554  0.3558
18294TIP3   OH276296   2.828   3.265   1.501  0.1061  0.4170 -0.0267
18294TIP3    H176297   2.836   3.359   1.515  0.4441  0.4035 -0.1087
18294TIP3    H276298   2.903   3.243   1.445  1.3529 -0.2707  1.8201
18295TIP3   OH276299   4.428   5.939   3.231  0.7326 -0.5004 -0.5335
18295TIP3    H176300   4.490   5.902   3.168 -0.4829 -0.5166 -1.7779
18295TIP3    H276301   4.396   6.019   3.189 -0.7111 -0.9445 -0.3516
18296TIP3   OH276302   2.505   3.045  10.808  0.3439  0.2622  0.1874
18296TIP3    H176303   2.411   3.032  10.799  0.3219  0.2856  0.3735
18296TIP3    H276304   2.537   3.056  10.718  0.0401  1.1246  0.1737
18297TIP3   OH276305   2.982   4.057   5.239  0.3840 -0.0690 -0.1564
18297TIP3    H176306   3.060   4.105   5.266 -0.9591  0.5727  2.9405
18297TIP3    H276307   2.958   4.097   5.155  2.7079  0.4250 -0.6807
18298TIP3   OH276308   6.026   5.580  13.643  0.2182  0.2503 -0.0300
18298TIP3    H176309   6.002   5.662  13.685  1.3683 -0.3980  2.0368
18298TIP3    H276310   6.008   5.594  13.550 -2.1374  1.8794  0.5886
18299TIP3   OH276311   4.863   5.662   1.790  0.0432  0.4089  0.3143
18299TIP3    H176312   4.870   5.574   1.829  1.1574 -0.1939 -1.1699
18299TIP3    H276313   4.840   5.718   1.864 -0.8340 -1.1361  1.2893
18300TIP3   OH276314   0.583   0.990   4.564 -0.0222 -0.8794 -0.3049
18300TIP3    H176315   0.542   0.972   4.648  0.3206 -2.2637 -0.4074
18300TIP3    H276316   0.675   1.005   4.585 -0.0754 -0.4790 -0.3561
18301TIP3   OH276317   6.214   0.975  15.318 -0.2656  0.0925 -0.4242
18301TIP3    H176318   6.170   0.980  15.403  0.5080 -0.0161 -0.0070
18301TIP3    H276319   6.274   0.901  15.327  0.2335  0.4440 -0.8717
18302TIP3   OH276320   1.944   2.103  14.907  0.2713  0.3539  0.2750
18302TIP3    H176321   1.871   2.150  14.868  0.0700  0.2180  0.4895
18302TIP3    H276322   1.929   2.108  15.001  0.6756  0.5477  0.3324
18303TIP3   OH276323   3.328   5.369  14.128 -0.0582 -0.7446  0.1016
18303TIP3    H176324   3.332   5.464  14.128  2.5967 -0.6194 -3.6645
18303TIP3    H276325   3.252   5.348  14.074 -1.7930 -0.9432  2.4714
18304TIP3   OH276326   3.571   5.664  10.635  0.6467  0.9708 -0.3936
18304TIP3    H176327   3.610   5.579  10.615  0.0652  0.4902  0.4261
18304TIP3    H276328   3.562   5.664  10.731 -2.1848  0.6703 -0.5891
18305TIP3   OH276329   0.326   6.244  13.190 -0.8025 -0.1958  0.2919
18305TIP3    H176330   0.325   6.157  13.231  2.0823 -0.1024  0.7616
18305TIP3    H276331   0.291   6.303  13.257 -1.0811 -0.7436  0.6345
18306TIP3   OH276332   1.825   0.518  16.095 -0.4199  0.1505 -0.0786
18306TIP3    H176333   1.855   0.532  16.185  1.0805 -2.8696  0.0177
18306TIP3    H276334   1.857   0.595  16.047  2.0162  0.0977  1.2858
18307TIP3   OH276335   1.831   2.820  13.555  0.0533 -0.0332 -0.3192
18307TIP3    H176336   1.849   2.835  13.463 -1.1527  0.0242 -0.5520
18307TIP3    H276337   1.737   2.833  13.565  0.2226  0.4093  1.0094
18308TIP3   OH276338   0.706   3.998   5.880 -0.7939 -0.1957 -0.3604
18308TIP3    H176339   0.728   4.090   5.896 -0.5301 -0.2353 -0.4961
18308TIP3    H276340   0.615   3.990   5.908 -0.0291 -0.5484  2.3607
18309TIP3   OH276341   5.443   2.023   5.260  0.4990 -0.2319  0.4135
18309TIP3    H176342   5.385   2.067   5.322 -0.0626  0.8077 -0.7880
18309TIP3    H276343   5.452   2.085   5.188  1.4309 -1.2434 -0.3823
18310TIP3   OH276344   3.436   5.818  13.606  0.0415 -0.1289 -0.4744
18310TIP3    H176345   3.413   5.776  13.688 -0.7560 -0.6484 -0.9539
18310TIP3    H276346   3.432   5.912  13.624 -1.4500 -0.2110 -0.2557
18311TIP3   OH276347   6.350   4.623   4.329  0.0872 -0.1789 -0.0066
18311TIP3    H176348   6.296   4.626   4.250 -0.2747  0.2151  0.2515
18311TIP3    H276349   6.374   4.714   4.346 -0.9252 -0.0887  1.0650
18312TIP3   OH276350   2.846   4.807  16.231 -0.8905  0.2036 -0.2030
18312TIP3    H176351   2.916   4.746  16.254 -0.9857  0.0978 -0.1940
18312TIP3    H276352   2.792   4.813  16.309 -0.2668  1.1544  0.1683
18313TIP3   OH276353   3.434   0.145   2.037  0.3870 -0.3346 -0.8393
18313TIP3    H176354   3.420   0.071   1.977 -0.0470 -1.3735  0.5017
18313TIP3    H276355   3.445   0.105   2.123 -0.4495  1.2005  0.0244
18314TIP3   OH276356   1.492   0.960   3.821  0.1653 -0.1601 -0.4741
18314TIP3    H176357   1.489   0.899   3.748 -0.6531 -0.2713 -0.3516
18314TIP3    H276358   1.504   0.905   3.899  1.0988 -0.0378 -0.5197
18315TIP3   OH276359   4.538   5.563  13.638  0.6363 -0.0693 -0.1426
18315TIP3    H176360   4.478   5.523  13.700  2.2605  0.7620  2.0800
18315TIP3    H276361   4.574   5.639  13.684  1.4070  1.0242 -2.3754
18316TIP3   OH276362   3.924   4.199   2.051 -0.0537 -0.3547 -0.2597
18316TIP3    H176363   3.973   4.117   2.047  1.4459  0.5472 -1.9224
18316TIP3    H276364   3.954   4.241   2.132 -0.5468 -1.2450  0.3989
18317TIP3   OH276365   6.342   5.583  13.841 -0.0604  0.5427 -0.6405
18317TIP3    H176366   6.279   5.655  13.836 -1.1898 -0.2161  1.6275
18317TIP3    H276367   6.402   5.609  13.912 -1.3376 -1.3062  1.2299
18318TIP3   OH276368   3.649   4.373   5.064 -0.0070  0.0398  0.0835
18318TIP3    H176369   3.700   4.295   5.042  1.4723  0.9338  0.2114
18318TIP3    H276370   3.607   4.398   4.981  2.2759  1.0382 -0.8801
18319TIP3   OH276371   4.646   6.044  15.446 -0.2216  0.3156  0.1623
18319TIP3    H176372   4.664   6.022  15.538 -1.3260 -0.4877  0.1986
18319TIP3    H276373   4.733   6.059  15.408  0.4476 -1.7899  0.7298
18320TIP3   OH276374   3.417   2.739  15.532  0.2588 -0.3181  0.1434
18320TIP3    H176375   3.406   2.758  15.439 -0.4091 -0.6204  0.1534
18320TIP3    H276376   3.332   2.706  15.560 -0.2019  1.6394  1.3079
18321TIP3   OH276377   2.675   5.535  10.987 -0.4557 -0.3341 -0.1437
18321TIP3    H176378   2.666   5.468  11.054  0.0242 -0.5103 -0.2508
18321TIP3    H276379   2.770   5.540  10.971 -0.4547  0.5892  0.0935
18322TIP3   OH276380   2.777   4.653  11.576 -0.9017 -0.0438 -0.0869
18322TIP3    H176381   2.794   4.731  11.629 -0.6343 -1.0603  1.3837
18322TIP3    H276382   2.836   4.663  11.501  0.2005  0.4871  0.8048
18323TIP3   OH276383   5.017   3.238  13.503  0.2853 -0.2113 -0.1898
18323TIP3    H176384   4.941   3.200  13.545  1.2764 -0.3381  1.5644
18323TIP3    H276385   4.997   3.235  13.409 -0.6230 -2.9202  0.0175
18324TIP3   OH276386   1.185   5.996   4.714 -0.2427  0.3551 -0.4998
18324TIP3    H176387   1.172   5.960   4.626  0.4940 -0.4736 -0.2786
18324TIP3    H276388   1.273   6.033   4.712  0.1883 -0.6061  0.1928
18325TIP3   OH276389   4.976   5.681  14.505 -0.1088 -0.1750 -0.0460
18325TIP3    H176390   5.046   5.709  14.446 -0.0682 -0.8634 -0.3379
18325TIP3    H276391   5.000   5.717  14.590 -0.0533  0.6458 -0.3966
18326TIP3   OH276392   1.629   0.915   4.987 -0.0405 -0.5727  0.1865
18326TIP3    H176393   1.581   0.891   4.908 -0.8584 -0.6196  0.6930
18326TIP3    H276394   1.584   0.991   5.021 -0.7792 -1.5801  1.5517
18327TIP3   OH276395   5.660   3.892  10.446 -0.3377 -0.3966  0.2084
18327TIP3    H176396   5.583   3.918  10.497 -0.0384  0.0833  0.4205
18327TIP3    H276397   5.697   3.974  10.414  1.4005 -0.3990  2.0041
18328TIP3   OH276398   2.581   3.699  13.544 -0.5018  0.3423  0.1390
18328TIP3    H176399   2.648   3.634  13.523 -0.5137  0.6113 -0.7748
18328TIP3    H276400   2.499   3.650  13.545 -0.4753  0.2846 -0.2704
18329TIP3   OH276401   2.148   2.990  14.158 -0.2183  0.5035 -0.1548
18329TIP3    H176402   2.106   2.920  14.108 -0.6586  0.2411  0.5678
18329TIP3    H276403   2.104   2.989  14.243  1.1854  0.2902  0.6041
18330TIP3   OH276404   1.907   4.656   3.164 -0.0987  0.5908 -0.1083
18330TIP3    H176405   1.934   4.613   3.245 -1.9322 -2.8079 -1.1461
18330TIP3    H276406   1.960   4.614   3.096 -1.0059  0.9278 -1.0422
18331TIP3   OH276407   3.118   6.292   1.406 -0.2824 -0.0230  0.2879
18331TIP3    H176408   3.165   6.285   1.489  0.6218  2.7605  0.1134
18331TIP3    H276409   3.155   6.223   1.352  2.4294  0.9397  0.7473
18332TIP3   OH276410   6.107   2.686   1.769  0.3943 -0.6522  0.0990
18332TIP3    H176411   6.034   2.727   1.723  0.0099 -2.1694 -0.7509
18332TIP3    H276412   6.174   2.672   1.701  0.1952 -2.0807  0.1521
18333TIP3   OH276413   3.656   4.130   4.380 -0.6756  0.1585  0.6104
18333TIP3    H176414   3.579   4.133   4.438  0.1893  1.8279  1.7657
18333TIP3    H276415   3.675   4.222   4.362  0.1258 -0.2888 -0.9769
18334TIP3   OH276416   4.179   4.577   1.294 -0.0139 -0.3417 -0.2370
18334TIP3    H176417   4.233   4.502   1.316  2.4810  1.4249  0.1199
18334TIP3    H276418   4.095   4.560   1.337  0.5781 -2.6949  0.1360
18335TIP3   OH276419   4.474   2.893   0.472 -0.5103 -0.7190  0.1619
18335TIP3    H176420   4.532   2.968   0.457  0.7039 -1.9845 -1.9133
18335TIP3    H276421   4.407   2.902   0.404 -1.1953 -0.7549  0.8255
18336TIP3   OH276422   0.985   6.078   1.434 -0.6090 -0.5368 -0.3773
18336TIP3    H176423   0.997   5.996   1.385  0.7979 -0.7256  0.2390
18336TIP3    H276424   0.998   6.053   1.526 -2.8233 -0.1136  0.1272
18337TIP3   OH276425   2.079   2.294  16.780  0.6186 -0.1613  0.2300
18337TIP3    H176426   2.043   2.367  16.730 -2.5076 -1.3798  0.4773
18337TIP3    H276427   2.143   2.334  16.840  0.4038  2.0462 -0.9318
18338TIP3   OH276428   4.086   6.042  12.586 -0.7690  0.3335 -0.5477
18338TIP3    H176429   4.037   5.975  12.633  0.4068  1.1720  2.0889
18338TIP3    H276430   4.170   6.001  12.566 -0.5354  0.5922 -0.1105
18339TIP3   OH276431   1.282   0.531  16.491  0.3983  0.5504  0.5641
18339TIP3    H176432   1.323   0.574  16.566  2.9636  1.8900 -1.4653
18339TIP3    H276433   1.337   0.455  16.473 -2.0808 -1.7628  1.9025
18340TIP3   OH276434   3.178   0.711  11.451 -0.4662 -0.1338  0.4259
18340TIP3    H176435   3.180   0.631  11.503 -0.7760  0.9156  2.1608
18340TIP3    H276436   3.224   0.775  11.505  0.4362  0.6856 -1.2566
18341TIP3   OH276437   3.342   2.978  15.344  0.3096  0.2521 -0.4869
18341TIP3    H176438   3.350   3.026  15.427  0.1289 -0.1288 -0.2457
18341TIP3    H276439   3.382   3.036  15.279  2.1548 -0.2077  0.1580
18342TIP3   OH276440   2.396   4.478   6.419 -0.1878  0.4017 -0.0311
18342TIP3    H176441   2.419   4.571   6.417 -0.5633  0.4936 -0.0616
18342TIP3    H276442   2.307   4.475   6.454  0.4783 -0.0764  1.7133
18343TIP3   OH276443   4.819   1.930   3.077 -0.3714 -0.5420 -0.0483
18343TIP3    H176444   4.866   1.855   3.113  1.9460  0.1932 -1.3060
18343TIP3    H276445   4.751   1.892   3.021 -1.1913 -1.6506  1.6258
18344TIP3   OH276446   6.582   4.150   4.253  0.1791 -0.2389  0.0647
18344TIP3    H176447   6.639   4.220   4.284  1.3174  0.0231 -2.3849
18344TIP3    H276448   6.509   4.196   4.210 -0.3363 -0.5856  0.5500
18345TIP3   OH276449   3.305   2.524   6.130 -0.0705  0.2096 -0.1479
18345TIP3    H176450   3.354   2.601   6.158  0.5359  0.0484 -0.7632
18345TIP3    H276451   3.354   2.489   6.056 -0.2413 -0.8741  0.2322
18346TIP3   OH276452   1.840   2.966   0.212 -0.7732  0.2372  0.1235
18346TIP3    H176453   1.931   2.990   0.227 -0.7774  0.6031 -0.4057
18346TIP3    H276454   1.844   2.893   0.150 -0.8418  0.2934  0.0525
18347TIP3   OH276455   5.668   2.213  11.041  0.3407 -0.6905 -0.2876
18347TIP3    H176456   5.658   2.308  11.043 -0.8069 -0.7962  1.7156
18347TIP3    H276457   5.588   2.181  10.998  0.0741 -0.8017  0.2859
18348TIP3   OH276458   5.212   0.500   5.502 -0.0450  0.3873 -0.1602
18348TIP3    H176459   5.159   0.461   5.432  0.5128 -0.0007 -0.3741
18348TIP3    H276460   5.149   0.546   5.557 -0.6234 -0.1794 -0.3334
18349TIP3   OH276461   4.046   2.042  16.373 -0.4637  0.5682  0.3042
18349TIP3    H176462   4.027   1.960  16.328 -1.9962  0.9432  0.2111
18349TIP3    H276463   4.069   2.016  16.462 -0.3692  0.0090  0.1198
18350TIP3   OH276464   4.443   1.988  13.873  0.1119 -0.3711 -0.2809
18350TIP3    H176465   4.413   2.039  13.798 -0.2139 -1.6044 -1.0323
18350TIP3    H276466   4.495   2.049  13.926 -0.3557  0.7368 -1.0725
18351TIP3   OH276467   2.348   5.786  15.885  0.1234  0.0820  0.2623
18351TIP3    H176468   2.327   5.720  15.819 -1.4743  1.0025 -0.2132
18351TIP3    H276469   2.305   5.755  15.965  1.0460 -0.4265  0.5752
18352TIP3   OH276470   4.065   3.217   6.605  0.3695 -0.4591 -0.0484
18352TIP3    H176471   4.127   3.220   6.678 -0.2068 -0.1564  0.4421
18352TIP3    H276472   4.119   3.217   6.526  0.9818  0.9076  0.3426
18353TIP3   OH276473   5.456   2.427  11.637 -0.0472 -0.1132 -0.2230
18353TIP3    H176474   5.364   2.419  11.610  0.2450 -0.2418 -1.2020
18353TIP3    H276475   5.452   2.427  11.733 -1.1787  1.1528 -0.2410
18354TIP3   OH276476   1.142   1.875  16.923  0.0861 -0.1539 -0.1396
18354TIP3    H176477   1.120   1.953  16.972 -0.8095 -0.6611  0.2788
18354TIP3    H276478   1.229   1.850  16.955  1.0746  1.4864 -1.3471
18355TIP3   OH276479   3.783   6.255  14.124  0.3462 -0.2082 -0.4843
18355TIP3    H176480   3.776   6.232  14.031  2.0653 -0.6821 -0.5357
18355TIP3    H276481   3.877   6.263  14.139  0.0308  1.4865  0.8420
18356TIP3   OH276482   5.633   6.388  11.566  0.1995  0.2597 -0.3431
18356TIP3    H176483   5.628   6.444  11.643  2.5483 -0.4934  0.4636
18356TIP3    H276484   5.622   6.447  11.492 -1.0284  1.1640  0.5130
18357TIP3   OH276485   1.868   0.933   3.888 -0.2427  0.5982  0.1376
18357TIP3    H176486   1.817   0.897   3.960  1.7355 -1.0951  0.7808
18357TIP3    H276487   1.860   1.028   3.898 -1.3433  0.3866  1.5789
18358TIP3   OH276488   5.848   1.600  15.604 -0.3784  0.0079  0.8812
18358TIP3    H176489   5.795   1.669  15.645  0.6659  1.4998 -0.1893
18358TIP3    H276490   5.929   1.598  15.655  0.6312  1.3796 -0.5656
18359TIP3   OH276491   1.521   1.835   3.747 -0.5400 -0.6411  0.3366
18359TIP3    H176492   1.578   1.786   3.806 -0.0715  0.5397  0.9070
18359TIP3    H276493   1.581   1.889   3.695 -1.1117  1.2168  1.4971
18360TIP3   OH276494   1.614   2.604   4.260 -0.3761 -0.1638 -0.2135
18360TIP3    H176495   1.653   2.686   4.231  0.3477 -0.6563 -0.6701
18360TIP3    H276496   1.636   2.599   4.353  0.6509 -0.4212 -0.4577
18361TIP3   OH276497   5.908   4.835  13.379 -0.2261 -0.7891 -0.5011
18361TIP3    H176498   5.863   4.900  13.434 -1.2390 -0.8707 -1.2155
18361TIP3    H276499   5.945   4.772  13.442 -1.5672 -1.0090  0.0990
18362TIP3   OH276500   2.254   1.825  13.185 -0.0439  0.5768 -0.4346
18362TIP3    H176501   2.229   1.917  13.172 -1.5200  0.0119 -2.0091
18362TIP3    H276502   2.186   1.790  13.242 -0.5885  0.0146 -1.4051
18363TIP3   OH276503   4.497   0.988  15.166  0.2530  0.8355 -0.1992
18363TIP3    H176504   4.450   1.055  15.215  1.1670  0.7732  0.8150
18363TIP3    H276505   4.434   0.954  15.103 -1.1511  0.5473  1.3027
18364TIP3   OH276506   0.268   5.996  11.162 -0.3426 -0.2827 -0.1486
18364TIP3    H176507   0.194   5.951  11.203 -1.5370  0.6055 -1.2453
18364TIP3    H276508   0.286   6.070  11.220  0.1033 -0.8470  0.4425
18365TIP3   OH276509   6.376   4.125  13.821  0.3837 -0.2750 -0.5351
18365TIP3    H176510   6.448   4.185  13.841  1.3139 -1.9649  1.5537
18365TIP3    H276511   6.419   4.042  13.800 -0.9160 -1.2253  0.4175
18366TIP3   OH276512   4.950   5.203   3.740 -0.1342 -0.1164  0.3519
18366TIP3    H176513   4.869   5.172   3.779 -0.3901  0.4808  0.3085
18366TIP3    H276514   4.994   5.250   3.811 -0.9518  1.6314 -0.2386
18367TIP3   OH276515   4.817   4.797   4.719 -0.1887 -0.5380 -0.1468
18367TIP3    H176516   4.814   4.718   4.666 -1.1892 -0.4212 -0.2936
18367TIP3    H276517   4.887   4.782   4.782 -0.4599 -1.6042 -0.0769
18368TIP3   OH276518   3.388   2.038   0.130  0.3473 -0.5354  0.5067
18368TIP3    H176519   3.361   1.947   0.143 -1.7105  0.3572  3.2871
18368TIP3    H276520   3.310   2.090   0.150  1.4400  1.8989 -1.0683
18369TIP3   OH276521   0.092   2.118   0.847  0.1653  0.2204  0.3365
18369TIP3    H176522   0.066   2.040   0.798 -0.5518 -0.0449  1.1134
18369TIP3    H276523   0.144   2.083   0.920 -0.4330  0.4373  0.8707
18370TIP3   OH276524   5.523   2.331  15.533 -0.3018  0.2477 -0.3819
18370TIP3    H176525   5.484   2.248  15.504  1.8600 -0.4662 -1.4272
18370TIP3    H276526   5.485   2.397  15.474 -0.3752 -0.3354 -1.0028
18371TIP3   OH276527   1.787   2.349  14.888  0.2919  0.0533  0.6483
18371TIP3    H176528   1.772   2.339  14.982  0.4393  0.3780  0.7088
18371TIP3    H276529   1.826   2.436  14.880  0.1315  0.0894  0.2710
18372TIP3   OH276530   1.373   3.830  14.350  0.1853 -0.3066  0.3150
18372TIP3    H176531   1.361   3.917  14.311  0.0452 -0.6391 -0.4077
18372TIP3    H276532   1.382   3.771  14.274 -0.1192 -0.9744  0.7877
18373TIP3   OH276533   4.390   1.883   4.351  0.3442 -0.1525  0.2831
18373TIP3    H176534   4.431   1.881   4.264  0.3975  1.4627  0.2459
18373TIP3    H276535   4.297   1.871   4.334  0.4860 -1.1064  0.1258
18374TIP3   OH276536   6.673   6.530   4.548 -0.4523 -0.4040  0.6907
18374TIP3    H176537   6.721   6.514   4.467 -1.3226 -1.0449  0.2880
18374TIP3    H276538   6.582   6.541   4.520 -0.4173  1.9198  1.3060
18375TIP3   OH276539   3.025   4.163  11.567 -0.2130 -0.8024  0.6862
18375TIP3    H176540   3.104   4.212  11.588 -0.7031  1.5151 -2.3265
18375TIP3    H276541   2.966   4.181  11.640  0.9874 -0.0956  1.5131
18376TIP3   OH276542   0.154   2.000   6.366  0.3631 -0.4631 -0.2769
18376TIP3    H176543   0.135   2.092   6.386  1.5297 -0.3540  0.4172
18376TIP3    H276544   0.206   2.003   6.286  0.5753 -0.4972 -0.1419
18377TIP3   OH276545   1.357   3.816  11.308 -0.2843  0.0740  0.7365
18377TIP3    H176546   1.261   3.810  11.303 -0.1848 -0.2491 -1.1701
18377TIP3    H276547   1.385   3.726  11.321 -0.2043  0.1125  0.8309
18378TIP3   OH276548   6.051   6.095   4.361 -0.4080 -0.2899 -0.3489
18378TIP3    H176549   5.990   6.023   4.377  1.9178 -2.1741  0.8216
18378TIP3    H276550   6.024   6.164   4.422 -0.8622 -1.4059  0.7562
18379TIP3   OH276551   3.724   4.358   1.593 -0.2498  0.0737 -0.4861
18379TIP3    H176552   3.783   4.417   1.544  0.6274 -1.2185 -1.0655
18379TIP3    H276553   3.781   4.316   1.658 -0.6304 -0.8160 -0.7098
18380TIP3   OH276554   1.508   4.869   4.500  0.0238  0.3338 -0.1603
18380TIP3    H176555   1.537   4.799   4.558  1.0199  1.0735  0.2650
18380TIP3    H276556   1.415   4.879   4.520  0.1875  0.0842  0.8000
18381TIP3   OH276557   5.987   5.714  14.708 -0.0953 -0.4151  0.6578
18381TIP3    H176558   5.993   5.799  14.665 -0.5811 -0.4057  0.5988
18381TIP3    H276559   5.955   5.654  14.640 -0.4445 -0.4920  0.8846
18382TIP3   OH276560   1.660   6.312  11.180  0.2575 -0.0864  1.0058
18382TIP3    H176561   1.604   6.365  11.122  1.6328  0.9210  0.5589
18382TIP3    H276562   1.655   6.357  11.265  0.2114 -0.1340  1.0286
18383TIP3   OH276563   4.758   1.136  15.646 -0.1248  0.1294  0.0393
18383TIP3    H176564   4.738   1.213  15.593  1.3755  0.3240 -0.2702
18383TIP3    H276565   4.721   1.062  15.597 -0.5331  0.5207 -0.2420
18384TIP3   OH276566   3.178   3.464   0.233 -0.0861 -0.3182  0.0054
18384TIP3    H176567   3.250   3.517   0.197 -0.8374  0.1107 -0.9399
18384TIP3    H276568   3.181   3.383   0.183  1.1409 -1.2500  1.5406
18385TIP3   OH276569   3.833   5.974  12.956 -0.7633 -0.2095 -0.4322
18385TIP3    H176570   3.737   5.965  12.952 -1.1115  1.3649  2.4759
18385TIP3    H276571   3.862   5.899  13.009 -0.6748  0.6340  0.7294
18386TIP3   OH276572   3.776   6.307   0.182 -0.5867  0.1739 -0.2121
18386TIP3    H176573   3.848   6.352   0.137  0.1279 -1.2266 -0.5201
18386TIP3    H276574   3.812   6.284   0.268 -0.7609 -0.2590 -0.2517
18387TIP3   OH276575   4.402   1.313  11.412  0.2439 -0.0105 -0.0767
18387TIP3    H176576   4.471   1.279  11.468 -1.5539 -1.2637  1.4689
18387TIP3    H276577   4.365   1.236  11.369  0.7234  0.7908 -2.0361
18388TIP3   OH276578   3.134   4.088   2.466  0.0469 -0.0693 -0.1570
18388TIP3    H176579   3.098   4.176   2.454  0.4875 -0.0817 -1.8406
18388TIP3    H276580   3.083   4.033   2.406 -0.1164 -0.9352  0.7612
18389TIP3   OH276581   0.798   6.063  14.296 -0.4195 -0.4307  0.1033
18389TIP3    H176582   0.849   6.005  14.353  0.9220  2.0682  1.6577
18389TIP3    H276583   0.712   6.022  14.290  0.4641 -2.5651  1.0504
18390TIP3   OH276584   0.222   1.921  13.981 -0.6233  0.3114 -0.3427
18390TIP3    H176585   0.263   1.861  13.919 -2.8282  0.5238 -2.1452
18390TIP3    H276586   0.258   2.007  13.959  2.5486 -0.1873  2.2487
18391TIP3   OH276587   4.500   3.950  11.469  0.6792 -0.2887  0.2278
18391TIP3    H176588   4.475   3.986  11.555  1.7078 -1.0643  0.8677
18391TIP3    H276589   4.470   3.859  11.472  1.1616 -0.4554 -0.0438
18392TIP3   OH276590   2.185   6.734  12.076  0.5100 -0.1356  0.1410
18392TIP3    H176591   2.120   6.778  12.021  1.1208  0.2406 -0.2923
18392TIP3    H276592   2.242   6.805  12.107  0.5851 -0.4346  0.7008
18393TIP3   OH276593   6.092   2.483  12.036 -0.0129  0.5764 -0.0888
18393TIP3    H176594   6.037   2.558  12.013  0.9189  1.0074 -0.9680
18393TIP3    H276595   6.030   2.413  12.054 -0.9084  0.2787 -3.6266
18394TIP3   OH276596   0.300   3.877   2.197 -0.2135 -0.3534  0.7235
18394TIP3    H176597   0.268   3.911   2.280  0.8832 -0.1521  1.0797
18394TIP3    H276598   0.246   3.922   2.131 -0.5603  0.0842  1.2901
18395TIP3   OH276599   0.187   5.967  12.437 -0.9037 -0.5112 -0.2070
18395TIP3    H176600   0.212   6.032  12.371 -0.4095 -1.4644 -1.0045
18395TIP3    H276601   0.265   5.959  12.492 -0.5030 -1.3139 -0.8703
18396TIP3   OH276602   2.577   5.628   5.341 -0.4467 -0.0694 -0.3195
18396TIP3    H176603   2.626   5.576   5.405  0.7247  1.0625 -0.2495
18396TIP3    H276604   2.641   5.649   5.273 -1.0934  0.6249 -0.7302
18397TIP3   OH276605   1.852   3.238  17.001 -0.1983 -0.5048 -0.2332
18397TIP3    H176606   1.932   3.242  16.949 -0.4171 -1.0737 -0.6190
18397TIP3    H276607   1.856   3.153  17.046 -0.9439 -0.8743 -0.8490
18398TIP3   OH276608   3.572   3.998  13.072  0.1235 -0.3295 -0.1805
18398TIP3    H176609   3.521   4.051  13.134  0.2110  0.0569 -0.4310
18398TIP3    H276610   3.572   3.910  13.110 -0.8234 -0.3655 -0.2287
18399TIP3   OH276611   2.953   1.832  11.846 -0.5124 -0.3926  0.1452
18399TIP3    H176612   3.008   1.754  11.838 -1.7565 -1.1842 -1.3899
18399TIP3    H276613   2.863   1.798  11.839 -1.1243  1.0558  0.6616
18400TIP3   OH276614   0.123   2.668   3.523 -0.0417 -0.3437 -0.1454
18400TIP3    H176615   0.215   2.648   3.508  0.3171  0.6934  0.5792
18400TIP3    H276616   0.103   2.629   3.608 -0.8255 -2.2240 -1.1203
18401TIP3   OH276617   5.472   3.671  11.229  0.3891 -0.1566  0.8124
18401TIP3    H176618   5.424   3.623  11.161 -0.6086  2.4039 -0.4567
18401TIP3    H276619   5.475   3.611  11.303 -0.0771 -2.4196 -0.8723
18402TIP3   OH276620   1.198   5.947   1.071 -0.5076  0.4828 -0.0341
18402TIP3    H176621   1.247   5.866   1.054 -2.0757 -0.2852 -1.1167
18402TIP3    H276622   1.241   6.013   1.017 -0.5992 -0.1674 -0.9206
18403TIP3   OH276623   4.814   0.240   3.300  0.5494 -0.4868  0.4089
18403TIP3    H176624   4.833   0.258   3.392  0.1001  0.1739  0.3812
18403TIP3    H276625   4.819   0.145   3.292  2.8798 -0.4347  0.6124
18404TIP3   OH276626   4.362   2.053  14.574 -0.1080  0.1004 -0.3126
18404TIP3    H176627   4.403   2.129  14.614 -1.7038  1.2995 -0.8283
18404TIP3    H276628   4.432   2.010  14.525  1.2079  0.2535  1.3389
18405TIP3   OH276629   3.447   2.592   3.463 -0.5132 -0.1055 -0.2642
18405TIP3    H176630   3.405   2.574   3.546  0.0691 -1.0109 -0.1541
18405TIP3    H276631   3.469   2.685   3.466 -0.5403 -0.1262  0.5684
18406TIP3   OH276632   1.232   0.694   1.364 -0.2345  0.4057 -0.2696
18406TIP3    H176633   1.279   0.777   1.355  1.3833 -0.5362 -0.9937
18406TIP3    H276634   1.147   0.710   1.322  0.0073  1.7115 -0.2990
18407TIP3   OH276635   1.352   5.230   0.093 -0.2579 -0.2138 -0.4076
18407TIP3    H176636   1.337   5.148   0.140 -2.0947 -0.7924 -1.8964
18407TIP3    H276637   1.444   5.224   0.064 -0.2585 -1.5999 -0.2024
18408TIP3   OH276638   2.268   4.472   3.414 -0.1718  0.2526 -0.1980
18408TIP3    H176639   2.331   4.520   3.468  3.2249 -3.6452 -0.1689
18408TIP3    H276640   2.291   4.494   3.324 -1.1217  1.3829 -0.1869
18409TIP3   OH276641   5.647   5.709   2.722  0.4985  0.7291  0.9475
18409TIP3    H176642   5.617   5.626   2.758  0.0235  0.4275 -0.1023
18409TIP3    H276643   5.620   5.707   2.630 -0.4186  2.4864  1.1392
18410TIP3   OH276644   6.561   0.997   2.352  0.1581 -0.5402  0.2461
18410TIP3    H176645   6.540   1.021   2.262 -0.0704 -2.0063 -0.1092
18410TIP3    H276646   6.511   1.060   2.405  1.6263  1.4632 -0.5983
18411TIP3   OH276647   6.081   4.479   0.416 -0.0122 -0.1809  0.7260
18411TIP3    H176648   6.003   4.449   0.369  0.1536  0.5687 -0.0518
18411TIP3    H276649   6.149   4.484   0.348  0.4395  0.1662  1.2013
18412TIP3   OH276650   0.457   3.160   5.840  0.4298 -0.7811  0.5110
18412TIP3    H176651   0.391   3.196   5.899  3.8836  3.2680  2.3657
18412TIP3    H276652   0.515   3.110   5.897  0.5182 -2.0292 -0.6255
18413TIP3   OH276653   3.586   2.700   2.956  0.2578  0.1406  0.4781
18413TIP3    H176654   3.634   2.649   2.889 -1.9724  0.2414 -1.3078
18413TIP3    H276655   3.634   2.682   3.037  0.3649 -3.8447 -0.2451
18414TIP3   OH276656   1.038   4.306  12.467  0.1410 -0.0550 -0.0819
18414TIP3    H176657   0.978   4.233  12.483 -0.9760  0.8681  0.0901
18414TIP3    H276658   1.043   4.352  12.551 -2.7055  2.5923 -1.1641
18415TIP3   OH276659   0.998   3.373   5.670 -0.3783  0.0511  0.1628
18415TIP3    H176660   1.037   3.290   5.641 -2.9039 -0.5729 -1.7298
18415TIP3    H276661   0.946   3.350   5.747 -0.0759  0.1596  0.4047
18416TIP3   OH276662   2.839   4.862  14.522 -0.4863  0.5915  0.3199
18416TIP3    H176663   2.925   4.874  14.563 -0.4726 -0.3777  0.6057
18416TIP3    H276664   2.801   4.949  14.519  0.5450  1.0530  0.1089
18417TIP3   OH276665   0.868   3.845   2.684 -0.0247 -0.1867 -0.1757
18417TIP3    H176666   0.960   3.867   2.668  0.3091 -0.0990  1.6435
18417TIP3    H276667   0.864   3.750   2.677  0.1325 -0.1699 -0.5288
18418TIP3   OH276668   6.015   6.602   2.309 -0.1201 -0.6538 -0.3805
18418TIP3    H176669   5.957   6.562   2.244 -2.0034  0.1138  0.7298
18418TIP3    H276670   5.979   6.573   2.393 -0.5565  1.9783  0.4257
18419TIP3   OH276671   5.953   6.284   5.809 -0.5815  0.3641 -0.2986
18419TIP3    H176672   5.985   6.235   5.885  0.1516  0.3208 -0.6271
18419TIP3    H276673   5.860   6.298   5.827 -0.1768  1.3902  1.1629
18420TIP3   OH276674   6.671   3.164  13.015  0.7937 -0.5516 -0.1569
18420TIP3    H176675   6.712   3.120  13.090 -0.5357 -2.2264 -0.3561
18420TIP3    H276676   6.710   3.123  12.938  0.4236 -0.5371 -0.3552
18421TIP3   OH276677   4.902   1.745  11.752  0.0549  0.1663  0.3526
18421TIP3    H176678   4.827   1.731  11.694 -0.4111  1.1947  0.6970
18421TIP3    H276679   4.977   1.718  11.700 -0.3249  1.3263 -0.8506
18422TIP3   OH276680   0.071   3.805  12.644  0.6391  0.1903  0.1149
18422TIP3    H176681   0.075   3.817  12.739  0.7877  1.1203  0.0025
18422TIP3    H276682   0.058   3.894  12.610  1.8540  0.0273 -0.8046
18423TIP3   OH276683   6.697   1.739   2.661 -0.0089  0.2281 -0.2149
18423TIP3    H176684   6.676   1.696   2.579 -0.4652 -5.0487  2.2909
18423TIP3    H276685   6.613   1.775   2.692 -0.1775  0.6768 -1.1627
18424TIP3   OH276686   5.884   0.501  11.578  0.1482 -0.2373  0.6312
18424TIP3    H176687   5.974   0.491  11.610  0.2029  0.3258  0.6637
18424TIP3    H276688   5.858   0.588  11.606 -0.3970 -0.3800  0.5814
18425TIP3   OH276689   0.846   1.225  11.615  1.0178 -0.1054  0.5285
18425TIP3    H176690   0.912   1.215  11.545  0.2798 -1.0385 -0.0597
18425TIP3    H276691   0.825   1.136  11.640  0.1973  0.2003  0.9357
18426TIP3   OH276692   4.084   0.796   0.862  0.3745 -0.0154  0.0947
18426TIP3    H176693   4.009   0.771   0.808  0.3735 -0.9085  0.4846
18426TIP3    H276694   4.045   0.828   0.944  0.3920  0.7966 -0.2028
18427TIP3   OH276695   6.567   3.464   0.869  0.3032  0.7100  0.2562
18427TIP3    H176696   6.641   3.457   0.930  1.2969 -1.0529 -1.0448
18427TIP3    H276697   6.567   3.556   0.842  0.6621  1.2197  1.8901
18428TIP3   OH276698   6.523   4.536  13.348  0.2046  0.2925 -0.5324
18428TIP3    H176699   6.599   4.579  13.309 -0.0338  0.0111 -1.3427
18428TIP3    H276700   6.478   4.605  13.396  0.6440  0.5978 -0.5570
18429TIP3   OH276701   3.750   5.809  17.161 -0.0636 -0.4840  0.2557
18429TIP3    H176702   3.663   5.849  17.161 -1.0276 -2.4015  0.5050
18429TIP3    H276703   3.771   5.798  17.254 -0.5805 -1.9637  0.2371
18430TIP3   OH276704   4.065   4.963  13.489 -0.4516  0.2113 -0.0410
18430TIP3    H176705   4.121   4.988  13.415  1.8105 -0.2771  1.4156
18430TIP3    H276706   4.042   4.872  13.472  0.0507  0.1033 -0.1501
18431TIP3   OH276707   0.507   5.886  16.612 -0.0078 -0.0718  0.3252
18431TIP3    H176708   0.476   5.896  16.522 -0.5886 -1.6799  0.3157
18431TIP3    H276709   0.585   5.830  16.604  3.0876  3.7785  0.3518
18432TIP3   OH276710   0.249   6.638  14.550 -0.2167 -0.2978 -0.4869
18432TIP3    H176711   0.305   6.573  14.509  0.0084  0.9987 -2.3976
18432TIP3    H276712   0.276   6.721  14.511 -1.8051  0.6943  0.3766
18433TIP3   OH276713   1.182   4.036  13.959 -0.4196  0.8235  0.7168
18433TIP3    H176714   1.179   4.132  13.960  0.8996  0.9288 -0.8236
18433TIP3    H276715   1.217   4.014  13.873 -0.2842 -1.0374  1.2050
18434TIP3   OH276716   1.450   3.473  14.504  0.5687  0.6368 -0.1270
18434TIP3    H176717   1.419   3.436  14.422  0.7707 -0.4038  0.2596
18434TIP3    H276718   1.408   3.560  14.508  1.2584  1.0818 -1.7453
18435TIP3   OH276719   0.245   2.224  16.918  0.4592 -0.0566 -0.3343
18435TIP3    H176720   0.242   2.260  17.007 -0.3508 -3.2878  1.0833
18435TIP3    H276721   0.333   2.187  16.911  0.2360 -0.5426 -0.5724
18436TIP3   OH276722   6.104   5.384  15.507  0.4023  0.1670 -0.7267
18436TIP3    H176723   6.020   5.424  15.527  0.7317  1.3160 -1.5515
18436TIP3    H276724   6.168   5.441  15.549  0.9077  0.8253 -2.3268
18437TIP3   OH276725   1.411   3.451  11.437  0.5365  0.0240 -0.6397
18437TIP3    H176726   1.459   3.401  11.503 -0.7466  0.3648  0.6078
18437TIP3    H276727   1.319   3.427  11.452  0.3036 -1.3144 -3.5368
18438TIP3   OH276728   5.943   6.696   0.279  0.0802  0.3996 -0.1822
18438TIP3    H176729   6.028   6.686   0.320  0.0039  1.0136  0.1393
18438TIP3    H276730   5.957   6.674   0.187 -0.0656 -2.5202  0.4116
18439TIP3   OH276731   3.249   3.878   3.146 -0.0459 -0.0464  0.5164
18439TIP3    H176732   3.341   3.861   3.125  0.3381  0.3667  1.7440
18439TIP3    H276733   3.218   3.934   3.075  0.7316  0.0400  0.2369
18440TIP3   OH276734   5.595   0.503   2.588  0.5901 -0.0177  0.6384
18440TIP3    H176735   5.625   0.578   2.640 -1.5981  1.7683 -0.4781
18440TIP3    H276736   5.633   0.518   2.502 -0.1412  0.0313  0.3165
18441TIP3   OH276737   1.335   4.119  14.255  0.5908  0.0743 -0.1639
18441TIP3    H176738   1.252   4.096  14.297  0.6829  1.1380  0.6562
18441TIP3    H276739   1.313   4.195  14.201  1.1267  0.7335  0.5198
18442TIP3   OH276740   0.144   1.468  11.379 -0.1742 -0.1201 -0.1338
18442TIP3    H176741   0.216   1.530  11.393  0.0643 -0.7908  1.9195
18442TIP3    H276742   0.155   1.403  11.448 -1.7183 -1.2363 -0.8907
18443TIP3   OH276743   4.308   4.496   2.503  0.2248 -0.1951 -0.0573
18443TIP3    H176744   4.248   4.515   2.431  0.8718 -1.5854 -1.0071
18443TIP3    H276745   4.250   4.480   2.578 -0.5515 -0.4030 -0.6891
18444TIP3   OH276746   5.781   2.342   6.124 -0.0161 -0.2330  0.5370
18444TIP3    H176747   5.701   2.367   6.169 -0.5107 -0.9963  0.0959
18444TIP3    H276748   5.835   2.422   6.124 -1.0719  0.4950  0.1716
18445TIP3   OH276749   3.437   3.972   2.162 -0.5661 -0.4040  0.3533
18445TIP3    H176750   3.516   3.946   2.113 -0.7022 -0.6813  0.2740
18445TIP3    H276751   3.370   3.911   2.131 -0.5384 -0.9002  1.2480
18446TIP3   OH276752   4.020   3.978  16.397  0.4667  0.1504 -0.3491
18446TIP3    H176753   4.100   4.027  16.375 -0.5748  1.9110 -0.3755
18446TIP3    H276754   3.978   3.962  16.312 -1.0350  2.5407 -0.1492
18447TIP3   OH276755   0.945   2.210   0.282 -0.6830 -0.6186 -0.3136
18447TIP3    H176756   0.955   2.289   0.230 -0.9865 -1.3487 -1.5347
18447TIP3    H276757   0.860   2.175   0.256 -0.6962 -1.1711  0.4424
18448TIP3   OH276758   6.502   0.738  10.868 -0.1467 -0.1371  0.4370
18448TIP3    H176759   6.593   0.753  10.841  0.1710 -1.2577  0.8151
18448TIP3    H276760   6.486   0.646  10.847 -1.3634  0.1764 -0.0602
18449TIP3   OH276761   5.817   4.771  16.358 -0.2879  0.2954  0.0656
18449TIP3    H176762   5.849   4.845  16.307  0.1801  1.0371  1.3966
18449TIP3    H276763   5.820   4.697  16.297  1.8186  0.8083 -0.5291
18450TIP3   OH276764   0.676   1.654   0.572  0.2888 -0.0703 -0.0151
18450TIP3    H176765   0.606   1.693   0.520  0.5132 -3.1039 -2.8869
18450TIP3    H276766   0.754   1.705   0.549 -0.2085  0.6906 -0.0496
18451TIP3   OH276767   4.071   6.379   2.973  0.5432  0.1079  0.3177
18451TIP3    H176768   4.152   6.411   3.011  0.0343 -0.2189  1.7281
18451TIP3    H276769   4.007   6.385   3.044 -0.4670 -0.4192 -0.5249
18452TIP3   OH276770   0.413   0.201  17.207  0.0637  0.2793  0.0085
18452TIP3    H176771   0.397   0.292  17.182  1.6162  1.3933  2.7468
18452TIP3    H276772   0.394   0.198  17.301 -0.7336 -2.4539 -0.1615
18453TIP3   OH276773   3.123   5.757   0.968 -0.5156 -0.3430  0.1823
18453TIP3    H176774   3.113   5.818   1.040  0.9989 -1.0381  1.0247
18453TIP3    H276775   3.071   5.795   0.897  0.1798  1.7761  0.7527
18454TIP3   OH276776   1.659   6.315   5.897 -0.3495  0.1813 -0.0898
18454TIP3    H176777   1.619   6.369   5.965 -0.4231 -1.7829  1.5176
18454TIP3    H276778   1.675   6.375   5.824 -3.3597  1.6718  0.3572
18455TIP3   OH276779   5.830   0.345   2.896 -0.3091 -0.6592 -0.3839
18455TIP3    H176780   5.793   0.322   2.981  0.7212  0.8233  0.5158
18455TIP3    H276781   5.920   0.313   2.900  0.3358  1.0718 -0.1242
18456TIP3   OH276782   4.973   3.295  10.669 -0.1438 -0.0310  0.1409
18456TIP3    H176783   5.041   3.263  10.610 -0.7212  0.0581 -0.5842
18456TIP3    H276784   5.014   3.294  10.755  0.8186  0.1420 -0.2980
18457TIP3   OH276785   0.824   2.124   6.528 -0.5999  0.2064 -0.3952
18457TIP3    H176786   0.774   2.162   6.455 -2.2534  1.7878  1.4269
18457TIP3    H276787   0.798   2.032   6.529 -0.2513  0.0497 -1.9753
18458TIP3   OH276788   0.470   4.806  16.905  0.2786  0.5834 -0.6044
18458TIP3    H176789   0.508   4.850  16.981  0.8716 -0.4638 -0.2771
18458TIP3    H276790   0.462   4.714  16.931 -1.2225  0.5276 -1.1600
18459TIP3   OH276791   5.999   2.615  11.722 -0.0415 -0.5351 -0.2094
18459TIP3    H176792   5.980   2.691  11.777 -1.7295  0.2358 -1.7164
18459TIP3    H276793   5.913   2.588  11.689  0.8329 -1.2335 -2.0605
18460TIP3   OH276794   0.280   2.074  16.249  0.3176  0.5514  0.3158
18460TIP3    H176795   0.235   2.088  16.332  0.3070 -0.6917  0.5371
18460TIP3    H276796   0.276   1.980  16.235  3.9283  0.1667  0.9726
18461TIP3   OH276797   0.521   6.671  11.798 -0.6344 -0.5483  0.2132
18461TIP3    H176798   0.432   6.677  11.762 -0.3618  0.8033 -0.2989
18461TIP3    H276799   0.511   6.622  11.880 -1.7700 -0.8394 -0.0887
18462TIP3   OH276800   1.840   2.068   3.970 -0.7811  0.0301  0.5757
18462TIP3    H176801   1.851   2.117   4.052 -2.6234  0.2795  0.7284
18462TIP3    H276802   1.929   2.056   3.937 -0.0146  0.2526  2.4160
18463TIP3   OH276803   6.762   1.461   1.639  0.3361 -0.3661 -0.0597
18463TIP3    H176804   6.829   1.498   1.698  0.2771  0.5748 -0.5669
18463TIP3    H276805   6.766   1.367   1.655  0.2968 -0.1425  1.4888
18464TIP3   OH276806   5.876   5.270  16.600  0.0588  0.3524  0.1192
18464TIP3    H176807   5.808   5.203  16.603 -0.1191  0.4661 -0.9693
18464TIP3    H276808   5.958   5.221  16.594 -0.0561  0.2260 -0.4478
18465TIP3   OH276809   0.150   4.805  12.424 -0.8495 -0.2511  0.2769
18465TIP3    H176810   0.113   4.891  12.401  0.2179  0.6808  1.8061
18465TIP3    H276811   0.074   4.749  12.437 -1.5863  0.5460 -0.4230
18466TIP3   OH276812   2.806   5.103   3.173 -0.3145 -0.4664 -0.4222
18466TIP3    H176813   2.729   5.065   3.131  0.3041  1.4034 -3.5729
18466TIP3    H276814   2.873   5.034   3.166 -0.9417 -1.1176 -0.1251
18467TIP3   OH276815   4.895   6.397  14.635 -0.4263  0.1337 -0.1423
18467TIP3    H176816   4.865   6.357  14.717 -1.0990 -0.1151 -0.4976
18467TIP3    H276817   4.861   6.486  14.638 -0.0090  0.2875  0.0786
18468TIP3   OH276818   0.378   1.072  14.869 -0.1279  0.6188 -0.0133
18468TIP3    H176819   0.384   0.985  14.829  1.9426  0.8258 -0.2724
18468TIP3    H276820   0.315   1.062  14.940  0.0172 -1.0678 -0.0867
18469TIP3   OH276821   5.647   4.949   4.930 -0.5778  0.2597 -0.0911
18469TIP3    H176822   5.696   4.899   4.864 -0.4083 -0.4653  0.5777
18469TIP3    H276823   5.596   5.012   4.879  0.0819  0.1776 -0.8785
18470TIP3   OH276824   4.170   1.448  15.916 -0.4061  0.1770 -0.0208
18470TIP3    H176825   4.173   1.369  15.862  0.6972  0.2461 -0.0889
18470TIP3    H276826   4.078   1.456  15.942 -1.0810  0.3676 -2.2193
18471TIP3   OH276827   1.895   0.712  12.914  0.4305  0.3570 -0.3674
18471TIP3    H176828   1.960   0.783  12.911  0.6892  0.2533  1.5401
18471TIP3    H276829   1.821   0.749  12.962 -0.7547  0.2881 -2.0383
18472TIP3   OH276830   3.669   2.463   4.736 -0.2246  0.2856 -0.5499
18472TIP3    H176831   3.763   2.475   4.747 -0.5099  1.5395  0.8502
18472TIP3    H276832   3.658   2.368   4.733  0.9696  0.0714  0.6041
18473TIP3   OH276833   1.112   5.031  16.579 -0.0592 -0.0328  0.0663
18473TIP3    H176834   1.197   5.019  16.621 -1.8586 -2.2902  3.4451
18473TIP3    H276835   1.089   4.945  16.544 -1.5853  0.1131  0.6061
18474TIP3   OH276836   5.568   6.324   0.696  0.1426  0.3074  0.4203
18474TIP3    H176837   5.542   6.253   0.753 -0.7107 -0.4939 -0.9191
18474TIP3    H276838   5.598   6.393   0.756  0.3236 -0.8858  1.7644
18475TIP3   OH276839   2.700   1.402  16.255  0.7030 -0.1171  0.2711
18475TIP3    H176840   2.754   1.478  16.234 -0.1570  0.3888 -0.1816
18475TIP3    H276841   2.610   1.436  16.253  0.2355 -1.3802 -0.9982
18476TIP3   OH276842   1.702   2.308   5.822  0.1598 -0.2951  0.0511
18476TIP3    H176843   1.762   2.383   5.818 -1.6372  1.2812  0.9765
18476TIP3    H276844   1.663   2.304   5.734 -1.0743  1.0922  0.4860
18477TIP3   OH276845   5.281   6.599   1.729 -0.3841 -0.3376  0.5516
18477TIP3    H176846   5.376   6.594   1.723 -0.2168 -1.0090  2.7703
18477TIP3    H276847   5.251   6.593   1.638  1.6165 -2.1291 -0.0892
18478TIP3   OH276848   1.130   2.062  16.273 -0.0330  0.3165  0.0359
18478TIP3    H176849   1.070   2.090  16.203 -0.7459  0.4126  0.6698
18478TIP3    H276850   1.213   2.104  16.251 -0.2163  0.2585 -0.8132
18479TIP3   OH276851   5.501   3.824   3.610  0.4319  0.0024 -0.9081
18479TIP3    H176852   5.465   3.736   3.625 -0.0705  0.4283  0.5425
18479TIP3    H276853   5.425   3.882   3.610  0.8945  0.6325 -0.1243
18480TIP3   OH276854   3.920   2.544  12.963 -0.1601 -0.3262 -0.1091
18480TIP3    H176855   3.898   2.463  13.008  0.3111 -0.5266 -0.2318
18480TIP3    H276856   3.842   2.565  12.911 -0.6443 -0.1748  0.6681
18481TIP3   OH276857   0.264   1.101   4.349 -0.6005  0.1594  0.0035
18481TIP3    H176858   0.318   1.024   4.331 -1.6307 -0.3420 -1.1008
18481TIP3    H276859   0.271   1.114   4.444  1.6571  0.3006 -0.1402
18482TIP3   OH276860   4.697   5.209  14.180 -0.0480  0.1936 -0.3679
18482TIP3    H176861   4.788   5.233  14.194 -0.0907 -0.1569  0.5678
18482TIP3    H276862   4.701   5.131  14.125  0.1727  0.7356 -1.1399
18483TIP3   OH276863   4.187   5.329  14.419 -0.3214 -0.4463 -0.4013
18483TIP3    H176864   4.133   5.392  14.466  0.3523 -0.2774  0.1752
18483TIP3    H276865   4.154   5.244  14.447  0.9275 -0.3825  1.5025
18484TIP3   OH276866   4.805   3.508  12.913  0.4446 -0.4584  0.0959
18484TIP3    H176867   4.731   3.567  12.897 -0.6117 -0.8124  3.0010
18484TIP3    H276868   4.875   3.564  12.945  0.6694 -0.4033 -0.4743
18485TIP3   OH276869   1.119   0.454  11.239  0.5878 -0.0886  0.0639
18485TIP3    H176870   1.172   0.381  11.208 -0.3806  0.1691 -2.4893
18485TIP3    H276871   1.133   0.523  11.174 -2.2140  0.2429 -0.3220
18486TIP3   OH276872   6.588   3.599   2.787  0.3056 -0.2526  0.1689
18486TIP3    H176873   6.591   3.633   2.698  0.1606 -0.1136  0.2184
18486TIP3    H276874   6.547   3.668   2.838  0.6665 -0.2065  0.4025
18487TIP3   OH276875   2.907   3.604  16.532 -0.6448  0.3607  0.2440
18487TIP3    H176876   2.925   3.511  16.542  1.3658  0.4973 -1.4865
18487TIP3    H276877   2.942   3.644  16.612  0.0381 -0.2026  0.2341
18488TIP3   OH276878   5.980   5.550  12.937  0.0756 -0.9551  0.2330
18488TIP3    H176879   5.920   5.569  13.009  0.0837  0.7479 -0.1628
18488TIP3    H276880   5.923   5.537  12.861  0.1647  0.7168 -0.1545
18489TIP3   OH276881   6.018   0.517   3.037 -0.2806 -0.2409  0.3944
18489TIP3    H176882   5.963   0.562   2.972  0.4017 -0.0321 -0.0457
18489TIP3    H276883   5.956   0.490   3.105 -0.9044  0.1597  0.0040
18490TIP3   OH276884   2.401   3.257  14.571 -0.8625  0.5617 -0.0980
18490TIP3    H176885   2.463   3.246  14.643 -0.7614  2.3308  0.1203
18490TIP3    H276886   2.414   3.347  14.541 -0.4774 -0.2840 -2.7437
18491TIP3   OH276887   1.325   5.953  10.281  0.1871  0.2593 -0.5189
18491TIP3    H176888   1.256   5.888  10.266 -0.2990  0.3077  1.3045
18491TIP3    H276889   1.406   5.907  10.258 -0.0050 -1.5152  1.9729
18492TIP3   OH276890   0.425   1.131  13.459  0.0739  0.2995  0.0950
18492TIP3    H176891   0.479   1.056  13.435  0.3034 -0.1772  1.8998
18492TIP3    H276892   0.486   1.191  13.503 -0.5126  0.5708  0.5537
18493TIP3   OH276893   4.435   6.321   4.330 -0.5749  0.6606  0.1130
18493TIP3    H176894   4.369   6.322   4.399 -2.3285 -2.6775 -1.2976
18493TIP3    H276895   4.389   6.350   4.252  0.1994  0.2304 -0.5172
18494TIP3   OH276896   4.005   2.793   3.573  0.5384 -0.9061 -0.0823
18494TIP3    H176897   3.951   2.829   3.644 -0.1619 -0.1495 -0.9774
18494TIP3    H276898   4.088   2.840   3.580  0.2984 -0.4837 -0.0666
18495TIP3   OH276899   2.840   0.932  14.535 -0.0858 -0.1175 -0.2468
18495TIP3    H176900   2.908   0.970  14.590 -0.6011 -0.7848  0.8726
18495TIP3    H276901   2.792   0.873  14.592 -0.9244 -0.4978 -1.3001
18496TIP3   OH276902   4.373   2.717  14.224  0.0853  0.1919 -0.1393
18496TIP3    H176903   4.375   2.800  14.176  0.4325 -0.0378 -0.5233
18496TIP3    H276904   4.465   2.693  14.235 -0.0063 -0.0464  0.1443
18497TIP3   OH276905   6.672   6.174   5.291 -0.3196 -0.0144  0.2280
18497TIP3    H176906   6.727   6.252   5.284 -0.2920  0.0133  0.7215
18497TIP3    H276907   6.724   6.104   5.251 -0.1488  0.1206  0.2125
18498TIP3   OH276908   2.902   5.745  14.251  0.0364 -0.6189  0.2755
18498TIP3    H176909   2.837   5.678  14.271 -0.3658 -0.5819 -0.7978
18498TIP3    H276910   2.856   5.828  14.264 -0.7759 -0.5893 -2.2333
18499TIP3   OH276911   2.276   5.913  12.385  0.8255 -0.2481 -0.2410
18499TIP3    H176912   2.238   5.995  12.415 -0.1751 -0.4495 -0.9163
18499TIP3    H276913   2.234   5.846  12.440 -0.5087 -0.5543 -1.5603
18500TIP3   OH276914   1.632   1.796   5.511  0.3192 -0.0736  0.8938
18500TIP3    H176915   1.545   1.764   5.539 -0.2112  0.6116  0.0556
18500TIP3    H276916   1.647   1.873   5.565  0.4355 -0.2189  1.0717
18501TIP3   OH276917   6.155   1.473  13.801 -0.6208 -0.3153 -0.1601
18501TIP3    H176918   6.174   1.519  13.719 -1.5137  0.5580  0.0958
18501TIP3    H276919   6.165   1.381  13.780  0.7827 -0.0480 -0.8194
18502TIP3   OH276920   1.635   1.937  16.517 -0.2763  0.4959  0.0044
18502TIP3    H176921   1.718   1.971  16.484  0.0608 -0.4091 -0.0967
18502TIP3    H276922   1.588   1.908  16.439 -0.5670  0.7216  0.0901
18503TIP3   OH276923   0.888   5.202  17.055  0.2252 -0.1046 -0.1233
18503TIP3    H176924   0.904   5.128  16.997 -2.0518 -0.7990  0.0401
18503TIP3    H276925   0.871   5.275  16.995  0.6423 -0.1306 -0.2843
18504TIP3   OH276926   0.192   3.420   3.394  0.1135 -0.7437  0.2034
18504TIP3    H176927   0.131   3.353   3.425  0.1696 -0.0986  1.7881
18504TIP3    H276928   0.147   3.460   3.319 -1.4724 -0.2653  1.3477
18505TIP3   OH276929   3.846   1.187   1.251  0.1430 -0.3945  0.0582
18505TIP3    H176930   3.761   1.230   1.257  0.0693 -0.7035  1.4115
18505TIP3    H276931   3.836   1.106   1.301  1.0551 -0.7281 -0.2750
18506TIP3   OH276932   2.175   1.001  14.533  0.3558  1.0140  0.0780
18506TIP3    H176933   2.222   0.994  14.617  0.9379 -0.5963 -0.3401
18506TIP3    H276934   2.082   0.997  14.557  0.4145  2.9950  0.8127
18507TIP3   OH276935   1.820   6.482  11.641 -0.8356 -1.1908  0.3264
18507TIP3    H176936   1.901   6.534  11.637 -0.5318 -1.7549 -1.6955
18507TIP3    H276937   1.847   6.398  11.678 -0.6668 -1.0803  0.4545
18508TIP3   OH276938   0.697   0.386  15.690  0.4699 -0.8533 -0.0316
18508TIP3    H176939   0.784   0.419  15.666  0.8849  0.6843  3.0767
18508TIP3    H276940   0.642   0.412  15.616  1.7587  2.7199  0.0211
18509TIP3   OH276941   2.089   5.743  12.513 -0.4921 -0.0245 -0.1059
18509TIP3    H176942   2.116   5.658  12.549  0.8252  0.2621 -0.3575
18509TIP3    H276943   2.038   5.784  12.582 -0.8864 -0.8949  0.1306
18510TIP3   OH276944   1.207   2.690  15.179  0.0757  0.0535 -0.0044
18510TIP3    H176945   1.121   2.708  15.142 -0.8112 -0.4572  1.6737
18510TIP3    H276946   1.269   2.725  15.115 -1.3021 -1.3039 -2.2110
18511TIP3   OH276947   2.972   1.588   5.776 -0.2621  0.0703  0.3301
18511TIP3    H176948   3.001   1.635   5.698 -2.8201  0.5967 -0.4118
18511TIP3    H276949   3.043   1.599   5.839  3.1000 -2.4907 -2.5967
18512TIP3   OH276950   0.832   4.228   0.662  0.0319  0.3861 -0.3382
18512TIP3    H176951   0.745   4.206   0.695 -0.2058  0.8248 -0.6713
18512TIP3    H276952   0.821   4.313   0.620  0.3369 -0.1300 -1.4907
18513TIP3   OH276953   5.469   0.471  12.229  0.1257  0.2881  0.2753
18513TIP3    H176954   5.428   0.421  12.159  0.0517  0.8579 -0.1012
18513TIP3    H276955   5.489   0.556  12.189 -0.2368  0.7426  1.0366
18514TIP3   OH276956   0.621   3.066  16.562  0.1602  0.1974  0.1797
18514TIP3    H176957   0.625   3.122  16.485 -0.6310 -2.4995 -1.9672
18514TIP3    H276958   0.626   3.127  16.636  1.0830  2.9005 -1.9463
18515TIP3   OH276959   1.146   0.191   5.219  0.0557  0.1900 -0.0465
18515TIP3    H176960   1.078   0.241   5.174 -0.2281  1.5912  1.8254
18515TIP3    H276961   1.107   0.166   5.302  0.6852 -2.0148 -0.3418
18516TIP3   OH276962   2.601   1.428   0.164 -0.1608 -0.2788 -0.0343
18516TIP3    H176963   2.652   1.417   0.244 -0.8783  0.1815  0.4990
18516TIP3    H276964   2.601   1.523   0.148 -1.9900 -0.1001  0.7656
18517TIP3   OH276965   0.033   1.670  12.756  0.0870 -0.0267  0.4713
18517TIP3    H176966   0.087   1.595  12.783  1.1766  0.1979 -0.9690
18517TIP3    H276967   0.055   1.683  12.664 -1.8377  0.6127  0.0572
18518TIP3   OH276968   4.455   0.299  16.257 -0.8447  0.2518  0.1793
18518TIP3    H176969   4.493   0.257  16.334 -1.9343 -1.2676 -0.0643
18518TIP3    H276970   4.363   0.312  16.280 -0.7189  1.8440 -0.0632
18519TIP3   OH276971   3.283   5.255  12.560 -0.0539 -0.3752  0.6651
18519TIP3    H176972   3.336   5.179  12.582 -0.6661 -0.4780  1.8242
18519TIP3    H276973   3.200   5.219  12.529  0.1537 -0.1924 -0.1431
18520TIP3   OH276974   0.234   5.225  14.351  0.0170 -0.3461  0.1453
18520TIP3    H176975   0.298   5.159  14.376 -1.1543 -0.8092  2.1539
18520TIP3    H276976   0.171   5.179  14.295 -0.4008 -0.7634  0.9498
18521TIP3   OH276977   4.765   2.264   5.803  0.2326  0.3505 -0.1323
18521TIP3    H176978   4.789   2.323   5.732 -1.7622 -1.1318 -2.1367
18521TIP3    H276979   4.721   2.321   5.867 -1.7561  1.1253 -2.0517
18522TIP3   OH276980   0.858   3.895   2.388  0.0851  0.0372 -0.8588
18522TIP3    H176981   0.764   3.892   2.369 -0.0978 -1.0967  0.1312
18522TIP3    H276982   0.885   3.804   2.393  1.6068  0.3215 -2.6524
18523TIP3   OH276983   4.500   6.159  16.778  0.0585  0.1864 -0.4340
18523TIP3    H176984   4.480   6.203  16.695 -1.5342 -0.1320 -0.2616
18523TIP3    H276985   4.484   6.225  16.845  0.8458  0.2922 -0.3437
18524TIP3   OH276986   5.337   0.069  11.976 -0.0522 -0.2545 -0.0676
18524TIP3    H176987   5.260   0.079  12.032 -0.0415  0.5899 -0.1918
18524TIP3    H276988   5.313  -0.000  11.915 -0.4451 -0.4831  0.3388
18525TIP3   OH276989   4.637   6.467   4.733  0.7074 -0.0441 -0.3866
18525TIP3    H176990   4.651   6.457   4.639  1.0389 -0.5084 -0.2965
18525TIP3    H276991   4.614   6.379   4.763 -1.6734  0.5119 -0.3834
18526TIP3   OH276992   3.472   3.517   5.308 -0.1488 -0.3356  0.4865
18526TIP3    H176993   3.442   3.481   5.391 -1.9338  0.6862  0.3303
18526TIP3    H276994   3.465   3.612   5.318  1.2789 -0.1119 -0.2613
18527TIP3   OH276995   5.833   1.787   4.838  0.1155  0.1499 -0.2907
18527TIP3    H176996   5.841   1.859   4.901  0.2038 -0.8331  0.8717
18527TIP3    H276997   5.923   1.760   4.820  0.0529 -1.8811  1.9903
18528TIP3   OH276998   3.354   0.912  14.754  0.2114  0.6298  0.1653
18528TIP3    H176999   3.369   0.983  14.816 -1.2849  0.9396  0.2090
18528TIP3    H277000   3.384   0.834  14.799  0.2754  1.0116  0.7988
18529TIP3   OH277001   4.133   3.463   3.532  0.4924  0.5609  0.2463
18529TIP3    H177002   4.069   3.460   3.604  0.2374 -0.2952  0.0067
18529TIP3    H277003   4.105   3.392   3.474  0.2597  1.7119 -1.0782
18530TIP3   OH277004   2.339   4.407  16.785  0.3890 -0.2057 -0.0189
18530TIP3    H177005   2.252   4.384  16.753  0.3190 -0.7777  0.5649
18530TIP3    H277006   2.325   4.484  16.839  0.2113 -0.4368  0.2653
18531TIP3   OH277007   1.523   5.279  13.577 -0.6052 -0.1036 -0.2124
18531TIP3    H177008   1.585   5.226  13.628 -0.9203 -0.7785 -0.5203
18531TIP3    H277009   1.571   5.358  13.555  0.1159 -0.5757 -0.3602
18532TIP3   OH277010   5.023   0.171  14.275  0.1772  0.3459 -0.4640
18532TIP3    H177011   4.948   0.192  14.330  1.2230  2.9304  0.1503
18532TIP3    H277012   5.038   0.251  14.224  1.4631 -0.7123 -1.8134
18533TIP3   OH277013   6.291   0.542   1.311  0.8295  0.2620 -0.3722
18533TIP3    H177014   6.366   0.496   1.347  0.6520  0.9491  0.9342
18533TIP3    H277015   6.322   0.631   1.297  0.5569  0.2896 -0.8182
18534TIP3   OH277016   1.888   6.171   1.722 -0.1867  0.1635  1.1198
18534TIP3    H177017   1.801   6.204   1.742 -0.4113 -0.4187  1.0951
18534TIP3    H277018   1.914   6.219   1.643 -0.6440  0.0505  0.8981
18535TIP3   OH277019   0.565   4.599  16.611  0.2799 -0.1156  0.3758
18535TIP3    H177020   0.471   4.604  16.632  0.7896  0.2007  2.9850
18535TIP3    H277021   0.576   4.658  16.537 -1.4975  0.3480  0.4320
18536TIP3   OH277022   0.623   0.167  16.313  0.2080 -0.2330 -0.1275
18536TIP3    H177023   0.603   0.127  16.398 -0.7198  0.4766 -0.0021
18536TIP3    H277024   0.570   0.246  16.310  1.8897  0.9544 -0.4309
18537TIP3   OH277025   1.465   1.636   3.354  0.2446  0.5402 -0.1052
18537TIP3    H177026   1.470   1.587   3.272  0.6376  0.2444  0.0943
18537TIP3    H277027   1.529   1.594   3.411 -0.8499 -0.0181  0.7592
18538TIP3   OH277028   2.492   6.308  11.290 -0.1047 -0.1668  0.0211
18538TIP3    H177029   2.448   6.387  11.322  0.2120 -0.3752  0.9977
18538TIP3    H277030   2.428   6.267  11.232 -0.5577  0.4062  0.1014
18539TIP3   OH277031   1.584   3.923  15.625  0.0727  0.3969 -0.1079
18539TIP3    H177032   1.581   4.016  15.648 -4.6110  0.2439  0.9880
18539TIP3    H277033   1.622   3.880  15.701  0.3094  1.2275  0.2515
18540TIP3   OH277034   5.789   2.736   6.265  0.6543  0.2733  0.3836
18540TIP3    H177035   5.715   2.726   6.205  0.9962 -0.0936  0.0100
18540TIP3    H277036   5.840   2.656   6.253  1.6728  0.9771 -0.1655
18541TIP3   OH277037   1.741   4.580  11.598 -0.3607 -0.7693  0.0489
18541TIP3    H177038   1.759   4.494  11.637 -1.7800 -1.2449 -0.2704
18541TIP3    H277039   1.671   4.563  11.535 -0.8857  0.6757  0.2007
18542TIP3   OH277040   3.324   0.463   3.649 -0.0205 -0.3333  0.3083
18542TIP3    H177041   3.405   0.511   3.668  0.3730 -1.4568  1.5360
18542TIP3    H277042   3.329   0.444   3.555  1.6187 -1.2269  0.5426
18543TIP3   OH277043   1.412   0.771   5.569  0.1519  0.0686  0.3310
18543TIP3    H177044   1.375   0.683   5.563 -2.1803  0.8904  1.4264
18543TIP3    H277045   1.481   0.772   5.502  0.7404 -2.7665  0.7559
18544TIP3   OH277046   5.787   0.039  13.407 -0.2709  0.0369  0.5039
18544TIP3    H177047   5.725  -0.030  13.431  0.5253 -0.2098  1.9590
18544TIP3    H277048   5.864  -0.008  13.374  1.0267  0.0396  3.2369
18545TIP3   OH277049   2.230   4.966   1.431 -0.1736 -0.0879  0.0431
18545TIP3    H177050   2.315   4.959   1.388 -0.4596  0.0745 -0.5674
18545TIP3    H277051   2.237   5.046   1.483 -0.6174  1.0757 -1.6024
18546TIP3   OH277052   6.563   4.018   3.117  0.0779 -0.7884  0.4525
18546TIP3    H177053   6.648   4.032   3.159 -0.0770 -0.2719  0.5944
18546TIP3    H277054   6.521   4.104   3.117 -0.9468 -1.2563  1.4782
18547TIP3   OH277055   4.401   2.591   5.885  0.2446 -0.0290 -0.0741
18547TIP3    H177056   4.358   2.532   5.946  0.3422 -3.2694 -2.8108
18547TIP3    H277057   4.333   2.616   5.822  0.9908 -0.2187 -0.9890
18548TIP3   OH277058   5.216   5.071   0.800 -0.0638 -0.2541 -0.0490
18548TIP3    H177059   5.196   4.980   0.778 -0.6874 -0.4953  1.4065
18548TIP3    H277060   5.311   5.073   0.811 -0.2842 -1.5323  3.0541
18549TIP3   OH277061   2.405   4.440  13.992 -0.1896  0.0218 -0.1079
18549TIP3    H177062   2.478   4.386  14.021  0.4213  0.9555  0.1644
18549TIP3    H277063   2.336   4.378  13.968 -0.2644 -0.8223  2.1210
18550TIP3   OH277064   1.471   4.383  13.784 -0.0064  0.2030  0.8204
18550TIP3    H177065   1.460   4.380  13.689 -0.5072 -0.5481  0.8879
18550TIP3    H277066   1.566   4.384  13.797  0.0676  0.2572  0.3174
18551TIP3   OH277067   1.714   3.531  14.229  0.5486 -0.1209  0.6769
18551TIP3    H177068   1.800   3.524  14.188  0.6638 -0.1075  0.9190
18551TIP3    H277069   1.731   3.561  14.318  0.3081 -0.3063  0.7890
18552TIP3   OH277070   0.694   1.044   2.335 -0.6755  0.1091  0.3037
18552TIP3    H177071   0.623   1.100   2.303 -0.6686 -0.1822 -0.2265
18552TIP3    H277072   0.701   0.974   2.270  0.2518  0.2537  0.2335
18553TIP3   OH277073   1.171   5.324  13.836  0.5737 -0.2870 -0.6238
18553TIP3    H177074   1.164   5.306  13.742  1.1804 -0.8207 -0.5689
18553TIP3    H277075   1.211   5.246  13.873  1.8590  0.5610 -0.1496
18554TIP3   OH277076   2.034   6.389  12.877 -0.3761  0.3425 -0.2691
18554TIP3    H177077   2.044   6.392  12.782  0.3625  0.3987 -0.1980
18554TIP3    H277078   1.947   6.351  12.892  0.1376 -1.1380 -0.9433
18555TIP3   OH277079   0.472   2.766  12.531  0.0811 -0.4800  0.4317
18555TIP3    H177080   0.405   2.805  12.475  1.0351  1.5947  0.6371
18555TIP3    H277081   0.536   2.730  12.469  1.7602  2.8840 -0.0143
18556TIP3   OH277082   6.508   5.126   5.101 -0.1936 -0.2171  0.1352
18556TIP3    H177083   6.556   5.123   5.183 -0.7661  0.6513  0.5145
18556TIP3    H277084   6.432   5.181   5.119 -0.4056 -0.1284 -0.9340
18557TIP3   OH277085   2.782   6.060  12.910 -0.7091 -0.2627  0.0205
18557TIP3    H177086   2.710   5.998  12.920 -1.1192  0.1533 -0.2820
18557TIP3    H277087   2.844   6.017  12.852 -0.6980 -0.6357  0.3046
18558TIP3   OH277088   1.224   4.289  16.646  0.3779 -0.1640 -0.0761
18558TIP3    H177089   1.164   4.247  16.585 -0.4547 -0.0686  0.6477
18558TIP3    H277090   1.310   4.282  16.605 -0.1586 -0.1238 -1.2348
18559TIP3   OH277091   1.142   5.749  12.902  0.3946 -0.6733  1.0561
18559TIP3    H177092   1.088   5.803  12.958 -0.1022  1.1428 -1.0375
18559TIP3    H277093   1.094   5.665  12.897 -2.7481  1.0329 -1.2016
18560TIP3   OH277094   1.936   4.093   2.931  0.0696  0.1057 -0.5297
18560TIP3    H177095   1.915   4.006   2.963 -1.1782  0.1371 -1.1914
18560TIP3    H277096   1.868   4.150   2.968  0.6790  0.7427 -0.3651
18561TIP3   OH277097   1.032   0.300   3.502  0.2748  0.2419  0.3919
18561TIP3    H177098   1.013   0.340   3.587 -1.5977  0.8905 -0.2752
18561TIP3    H277099   1.058   0.373   3.446  0.4214 -0.0219  0.1120
18562TIP3   OH277100   0.140   3.484  16.260  0.4536 -0.1996 -0.1489
18562TIP3    H177101   0.187   3.433  16.193  1.1322 -2.2580  1.7793
18562TIP3    H277102   0.053   3.443  16.264  0.6867 -0.6206  0.7623
18563TIP3   OH277103   2.824   3.551  12.507  0.1727 -0.2720 -0.6595
18563TIP3    H177104   2.748   3.503  12.539 -0.3238  0.1734 -1.1517
18563TIP3    H277105   2.832   3.526  12.415 -0.0956  0.5684 -0.9242
18564TIP3   OH277106   2.869   2.019  13.151 -0.3248  0.0950  0.3131
18564TIP3    H177107   2.812   2.037  13.077  2.9595  2.3212 -1.9769
18564TIP3    H277108   2.938   1.964  13.116  1.5392  1.5115  1.5382
18565TIP3   OH277109   6.433   5.582  12.574  0.6765 -0.2250  0.3193
18565TIP3    H177110   6.511   5.528  12.560  0.3633 -1.0253  1.5198
18565TIP3    H277111   6.468   5.671  12.586  1.3372 -0.4347  0.0031
18566TIP3   OH277112   3.867   5.880   2.083 -0.0360 -0.7173  0.0015
18566TIP3    H177113   3.854   5.967   2.121  2.4765 -0.7583  1.1130
18566TIP3    H277114   3.846   5.819   2.155  1.1505 -0.9107  0.1983
18567TIP3   OH277115   0.204   2.419   5.636  0.3196 -0.7644  0.0392
18567TIP3    H177116   0.191   2.398   5.729  1.6069 -1.7665  0.0121
18567TIP3    H277117   0.116   2.423   5.600 -0.2305  0.1031  1.3959
18568TIP3   OH277118   1.687   1.911  12.698  0.2704 -0.3543 -0.5899
18568TIP3    H177119   1.602   1.905  12.742 -0.7487  0.1057 -2.3644
18568TIP3    H277120   1.727   1.990  12.734 -0.4495 -0.0961 -0.3396
18569TIP3   OH277121   4.172   5.188   2.669  0.3378  0.2814  0.1760
18569TIP3    H177122   4.217   5.106   2.646 -2.1162 -1.0107 -0.4214
18569TIP3    H277123   4.154   5.179   2.763  1.2158  0.7745  0.4037
18570TIP3   OH277124   2.047   2.609   2.787 -0.0840  0.4002  0.3194
18570TIP3    H177125   2.135   2.621   2.752 -1.3150  1.6517 -2.7150
18570TIP3    H277126   2.020   2.697   2.812 -0.4452 -0.0052  1.4078
18571TIP3   OH277127   0.220   5.594  16.068 -0.0112  0.3588  0.3109
18571TIP3    H177128   0.134   5.562  16.095  0.4917 -1.3461  0.0397
18571TIP3    H277129   0.281   5.532  16.107  0.8932 -0.4417 -2.1580
18572TIP3   OH277130   5.329   4.939  12.765 -0.6210  0.0092  0.1371
18572TIP3    H177131   5.312   4.866  12.705  3.5531 -1.6021  0.5507
18572TIP3    H277132   5.292   5.015  12.721  2.1115 -1.0101 -4.7186
18573TIP3   OH277133   0.616   6.402  13.202 -1.0599 -0.0953 -0.0834
18573TIP3    H177134   0.570   6.454  13.135 -0.1331  0.7842 -0.0644
18573TIP3    H277135   0.665   6.337  13.151  0.0794  0.9191 -0.3355
18574TIP3   OH277136   4.941   5.949   2.810 -0.1739 -0.1378  0.0978
18574TIP3    H177137   4.894   5.881   2.762  1.1830 -1.3721  0.4604
18574TIP3    H277138   5.030   5.914   2.821  0.6138  1.7700  0.1503
18575TIP3   OH277139   2.437   6.514  15.658  0.0015 -0.3605 -0.1420
18575TIP3    H177140   2.352   6.558  15.652 -0.1636 -0.7862 -1.2049
18575TIP3    H277141   2.501   6.582  15.635  0.0975  0.3101  1.8877
18576TIP3   OH277142   6.572   6.667   1.688 -0.3904  0.4713 -0.2136
18576TIP3    H177143   6.533   6.587   1.722  1.1200  0.6364  2.1422
18576TIP3    H277144   6.643   6.637   1.631 -1.6535  0.1737 -1.6601
18577TIP3   OH277145   3.733   3.480   1.836 -0.2893 -0.8658  0.1745
18577TIP3    H177146   3.821   3.464   1.871 -0.1735 -0.7097 -0.0467
18577TIP3    H277147   3.742   3.471   1.742 -0.6632 -1.5558  0.1951
18578TIP3   OH277148   2.036   0.176   3.163 -0.1619  0.1165 -0.1779
18578TIP3    H177149   2.085   0.094   3.158 -0.7773 -0.3984  1.5624
18578TIP3    H277150   1.972   0.170   3.092  1.0266 -0.0312 -1.2802
18579TIP3   OH277151   2.023   5.413  13.923  0.2462 -0.4825  0.2660
18579TIP3    H177152   2.108   5.415  13.880  0.7648  1.4669  1.2812
18579TIP3    H277153   1.959   5.413  13.852  1.0878  0.0484 -0.5007
18580TIP3   OH277154   6.238   3.976   1.793  0.4477 -0.2808  0.0795
18580TIP3    H177155   6.202   4.024   1.718 -0.6416 -2.4172 -0.8664
18580TIP3    H277156   6.313   4.028   1.821  0.6516  0.8207 -2.2444
18581TIP3   OH277157   1.111   6.344   0.203  0.2229  0.2749  0.2953
18581TIP3    H177158   1.020   6.361   0.181  0.1685 -1.0731 -0.6734
18581TIP3    H277159   1.150   6.431   0.212 -0.9436  0.8764 -0.1761
18582TIP3   OH277160   0.342   4.239  14.389  0.1139 -0.1864  0.8717
18582TIP3    H177161   0.356   4.153  14.427  0.3184  0.8550  3.3163
18582TIP3    H277162   0.418   4.253  14.332  0.9098 -0.9715  1.7144
18583TIP3   OH277163   0.162   1.369   3.901  0.3814  0.1182 -0.0861
18583TIP3    H177164   0.146   1.334   3.989  0.4377  1.2460  0.3939
18583TIP3    H277165   0.243   1.419   3.910  0.3369  0.3203 -0.7586
18584TIP3   OH277166   5.336   2.215  13.773 -0.0144 -0.0977  0.2531
18584TIP3    H177167   5.412   2.273  13.777  0.0461 -0.1085 -0.5847
18584TIP3    H277168   5.273   2.262  13.718 -0.2265 -0.5237  0.1280
18585TIP3   OH277169   1.151   5.654   3.563 -0.6179 -0.1229 -0.4004
18585TIP3    H177170   1.151   5.625   3.472  1.4820 -0.1247 -0.4538
18585TIP3    H277171   1.191   5.582   3.611 -2.2876 -0.3859  0.6560
18586TIP3   OH277172   2.098   5.069   3.643  0.3173 -0.2176  0.0649
18586TIP3    H177173   2.141   4.994   3.602  0.2940 -0.1683 -0.0491
18586TIP3    H277174   2.076   5.127   3.570  2.0047  0.7861  0.2895
18587TIP3   OH277175   5.342   4.018  13.186  0.5149 -0.8199 -0.1365
18587TIP3    H177176   5.280   3.949  13.209 -3.1172  1.5847 -1.7534
18587TIP3    H277177   5.347   4.014  13.090 -0.3043  1.4235 -0.3340
18588TIP3   OH277178   6.136   1.071   2.984 -0.0930 -0.3410 -0.0255
18588TIP3    H177179   6.086   1.153   2.982  1.1310  0.4149 -0.6586
18588TIP3    H277180   6.085   1.012   2.928 -0.9091  0.0136  0.3168
18589TIP3   OH277181   0.151   5.447  16.650 -0.5345 -0.5153 -0.2987
18589TIP3    H177182   0.141   5.368  16.596  0.7734  0.9219 -2.8073
18589TIP3    H277183   0.079   5.442  16.713 -1.6730 -2.7061 -1.6553
18590TIP3   OH277184   1.695   6.244  14.263 -0.0743  0.0683 -0.5721
18590TIP3    H177185   1.685   6.167  14.208  0.1270  1.1348 -2.1479
18590TIP3    H277186   1.749   6.304  14.212 -0.8359  1.5552  0.2965
18591TIP3   OH277187   3.535   0.264  17.047  0.5394  0.1006  0.1426
18591TIP3    H177188   3.549   0.224  17.133 -0.1686 -1.4082 -0.4193
18591TIP3    H277189   3.624   0.281  17.014  0.8320 -0.1115  0.7944
18592TIP3   OH277190   6.186   3.767   1.396  0.0545 -0.2677  0.1341
18592TIP3    H177191   6.149   3.797   1.479 -0.5030 -1.9966  0.5553
18592TIP3    H277192   6.152   3.828   1.330 -0.9892  0.0260  0.9308
18593TIP3   OH277193   5.861   4.404  14.998 -0.2274  0.1327  0.2753
18593TIP3    H177194   5.811   4.484  15.008  0.6662  0.5486  1.7150
18593TIP3    H277195   5.927   4.425  14.931  0.6329  0.9462  1.3512
18594TIP3   OH277196   3.407   1.628   2.195 -0.3883  0.3652  0.4638
18594TIP3    H177197   3.417   1.705   2.251 -0.8470  2.8996 -2.6749
18594TIP3    H277198   3.343   1.655   2.129  1.5844 -1.6260 -2.4817
18595TIP3   OH277199   4.150   1.211  17.078  0.1275 -0.2328  0.0524
18595TIP3    H177200   4.101   1.240  17.002  1.0431  0.6975 -0.2042
18595TIP3    H277201   4.104   1.249  17.153 -1.8535 -2.6184  0.1846
18596TIP3   OH277202   3.643   6.604   4.951  0.0368 -0.6234 -0.4729
18596TIP3    H177203   3.699   6.548   4.898 -0.1068  0.1190 -1.4274
18596TIP3    H277204   3.624   6.551   5.029  1.2764 -1.2472 -0.5637
18597TIP3   OH277205   6.516   1.493   6.128  0.0148  0.0515  0.5974
18597TIP3    H177206   6.532   1.514   6.220  2.5747 -1.5083  0.6112
18597TIP3    H277207   6.486   1.402   6.130  0.0323  0.0276 -0.1208
18598TIP3   OH277208   4.157   1.932   4.826  0.0705 -0.1141 -0.0001
18598TIP3    H177209   4.165   2.002   4.890  0.3941  0.7636 -0.9787
18598TIP3    H277210   4.114   1.861   4.874 -0.9764  1.0215  0.8020
18599TIP3   OH277211   5.831   4.292  17.037 -0.0901  0.0599 -0.6779
18599TIP3    H177212   5.740   4.278  17.065  0.5718 -0.4835  1.3281
18599TIP3    H277213   5.857   4.208  16.998 -0.2397  0.0016 -0.6537
18600TIP3   OH277214   2.042   0.056   2.623 -0.7829  0.2562  0.7586
18600TIP3    H177215   2.003  -0.024   2.590 -2.1605  0.0159  2.7724
18600TIP3    H277216   1.982   0.125   2.596 -1.1444  0.2275  1.4485
18601TIP3   OH277217   3.761   4.572  12.047  0.4574 -0.2452 -0.4126
18601TIP3    H177218   3.675   4.571  12.088  1.3949 -2.1076  1.6983
18601TIP3    H277219   3.769   4.660  12.009 -1.9320  0.3036  0.2333
18602TIP3   OH277220   1.838   6.366   1.123 -0.0811  0.0708  0.1895
18602TIP3    H177221   1.783   6.418   1.182  0.3719 -0.0270  0.7067
18602TIP3    H277222   1.906   6.330   1.180  0.6993  0.4515 -0.4949
18603TIP3   OH277223   6.732   3.122  15.969  0.6473  0.8669  0.0846
18603TIP3    H177224   6.688   3.037  15.975  1.6537  0.3835  1.2734
18603TIP3    H277225   6.824   3.102  15.988  0.6644  2.4081  2.0121
18604TIP3   OH277226   3.204   6.715   4.072 -0.2330  0.3715  0.2080
18604TIP3    H177227   3.281   6.748   4.119 -0.5744 -1.0384  1.8364
18604TIP3    H277228   3.133   6.771   4.103  0.1922  2.2371 -1.9375
18605TIP3   OH277229   1.120   3.611   4.046  0.4214  0.7509  0.3292
18605TIP3    H177230   1.177   3.612   3.969  1.1683 -1.9235  0.7170
18605TIP3    H277231   1.175   3.646   4.116  0.6992  0.5921  0.1938
18606TIP3   OH277232   5.700   5.460   5.731  0.1066 -0.2358 -0.1868
18606TIP3    H177233   5.790   5.427   5.726  0.3412  0.1319  1.2037
18606TIP3    H277234   5.647   5.391   5.690  0.6951 -1.9855  1.7962
18607TIP3   OH277235   5.264   0.956  14.318 -0.3228 -0.0154 -0.2963
18607TIP3    H177236   5.253   0.967  14.224  0.8215  1.2468 -0.3161
18607TIP3    H277237   5.283   0.862  14.329  2.7617  0.3155 -1.7329
18608TIP3   OH277238   6.355   6.415   5.299  0.2081  0.1170  0.0148
18608TIP3    H177239   6.265   6.414   5.265 -0.3687  1.3135  1.4246
18608TIP3    H277240   6.399   6.346   5.249 -1.1137  0.4098 -1.6823
18609TIP3   OH277241   5.793   4.442  16.426  0.3976  0.2436  0.5625
18609TIP3    H177242   5.769   4.383  16.355  0.1859  0.3437  0.5481
18609TIP3    H277243   5.888   4.446  16.423  0.5858 -1.9423  2.0676
18610TIP3   OH277244   3.062   2.197   5.272 -0.4180 -0.2846 -0.1341
18610TIP3    H177245   3.066   2.191   5.367 -0.4345 -1.8069 -0.1968
18610TIP3    H277246   3.153   2.195   5.244 -0.2637  2.4738 -0.1054
18611TIP3   OH277247   2.565   5.937   0.965 -0.4449  0.3356  0.5301
18611TIP3    H177248   2.561   5.891   0.881  0.4191 -0.2194  0.7808
18611TIP3    H277249   2.495   6.003   0.959  0.2525  1.0041 -1.0345
18612TIP3   OH277250   2.557   3.199  13.587  0.1680  0.4801 -0.0021
18612TIP3    H177251   2.555   3.283  13.633 -0.1768  0.2531  0.4143
18612TIP3    H277252   2.647   3.190  13.555  0.4949  0.5185  0.8837
18613TIP3   OH277253   5.232   1.119   2.188 -0.1905  0.1153  0.2365
18613TIP3    H177254   5.317   1.131   2.146 -0.2870  1.1312  0.3253
18613TIP3    H277255   5.194   1.207   2.194 -1.5776 -0.3973 -0.4819
18614TIP3   OH277256   6.280   6.024   2.872 -0.2814  0.0029  0.0815
18614TIP3    H177257   6.372   6.024   2.845  0.0173 -0.9556  1.0373
18614TIP3    H277258   6.233   5.997   2.793  0.2098  0.9253 -0.5375
18615TIP3   OH277259   4.725   1.722  14.820 -0.4241 -0.1471 -0.0526
18615TIP3    H177260   4.812   1.688  14.839  0.0765 -0.3257 -2.4457
18615TIP3    H277261   4.665   1.654  14.853  0.3860 -0.8495 -0.0049
18616TIP3   OH277262   6.575   4.789   2.470  0.5128  0.1499  0.1914
18616TIP3    H177263   6.657   4.815   2.512  0.5160 -2.0396  1.6452
18616TIP3    H277264   6.570   4.845   2.392  3.1309  0.6620  0.3080
18617TIP3   OH277265   2.293   5.445   6.048 -0.2095  0.2530 -0.3593
18617TIP3    H177266   2.370   5.392   6.029 -1.3217 -0.6268 -2.8977
18617TIP3    H277267   2.306   5.475   6.138  1.7923 -2.0661  0.2397
18618TIP3   OH277268   3.103   0.371   0.854  0.2523 -0.0398  0.8051
18618TIP3    H177269   3.017   0.403   0.881  1.0326  0.5845  2.7638
18618TIP3    H277270   3.085   0.300   0.794 -1.6011  2.0742 -1.3383
18619TIP3   OH277271   3.675   6.695  16.006 -0.3312 -0.5245  0.0269
18619TIP3    H177272   3.649   6.631  15.939  1.1798  0.3194 -1.4534
18619TIP3    H277273   3.755   6.659  16.044 -0.2001 -0.1466  0.1122
18620TIP3   OH277274   1.998   3.919  15.058  0.3045  0.3696  0.5216
18620TIP3    H177275   2.084   3.929  15.018 -0.4191  1.0317 -0.9464
18620TIP3    H277276   1.971   4.008  15.079 -0.7433  0.3560 -0.6558
18621TIP3   OH277277   6.253   6.785   6.097  0.2503  0.1400  0.2294
18621TIP3    H177278   6.226   6.698   6.069  0.4361 -0.0756  0.7033
18621TIP3    H277279   6.302   6.770   6.178 -0.0967  0.7255  0.5523
18622TIP3   OH277280   5.413   5.791  15.362 -0.1910 -0.3689 -0.7562
18622TIP3    H177281   5.319   5.811  15.368 -0.0307  0.7196 -1.5697
18622TIP3    H277282   5.416   5.712  15.307 -0.6542 -0.7117 -0.3040
18623TIP3   OH277283   5.222   0.950  14.768 -0.4141  0.2631  0.2976
18623TIP3    H177284   5.277   0.906  14.702 -0.3066  1.1369 -0.2040
18623TIP3    H277285   5.253   0.914  14.851 -1.0681 -1.4399 -0.1394
18624TIP3   OH277286   5.658   5.912  13.930 -0.2834  0.1877  0.2748
18624TIP3    H177287   5.684   5.833  13.976  1.1608  1.3544  1.5866
18624TIP3    H277288   5.612   5.881  13.852  0.4673 -1.9115  0.6106
18625TIP3   OH277289   3.128   2.736   2.191 -0.2421 -0.6346 -0.3159
18625TIP3    H177290   3.190   2.728   2.264  0.9915  1.5422 -1.0152
18625TIP3    H277291   3.068   2.805   2.217 -1.9325 -2.1371 -0.0207
18626TIP3   OH277292   6.232   2.020   2.309  0.4482  0.1655  0.3067
18626TIP3    H177293   6.158   1.961   2.295  1.4052 -1.2500  0.9766
18626TIP3    H277294   6.197   2.090   2.363 -0.2647 -0.8304  1.1751
18627TIP3   OH277295   6.182   4.020   5.083  0.5767 -0.5994  0.0922
18627TIP3    H177296   6.098   4.054   5.115  0.2102 -1.8373  0.4969
18627TIP3    H277297   6.224   3.983   5.161  0.9238 -1.1526 -0.3540
18628TIP3   OH277298   4.067   5.103   4.269  0.2064  0.2803 -0.0177
18628TIP3    H177299   4.068   5.087   4.175  0.1595 -2.1816  0.3109
18628TIP3    H277300   4.158   5.095   4.296  0.2654  1.3178  0.1166
18629TIP3   OH277301   5.190   5.374   2.510  0.1915  0.5923  0.3677
18629TIP3    H177302   5.183   5.378   2.415 -0.6911  1.8339  0.4518
18629TIP3    H277303   5.281   5.395   2.529 -0.1559  2.8631 -0.1490
18630TIP3   OH277304   2.931   5.630  15.660  0.0485 -0.1621  0.5011
18630TIP3    H177305   2.959   5.679  15.737 -2.2207  0.9804  0.6921
18630TIP3    H277306   2.852   5.585  15.688 -2.8076  2.8932 -1.8648
18631TIP3   OH277307   4.032   6.254   4.798  0.1559 -0.4338  0.6477
18631TIP3    H177308   4.084   6.199   4.856 -2.4664 -2.3664  1.3651
18631TIP3    H277309   4.032   6.207   4.714  1.8383  1.0531 -0.2625
18632TIP3   OH277310   5.179   2.147   6.451  0.6549  0.4111 -0.2059
18632TIP3    H177311   5.161   2.240   6.456  0.5009  0.3576  0.2753
18632TIP3    H277312   5.255   2.134   6.508  0.1804  0.1191  0.3694
18633TIP3   OH277313   3.425   5.423  15.393  0.5409 -0.0905 -0.0619
18633TIP3    H177314   3.518   5.448  15.392  1.2863 -1.9504  3.5430
18633TIP3    H277315   3.380   5.502  15.421  0.8954  0.9466 -2.2170
18634TIP3   OH277316   4.864   1.667  12.659 -0.4919 -0.2489 -0.1601
18634TIP3    H177317   4.933   1.631  12.714  1.0902 -2.4474 -3.3054
18634TIP3    H277318   4.786   1.614  12.679 -0.5483  0.3559  1.3448
18635TIP3   OH277319   2.499   5.241   0.210 -0.6722 -0.0578  0.6160
18635TIP3    H177320   2.426   5.267   0.153  0.2341 -0.4215 -0.7558
18635TIP3    H277321   2.500   5.307   0.279 -1.5797  0.6055  0.0239
18636TIP3   OH277322   4.331   3.790   3.748  0.2977  0.1705 -0.2664
18636TIP3    H177323   4.358   3.807   3.839 -0.7077  0.7844 -0.0731
18636TIP3    H277324   4.291   3.872   3.719  0.0897 -0.2083 -1.0812
18637TIP3   OH277325   5.756   5.591   3.310  0.0704 -0.5687  0.1761
18637TIP3    H177326   5.709   5.565   3.231 -0.5723 -1.8117  0.9425
18637TIP3    H277327   5.767   5.686   3.301 -0.4359 -0.6150 -1.1555
18638TIP3   OH277328   0.109   0.840  13.416  0.0990  0.3422 -0.1292
18638TIP3    H177329   0.187   0.842  13.473  0.4376 -0.5977 -0.5345
18638TIP3    H277330   0.041   0.801  13.471  0.5008 -0.8337 -0.4212
18639TIP3   OH277331   5.368   2.829   0.557  0.0356 -0.3730 -0.2905
18639TIP3    H177332   5.416   2.765   0.505  0.7557  0.6860 -0.9822
18639TIP3    H277333   5.382   2.802   0.648  0.1304 -1.3158 -0.5763
18640TIP3   OH277334   0.067   5.564   5.831  0.1477 -0.3450  0.1129
18640TIP3    H177335   0.163   5.562   5.832  0.2829  1.5301 -1.9247
18640TIP3    H277336   0.044   5.532   5.744 -0.8935  1.9079 -0.5014
18641TIP3   OH277337   0.776   0.176   5.179  0.1755 -0.4244  0.9308
18641TIP3    H177338   0.784   0.136   5.266 -0.6209 -0.8972  0.7931
18641TIP3    H277339   0.790   0.103   5.118  3.4603  0.3359  0.5607
18642TIP3   OH277340   1.145   1.591  15.065 -0.9089 -0.4433 -0.2648
18642TIP3    H177341   1.077   1.550  15.012 -0.0968 -1.5452 -0.4907
18642TIP3    H277342   1.145   1.541  15.147 -0.6678 -0.1727 -0.0975
18643TIP3   OH277343   5.610   5.746  13.733 -0.5259  0.3372  0.0942
18643TIP3    H177344   5.523   5.726  13.699 -0.9275 -1.4007  1.9573
18643TIP3    H277345   5.649   5.660  13.750  1.4361  1.0851 -0.3570
18644TIP3   OH277346   0.126   3.961   1.105 -0.2851 -0.3539 -0.1505
18644TIP3    H177347   0.215   3.968   1.069 -0.8071 -0.7736 -1.5974
18644TIP3    H277348   0.130   3.884   1.162  0.2399 -0.4732 -0.3357
18645TIP3   OH277349   4.442   4.920  13.491 -0.0561  0.8055 -0.1775
18645TIP3    H177350   4.400   4.868  13.560  1.5796 -1.9907 -1.1038
18645TIP3    H277351   4.505   4.975  13.537  1.9645 -1.9820  0.6241
18646TIP3   OH277352   4.615   4.273   1.088  0.1608  0.8096  0.2422
18646TIP3    H177353   4.664   4.245   1.010 -1.6265  1.4407 -1.1743
18646TIP3    H277354   4.601   4.367   1.075  0.6643  1.1340  1.8439
18647TIP3   OH277355   0.896   3.001   3.458 -0.6501  0.6824 -0.1405
18647TIP3    H177356   0.918   3.066   3.526  0.6728 -1.6041  1.7706
18647TIP3    H277357   0.802   2.986   3.469 -0.3318 -0.2249  1.8295
18648TIP3   OH277358   0.682   5.182   3.077  0.4512 -0.3606 -0.3730
18648TIP3    H177359   0.749   5.132   3.030  0.4153  0.1333 -0.9735
18648TIP3    H277360   0.615   5.117   3.099  0.4803 -0.6144 -0.9984
18649TIP3   OH277361   1.544   3.154  12.554 -0.1849  0.6325 -0.2477
18649TIP3    H177362   1.550   3.081  12.492  0.0706  0.2508  0.2235
18649TIP3    H277363   1.481   3.124  12.620  0.4777  0.5360  0.3459
18650TIP3   OH277364   3.811   5.352  15.380 -0.0833  0.4725  0.2027
18650TIP3    H177365   3.813   5.361  15.285  2.3516  2.5769  0.3393
18650TIP3    H277366   3.749   5.419  15.409  0.2091  0.7725  0.1419
18651TIP3   OH277367   3.872   2.770  13.145 -0.0539 -0.2667  0.1768
18651TIP3    H177368   3.807   2.834  13.115 -0.9108 -0.0906  2.1967
18651TIP3    H277369   3.861   2.695  13.087 -0.9776  0.3707 -0.5019
18652TIP3   OH277370   0.922   6.708  10.997 -0.5288 -0.6900  0.1079
18652TIP3    H177371   0.909   6.767  11.071  0.7075  0.1116 -0.2824
18652TIP3    H277372   0.855   6.734  10.933  0.6900  1.1210 -0.5273
18653TIP3   OH277373   4.272   6.531   1.628 -0.1092 -0.1401  0.8272
18653TIP3    H177374   4.348   6.524   1.570  1.1336 -0.0001  2.3562
18653TIP3    H277375   4.309   6.523   1.716 -1.9053 -0.1874  1.6126
18654TIP3   OH277376   5.608   0.379  15.506  0.2007  0.5501  0.4388
18654TIP3    H177377   5.615   0.469  15.476 -0.4720  0.0624 -1.3212
18654TIP3    H277378   5.689   0.337  15.477 -0.2797  0.1760 -0.4353
18655TIP3   OH277379   3.094   5.942   2.409  0.2181  0.1343  0.0004
18655TIP3    H177380   3.178   5.932   2.365  0.1126 -1.2373  0.0703
18655TIP3    H277381   3.112   5.998   2.485  1.2994 -1.0663  0.6493
18656TIP3   OH277382   2.208   3.460  13.865  0.3083 -0.3161  0.8820
18656TIP3    H177383   2.184   3.379  13.910  0.3399 -0.7779  0.0788
18656TIP3    H277384   2.235   3.519  13.936 -3.1545  0.2730  1.8656
18657TIP3   OH277385   0.650   6.145   1.191  0.0626 -0.0132 -0.4146
18657TIP3    H177386   0.665   6.190   1.108 -1.6580 -0.9850 -1.2975
18657TIP3    H277387   0.696   6.062   1.183  0.4172  0.1522 -0.1318
18658TIP3   OH277388   2.894   5.703  16.325 -0.0861  0.3602 -0.4115
18658TIP3    H177389   2.887   5.702  16.420 -0.0242 -2.9594 -0.3286
18658TIP3    H277390   2.808   5.730  16.294 -0.9846 -1.1844  0.6317
18659TIP3   OH277391   3.596   6.296   2.008 -0.5303  0.0755 -0.1269
18659TIP3    H177392   3.689   6.315   2.012 -0.4788 -0.3335  2.0307
18659TIP3    H277393   3.577   6.285   1.915  1.1328  2.1281 -0.7705
18660TIP3   OH277394   0.391   3.738  12.123 -0.1953  0.0182 -0.1368
18660TIP3    H177395   0.318   3.756  12.182 -0.2465  0.3210 -0.2933
18660TIP3    H277396   0.365   3.659  12.076 -0.7251  0.5035 -0.6800
18661TIP3   OH277397   6.670   2.222  14.815 -0.2494 -0.6365 -0.4165
18661TIP3    H177398   6.619   2.194  14.891  0.0867  0.1627  0.1091
18661TIP3    H277399   6.727   2.147  14.797  0.0262 -0.6512  0.4411
18662TIP3   OH277400   1.617   2.744  14.126 -0.3236  0.1269  0.0398
18662TIP3    H177401   1.554   2.772  14.192 -1.3875  0.1341 -0.9502
18662TIP3    H277402   1.585   2.783  14.045  1.1234  0.3558 -0.4365
18663TIP3   OH277403   6.036   3.463  14.883  0.1113  0.2037 -0.1090
18663TIP3    H177404   5.997   3.544  14.850 -1.1955 -1.0442 -1.8357
18663TIP3    H277405   5.961   3.403  14.894  1.1912 -1.2795 -0.4598
18664TIP3   OH277406   2.697   4.870  12.786  0.1530 -0.3942  0.6431
18664TIP3    H177407   2.624   4.815  12.758 -1.1807  0.9333  1.3725
18664TIP3    H277408   2.709   4.848  12.879 -0.6430  0.7747  1.0405
18665TIP3   OH277409   4.014   1.022   2.080 -0.0368 -0.5823  0.0036
18665TIP3    H177410   4.087   0.963   2.062 -0.2429 -0.7601 -0.2520
18665TIP3    H277411   4.050   1.088   2.139  0.4639 -0.3815 -0.5250
18666TIP3   OH277412   2.119   3.783  12.414 -0.1454  0.0230  0.1585
18666TIP3    H177413   2.193   3.729  12.386 -1.3414 -0.9781 -1.2403
18666TIP3    H277414   2.058   3.721  12.454 -1.6537  0.2065 -1.6960
18667TIP3   OH277415   0.506   5.463   0.540  0.1371  0.2490 -0.2154
18667TIP3    H177416   0.468   5.545   0.509  0.6046  0.0866 -1.2652
18667TIP3    H277417   0.488   5.400   0.470  1.3723 -0.0894 -0.2612
18668TIP3   OH277418   1.085   0.979   0.724  0.5371  0.5517 -0.2254
18668TIP3    H177419   1.094   1.073   0.741  0.2376  0.5918 -0.2890
18668TIP3    H277420   1.093   0.971   0.629  0.4896  0.5181 -0.2261
18669TIP3   OH277421   6.336   6.292  12.193  0.6759  0.5518  0.0553
18669TIP3    H177422   6.354   6.200  12.213 -2.9474 -0.2771  0.1743
18669TIP3    H277423   6.374   6.306  12.106  0.8787 -1.2267 -0.1740
18670TIP3   OH277424   2.902   5.679   1.298 -0.0619  0.0809  0.0220
18670TIP3    H177425   2.925   5.766   1.265  0.5662 -0.6554 -1.6114
18670TIP3    H277426   2.921   5.620   1.224 -1.9732 -1.2453  0.5165
18671TIP3   OH277427   2.723   5.373  11.891  0.8344  0.3059  0.1157
18671TIP3    H177428   2.771   5.445  11.934 -1.2604  0.6318  2.1433
18671TIP3    H277429   2.646   5.359  11.947 -0.2378 -1.7252 -1.7054
18672TIP3   OH277430   2.438   6.727  11.604 -0.1668 -0.1708  0.4699
18672TIP3    H177431   2.377   6.798  11.626  1.4536  1.1366  0.9781
18672TIP3    H277432   2.522   6.756  11.640  0.6916 -2.0673  0.0998
18673TIP3   OH277433   0.189   6.122  13.816 -0.3044 -0.4706 -0.4238
18673TIP3    H177434   0.254   6.188  13.840  0.8024 -1.7682  0.3445
18673TIP3    H277435   0.197   6.055  13.884 -2.2221 -0.8507 -0.5154
18674TIP3   OH277436   2.202   5.498  16.579 -0.3880  0.4783  0.1007
18674TIP3    H177437   2.259   5.430  16.541 -0.0713  0.7577  0.0706
18674TIP3    H277438   2.254   5.578  16.574 -1.0950  0.9094 -0.6756
18675TIP3   OH277439   0.368   6.276   3.497 -0.0623 -0.5491 -0.1619
18675TIP3    H177440   0.349   6.369   3.485 -0.3309 -0.6638 -0.6728
18675TIP3    H277441   0.379   6.242   3.408  0.6824 -0.8756  0.0437
18676TIP3   OH277442   1.301   1.293   1.402 -0.7810 -0.0427  0.2065
18676TIP3    H177443   1.218   1.331   1.429 -0.7198  0.5090 -0.3637
18676TIP3    H277444   1.286   1.263   1.312 -0.8636 -1.4941  0.6780
18677TIP3   OH277445   6.301   6.695  16.280 -0.3595  0.2119 -0.1085
18677TIP3    H177446   6.211   6.665  16.267 -0.9055  1.7443 -0.0254
18677TIP3    H277447   6.349   6.616  16.307 -2.2620 -0.1309  2.6621
18678TIP3   OH277448   0.225   3.242   4.991  0.6597 -0.1614  0.4218
18678TIP3    H177449   0.170   3.312   4.956  0.7598  0.3915  1.3386
18678TIP3    H277450   0.311   3.283   5.003  1.3124 -1.0259 -1.0412
18679TIP3   OH277451   1.562   0.802   1.891 -0.3697 -0.3916 -0.8493
18679TIP3    H177452   1.644   0.840   1.922 -0.1277 -0.9007 -0.8533
18679TIP3    H277453   1.495   0.839   1.949 -0.1883  0.3274 -1.0973
18680TIP3   OH277454   6.437   0.411  12.110  0.3962 -0.0951  0.3188
18680TIP3    H177455   6.504   0.479  12.109 -1.4239  1.8501 -1.9840
18680TIP3    H277456   6.371   0.444  12.171 -0.3694  0.1168 -0.5972
18681TIP3   OH277457   3.212   6.465  11.224  0.0316  0.1747  0.7877
18681TIP3    H177458   3.167   6.437  11.144  0.3526 -0.1372  0.7148
18681TIP3    H277459   3.298   6.422  11.219  0.9044  1.8742  0.2243
18682TIP3   OH277460   1.712   1.666  11.430 -0.3132 -0.0693 -0.2348
18682TIP3    H177461   1.648   1.727  11.469  1.2613  1.6474 -0.1917
18682TIP3    H277462   1.772   1.646  11.501  0.5513  0.2650 -0.8501
18683TIP3   OH277463   0.847   3.265   2.602 -0.1377 -0.0260 -0.7844
18683TIP3    H177464   0.783   3.243   2.670 -0.4638 -0.8771 -1.3649
18683TIP3    H277465   0.919   3.203   2.615 -0.3526 -0.4111 -1.4287
18684TIP3   OH277466   2.373   1.595  13.685 -0.6402 -0.3686 -0.5508
18684TIP3    H177467   2.338   1.515  13.645 -1.5438  0.0573 -0.6217
18684TIP3    H277468   2.321   1.666  13.647  0.5909  0.3361 -1.0011
18685TIP3   OH277469   0.016   5.035  15.229  0.3186  0.4926 -0.1129
18685TIP3    H177470   0.107   5.064  15.225  0.4393  0.0071 -1.1162
18685TIP3    H277471   0.019   4.942  15.206 -0.4533  0.5192 -0.3633
18686TIP3   OH277472   2.360   5.739   1.654  0.0895  0.9968 -0.0098
18686TIP3    H177473   2.306   5.699   1.586  0.0046  1.7340 -0.3859
18686TIP3    H277474   2.307   5.813   1.685  0.4104  1.0550  0.3982
18687TIP3   OH277475   5.648   2.818  14.332 -0.0667  0.0889  0.6065
18687TIP3    H177476   5.712   2.890  14.329 -0.5043  0.5161  1.3686
18687TIP3    H277477   5.667   2.766  14.253  0.1667  1.1077 -0.0276
18688TIP3   OH277478   2.885   4.790  11.894  0.6838 -0.6902  0.0360
18688TIP3    H177479   2.795   4.820  11.905  0.7592 -0.6791  0.6468
18688TIP3    H277480   2.926   4.805  11.979  0.6005 -2.8925  0.5456
18689TIP3   OH277481   6.680   6.091  16.880 -0.2532  0.3881 -0.0497
18689TIP3    H177482   6.763   6.090  16.928 -1.1390  0.4196  1.5443
18689TIP3    H277483   6.663   5.999  16.861  0.4517  0.4340 -0.9598
18690TIP3   OH277484   0.346   0.743  12.061 -0.2962  0.3193 -0.0091
18690TIP3    H177485   0.347   0.743  11.965  0.1750  2.3105 -0.0523
18690TIP3    H277486   0.292   0.667  12.084 -0.1414 -0.4107 -1.8280
18691TIP3   OH277487   6.765   2.365  17.191  0.1452 -0.5573 -0.0980
18691TIP3    H177488   6.688   2.420  17.187 -1.2028 -2.1977  1.3597
18691TIP3    H277489   6.815   2.386  17.112 -0.0590  2.9297  0.5613
18692TIP3   OH277490   6.004   3.330   4.604 -0.0039  0.4103  0.1857
18692TIP3    H177491   5.939   3.359   4.668  0.7387  1.0864  0.6668
18692TIP3    H277492   6.041   3.250   4.642 -0.2349  0.2802  0.1360
18693TIP3   OH277493   3.746   3.431   0.119 -0.2315 -0.2761  0.1790
18693TIP3    H177494   3.682   3.473   0.062  1.5177  0.3781 -1.4081
18693TIP3    H277495   3.766   3.497   0.186  0.9167  0.6682 -1.0530
18694TIP3   OH277496   2.559   0.751   3.707 -0.2607  0.2800  0.4396
18694TIP3    H177497   2.502   0.703   3.767  0.6812  0.6391  1.6768
18694TIP3    H277498   2.616   0.802   3.765  2.7226 -1.6131 -0.6041
18695TIP3   OH277499   0.562   2.409   5.186  0.0069  0.7570  0.2558
18695TIP3    H177500   0.551   2.324   5.145  1.8596 -0.1600  1.5219
18695TIP3    H277501   0.605   2.463   5.119  2.8768 -0.6732  0.8132
18696TIP3   OH277502   5.117   2.491   5.386 -0.1703 -0.4013 -0.6234
18696TIP3    H177503   5.182   2.560   5.370  1.4839 -1.0932  2.3926
18696TIP3    H277504   5.059   2.528   5.452 -0.3337 -1.2907 -0.2640
18697TIP3   OH277505   0.966   4.117   1.707  0.3678  0.4739 -0.4142
18697TIP3    H177506   0.993   4.208   1.714 -1.6593  1.1475 -0.5309
18697TIP3    H277507   0.950   4.089   1.797 -0.3087  0.7001 -0.4522
18698TIP3   OH277508   0.338   1.753  11.849  0.1467 -0.1838  0.2058
18698TIP3    H177509   0.406   1.686  11.855  1.8839  1.5669  1.2162
18698TIP3    H277510   0.312   1.768  11.940 -1.2743 -0.4404 -0.1226
18699TIP3   OH277511   5.842   4.660  13.838  0.0169 -0.0981  0.3833
18699TIP3    H177512   5.786   4.619  13.772  1.2809 -1.1817 -0.0701
18699TIP3    H277513   5.898   4.588  13.869  1.1313  0.9399  0.8343
18700TIP3   OH277514   2.092   0.863  14.094  0.8472  0.1387 -0.9650
18700TIP3    H177515   2.158   0.817  14.146  0.9183  1.1491 -0.1189
18700TIP3    H277516   2.046   0.918  14.157  0.1844  0.5688 -1.7976
18701TIP3   OH277517   0.267   4.368   4.854 -0.7928 -0.1627 -0.0219
18701TIP3    H177518   0.310   4.388   4.937  0.1907  0.7249 -0.7095
18701TIP3    H277519   0.284   4.275   4.840 -1.3805 -0.4368  0.9903
18702TIP3   OH277520   5.973   1.996   2.241  0.0319 -0.1158  0.1822
18702TIP3    H177521   5.903   1.998   2.307  0.2381 -1.1226  0.4518
18702TIP3    H277522   5.943   2.056   2.173  0.3522  1.8541  1.7080
18703TIP3   OH277523   6.476   4.747  12.810  0.2237 -0.1626  0.1448
18703TIP3    H177524   6.386   4.759  12.840 -0.0433 -0.6044 -0.4607
18703TIP3    H277525   6.528   4.803  12.868 -0.3382 -0.5594  1.0585
18704TIP3   OH277526   6.649   0.425  15.619  0.0257 -0.6101 -0.2635
18704TIP3    H177527   6.566   0.414  15.665  0.0446  1.3530  0.3501
18704TIP3    H277528   6.715   0.385  15.676 -0.2347 -0.1885  0.3408
18705TIP3   OH277529   3.254   5.900  16.475 -0.2234 -0.0452  0.5183
18705TIP3    H177530   3.258   5.932  16.385 -0.6161  0.8062  0.7857
18705TIP3    H277531   3.161   5.900  16.496 -0.0447  1.4544  1.4821
18706TIP3   OH277532   2.607   3.754   4.046 -0.0479  0.4799  0.0635
18706TIP3    H177533   2.696   3.723   4.029  0.0955  0.8706  0.0876
18706TIP3    H277534   2.562   3.747   3.961 -0.7802 -2.1853  0.5856
18707TIP3   OH277535   2.131   5.151  16.363 -0.5290  0.8835 -0.0482
18707TIP3    H177536   2.177   5.106  16.434 -0.6596 -0.4343 -0.7588
18707TIP3    H277537   2.199   5.165  16.296 -0.8707  0.1064 -0.5669
18708TIP3   OH277538   3.446   4.151   5.812 -0.4210 -0.2598  0.2196
18708TIP3    H177539   3.390   4.132   5.736 -2.2609  0.0893  1.4232
18708TIP3    H277540   3.395   4.121   5.887  1.6456 -1.2541  1.3247
18709TIP3   OH277541   2.453   2.925  11.783  0.6211  0.0314  0.5122
18709TIP3    H177542   2.405   2.896  11.860 -0.3852 -0.2024 -0.1744
18709TIP3    H277543   2.386   2.931  11.714  1.4032  0.6961 -0.2199
18710TIP3   OH277544   3.125   6.486  15.191 -0.1296 -0.0896 -0.6881
18710TIP3    H177545   3.153   6.513  15.104  1.0695 -1.6744 -0.8240
18710TIP3    H277546   3.175   6.408  15.210 -0.7428 -0.0752  1.2375
18711TIP3   OH277547   6.317   3.689  11.589 -0.7492 -0.3725 -0.2079
18711TIP3    H177548   6.253   3.755  11.561  0.0368  0.1088 -0.9199
18711TIP3    H277549   6.363   3.731  11.661 -1.7967 -1.0560  0.8970
18712TIP3   OH277550   4.898   6.229  12.852  0.0913  0.0514  0.5580
18712TIP3    H177551   4.978   6.277  12.832  0.7528 -1.9368 -2.2850
18712TIP3    H277552   4.884   6.174  12.775 -2.8154 -1.2999  1.9076
18713TIP3   OH277553   6.207   2.507   2.922  0.6848  0.1737 -0.5197
18713TIP3    H177554   6.131   2.449   2.916 -0.7996  2.1524 -1.6928
18713TIP3    H277555   6.278   2.449   2.950 -0.8934 -2.0351 -0.8004
18714TIP3   OH277556   1.625   2.441  14.139  0.0566  0.4640  0.3061
18714TIP3    H177557   1.559   2.430  14.208 -0.2068 -0.8881 -0.1277
18714TIP3    H277558   1.640   2.535  14.134 -1.0723  0.7013  1.1371
18715TIP3   OH277559   5.873   5.347   2.096 -0.1439  0.1810  0.1949
18715TIP3    H177560   5.787   5.376   2.125 -0.4063 -0.4135  0.0348
18715TIP3    H277561   5.934   5.390   2.155 -0.4899  1.2995 -0.2398
18716TIP3   OH277562   3.784   6.049  12.042  0.0402 -0.1994 -0.3693
18716TIP3    H177563   3.712   5.990  12.021  1.1318 -1.0441 -1.9382
18716TIP3    H277564   3.822   6.012  12.122  0.0890 -1.0521 -0.7729
18717TIP3   OH277565   2.619   3.360  16.237  0.2867  0.3997  0.1285
18717TIP3    H177566   2.524   3.350  16.233  0.1435  1.8076 -1.4864
18717TIP3    H277567   2.633   3.445  16.279  0.8611 -0.0392  0.8496
18718TIP3   OH277568   5.917   4.565  16.970  0.1307 -0.0703  0.2019
18718TIP3    H177569   5.904   4.477  17.005  0.4792 -0.1869  0.0488
18718TIP3    H277570   5.837   4.584  16.923  0.7090 -1.0039 -1.2275
18719TIP3   OH277571   2.918   6.088  13.578  0.1434  0.2322  0.7592
18719TIP3    H177572   2.893   6.168  13.623  0.2610  0.1820  0.9161
18719TIP3    H277573   2.858   6.021  13.613 -0.9205  0.5355 -0.4322
18720TIP3   OH277574   2.715   6.273   6.389  0.2039 -0.5065  0.6185
18720TIP3    H177575   2.764   6.246   6.466 -0.3228 -0.1086  1.1019
18720TIP3    H277576   2.629   6.232   6.400  0.1105 -0.4060  0.2686
18721TIP3   OH277577   5.513   5.539   4.463 -0.7085 -0.3592  0.1427
18721TIP3    H177578   5.506   5.445   4.449  1.1718 -0.1611 -3.1347
18721TIP3    H277579   5.504   5.577   4.376 -1.3395  2.5316  1.3558
18722TIP3   OH277580   3.588   4.256  10.608 -0.6961 -0.4389 -0.2727
18722TIP3    H177581   3.511   4.208  10.577 -0.6120 -0.8172  0.0900
18722TIP3    H277582   3.610   4.316  10.537 -0.2066 -1.6418 -1.1748
18723TIP3   OH277583   2.519   4.462   3.655 -0.1644  0.3049 -0.1054
18723TIP3    H177584   2.523   4.451   3.560  0.0832  3.5432 -0.5733
18723TIP3    H277585   2.604   4.433   3.686 -0.1828 -0.6235 -0.8607
18724TIP3   OH277586   3.544   5.349   0.527 -0.2571  0.9415 -0.4555
18724TIP3    H177587   3.628   5.356   0.481 -0.8898  3.1641 -1.4403
18724TIP3    H277588   3.541   5.428   0.582 -2.5546  2.0728 -2.0572
18725TIP3   OH277589   1.518   0.813  16.745  0.5201 -0.3430  0.1174
18725TIP3    H177590   1.500   0.788  16.655  0.6469  0.6520 -0.1917
18725TIP3    H277591   1.432   0.820  16.786  0.5034 -2.6227  0.6151
18726TIP3   OH277592   6.222   3.538   0.749 -0.2585 -0.1593  0.1702
18726TIP3    H177593   6.203   3.445   0.741  2.3152 -0.9635  1.9279
18726TIP3    H277594   6.225   3.554   0.844 -0.0973  1.5800 -0.0885
18727TIP3   OH277595   1.961   6.311  12.067 -0.5665 -0.4070 -0.5175
18727TIP3    H177596   1.998   6.301  12.154  1.0398 -0.1008 -1.1280
18727TIP3    H277597   1.875   6.350  12.082  0.2658  1.0675  0.8781
18728TIP3   OH277598   4.630   2.386  14.163  0.0544  0.0278 -0.2596
18728TIP3    H177599   4.555   2.369  14.220 -0.3742  2.6869  0.0801
18728TIP3    H277600   4.705   2.390  14.223  0.6447 -2.8623 -0.6212
18729TIP3   OH277601   2.921   5.101  13.515 -0.3201 -0.5103  0.3638
18729TIP3    H177602   2.887   5.157  13.445  0.0671 -1.1585 -0.3620
18729TIP3    H277603   3.014   5.094  13.497 -0.2218 -0.7074  0.9362
18730TIP3   OH277604   0.677   5.128   0.079 -0.1023 -0.1150  0.0615
18730TIP3    H177605   0.653   5.069   0.150  2.2802 -0.7677  0.4257
18730TIP3    H277606   0.693   5.070   0.004 -1.1664  0.4299 -0.6105
18731TIP3   OH277607   2.184   2.610   5.288  0.1001  0.5108  0.0543
18731TIP3    H177608   2.146   2.698   5.290 -0.6176  0.2034  1.1581
18731TIP3    H277609   2.270   2.620   5.328  0.3147  0.8357 -0.4845
18732TIP3   OH277610   5.446   6.191   2.920 -0.2548 -0.2931 -0.5504
18732TIP3    H177611   5.375   6.213   2.860  2.3343  1.0959 -3.3831
18732TIP3    H277612   5.402   6.168   3.001 -3.8749  1.5966 -1.7339
18733TIP3   OH277613   3.847   2.326   1.048 -0.2489 -0.0342  0.2184
18733TIP3    H177614   3.808   2.239   1.052 -0.4945  0.0344 -0.5530
18733TIP3    H277615   3.876   2.344   1.138 -1.8217 -0.1635  0.7750
18734TIP3   OH277616   0.344   0.892   1.800  0.6404 -0.2050  0.6112
18734TIP3    H177617   0.296   0.813   1.825  0.2090 -0.1996 -0.1556
18734TIP3    H277618   0.353   0.942   1.881  0.7452 -0.9433  1.0665
18735TIP3   OH277619   1.304   5.372  15.285 -0.2941  0.4701  0.2366
18735TIP3    H177620   1.228   5.377  15.227 -0.8619  2.2603  1.0555
18735TIP3    H277621   1.269   5.345  15.369  0.3705 -1.0450  0.0707
18736TIP3   OH277622   5.438   3.429   0.796  0.1801 -0.2851 -0.1640
18736TIP3    H177623   5.364   3.488   0.781 -1.6049 -1.6749  2.4473
18736TIP3    H277624   5.399   3.343   0.808  2.2960 -1.2008  0.7264
18737TIP3   OH277625   5.037   1.303  11.624 -0.5033 -0.4229 -0.3176
18737TIP3    H177626   5.025   1.335  11.714  2.9214  0.9474 -0.1853
18737TIP3    H277627   4.955   1.326  11.579 -1.2678  1.3233  1.7907
18738TIP3   OH277628   2.274   5.031   2.546  0.1931  0.1729  0.1899
18738TIP3    H177629   2.186   5.067   2.533  0.7206  1.4671  0.0139
18738TIP3    H277630   2.272   4.994   2.634 -0.9612 -1.2035 -0.3769
18739TIP3   OH277631   1.118   2.259   5.623  0.2898 -0.5158 -0.2467
18739TIP3    H177632   1.195   2.209   5.596  0.3198 -0.2273 -0.7040
18739TIP3    H277633   1.046   2.196   5.619  0.5299 -0.8411  0.3848
18740TIP3   OH277634   2.702   4.448   4.882 -0.2738  0.0750 -0.0778
18740TIP3    H177635   2.642   4.447   4.956  0.0590  1.0127  0.2177
18740TIP3    H277636   2.723   4.540   4.869  0.5694 -0.1767 -0.6086
18741TIP3   OH277637   3.806   3.248   2.829  0.3520 -1.0174 -0.3357
18741TIP3    H177638   3.808   3.181   2.897 -0.3768  0.2140  0.9530
18741TIP3    H277639   3.724   3.231   2.782 -1.0888  0.3668  1.5346
18742TIP3   OH277640   5.045   0.659   0.441 -0.1447 -0.0158 -0.6316
18742TIP3    H177641   4.989   0.582   0.442 -0.1566 -0.0040 -0.3334
18742TIP3    H277642   5.123   0.633   0.490 -0.4261  0.3664  0.0357
18743TIP3   OH277643   0.666   0.699   2.913 -0.4413  0.0076  0.1395
18743TIP3    H177644   0.651   0.790   2.887 -1.0459  0.1356  0.9014
18743TIP3    H277645   0.599   0.649   2.867 -1.0279  0.1390  0.8321
18744TIP3   OH277646   1.595   1.484  11.778  0.2148 -0.0981 -0.1800
18744TIP3    H177647   1.599   1.579  11.781 -2.1486  0.0392  0.5479
18744TIP3    H277648   1.674   1.458  11.732 -0.0849  2.3140 -2.2471
18745TIP3   OH277649   2.565   3.088   1.255 -0.4585  0.0566  0.3005
18745TIP3    H177650   2.616   3.035   1.316 -2.0941  0.0432  1.7534
18745TIP3    H277651   2.604   3.175   1.260  1.9716 -0.7981 -1.7787
18746TIP3   OH277652   3.121   5.839  14.916 -0.0104  0.0214  0.1887
18746TIP3    H177653   3.211   5.830  14.949 -0.0315  0.8016  0.4605
18746TIP3    H277654   3.068   5.858  14.993 -0.5753 -1.3724  0.1778
18747TIP3   OH277655   6.357   1.896   2.981  0.0133  0.5258 -0.1120
18747TIP3    H177656   6.302   1.843   3.038  0.0914  1.2046  0.6071
18747TIP3    H277657   6.436   1.912   3.032  0.3077  0.7088 -0.6160
18748TIP3   OH277658   2.217   2.038  10.902 -0.0138 -0.5117 -0.5621
18748TIP3    H177659   2.140   2.086  10.935 -0.4504 -1.7346  0.2627
18748TIP3    H277660   2.275   2.031  10.977 -0.1444 -1.6221 -0.5494
18749TIP3   OH277661   5.321   2.291  13.110  0.1492 -0.6852  0.5187
18749TIP3    H177662   5.281   2.377  13.096  1.5868 -0.0193  0.3385
18749TIP3    H277663   5.325   2.281  13.205 -0.4871 -0.7995  0.5420
18750TIP3   OH277664   6.142   1.889  16.239 -0.0847 -0.0410  0.0846
18750TIP3    H177665   6.126   1.983  16.228 -1.6279 -0.1681  0.9777
18750TIP3    H277666   6.110   1.870  16.327  1.7089 -1.1179  0.5532
18751TIP3   OH277667   5.775   2.063   6.242  0.2176 -0.7615 -0.2371
18751TIP3    H177668   5.759   2.129   6.174  1.2799  1.5837  1.6372
18751TIP3    H277669   5.695   2.062   6.294  1.3526  1.6966  1.7384
18752TIP3   OH277670   0.255   2.355  13.739 -0.4215  0.7115 -0.0740
18752TIP3    H177671   0.163   2.374  13.724 -0.4161 -0.6756 -2.2771
18752TIP3    H277672   0.302   2.434  13.710 -0.8590  1.2024  0.5316
18753TIP3   OH277673   1.314   3.819  14.864 -0.7762 -0.0248  0.4927
18753TIP3    H177674   1.332   3.758  14.936 -0.9483  2.0264  2.3923
18753TIP3    H277675   1.366   3.787  14.791  1.1467 -1.0018  2.2053
18754TIP3   OH277676   1.728   6.467  12.764 -0.5554 -0.1107 -0.3387
18754TIP3    H177677   1.761   6.501  12.847  0.7149  1.5124 -1.4511
18754TIP3    H277678   1.639   6.502  12.757 -1.3751 -1.7627  1.1320
18755TIP3   OH277679   1.044   0.142  10.363  0.1213  0.5591 -0.2355
18755TIP3    H177680   1.114   0.100  10.412  0.2601  1.0356 -0.0272
18755TIP3    H277681   0.994   0.190  10.428  0.5642  1.5578 -0.6125
18756TIP3   OH277682   3.603   1.211   4.703 -0.0548  0.3200 -0.2550
18756TIP3    H177683   3.519   1.237   4.665 -1.0441 -2.1272  0.0340
18756TIP3    H277684   3.644   1.293   4.730 -2.5692  1.5793  0.0324
18757TIP3   OH277685   1.599   4.462  14.545 -0.1138  0.3498  0.6810
18757TIP3    H177686   1.525   4.510  14.508 -1.4223 -2.3757 -0.4928
18757TIP3    H277687   1.559   4.395  14.600  1.4654 -1.0404  0.2262
18758TIP3   OH277688   2.088   2.031  16.830 -0.3428 -0.5852 -0.0079
18758TIP3    H177689   2.033   2.109  16.827 -0.8710 -0.9571 -0.1734
18758TIP3    H277690   2.059   1.984  16.909  0.5436 -0.2071  0.5578
18759TIP3   OH277691   5.844   4.542   2.947  0.0632 -0.0704 -0.2790
18759TIP3    H177692   5.805   4.626   2.921 -0.8157 -0.4066 -0.0860
18759TIP3    H277693   5.889   4.561   3.029 -2.3144 -0.2999  1.1808
18760TIP3   OH277694   0.941   1.732  13.172 -0.5864  0.5990 -0.1674
18760TIP3    H177695   0.941   1.644  13.133 -1.4113  0.4537  0.1433
18760TIP3    H277696   1.033   1.758  13.171 -0.1787 -0.6660  0.5882
18761TIP3   OH277697   1.432   4.821  13.538  0.0944 -0.4693  0.2783
18761TIP3    H177698   1.411   4.910  13.510 -1.1943  0.3801  3.4633
18761TIP3    H277699   1.417   4.768  13.460 -0.3705  1.9111 -1.3982
18762TIP3   OH277700   5.103   1.184   2.988  0.3538  0.7750  0.0379
18762TIP3    H177701   5.040   1.225   3.047  0.9716 -1.0254  2.0725
18762TIP3    H277702   5.052   1.160   2.911 -1.7545 -1.4298  1.9636
18763TIP3   OH277703   0.705   0.075  13.036  0.3433 -0.5939 -0.1921
18763TIP3    H177704   0.789   0.120  13.049 -0.2629  0.5049 -0.0175
18763TIP3    H277705   0.668   0.115  12.958  1.5636 -3.5517 -2.5057
18764TIP3   OH277706   4.229   1.065  11.447 -0.3700  0.2389 -0.3350
18764TIP3    H177707   4.206   1.027  11.362 -0.9386  0.4264 -0.2766
18764TIP3    H277708   4.156   1.124  11.466 -0.1132  0.4012  0.1593
18765TIP3   OH277709   0.749   1.102  11.353 -0.6817  1.1200  0.4977
18765TIP3    H177710   0.831   1.053  11.345  0.1769  2.6120 -0.2871
18765TIP3    H277711   0.699   1.076  11.275 -0.3453  1.2882  0.2225
18766TIP3   OH277712   5.445   1.807   6.291 -0.4021 -0.3721  0.0350
18766TIP3    H177713   5.495   1.726   6.304  1.7338  0.8321 -0.1311
18766TIP3    H277714   5.403   1.797   6.206  2.6166 -0.0517 -1.6203
18767TIP3   OH277715   3.036   6.390   5.040 -0.0861 -0.2213 -0.3982
18767TIP3    H177716   3.124   6.355   5.051  0.6942  1.3478 -1.3024
18767TIP3    H277717   2.993   6.329   4.980  0.6067 -0.6482 -0.4679
18768TIP3   OH277718   1.889   2.587   0.163  0.1416 -0.2011 -0.2403
18768TIP3    H177719   1.892   2.492   0.170  0.4540 -0.1335  0.6806
18768TIP3    H277720   1.954   2.618   0.227 -0.8067  0.6569  0.3344
18769TIP3   OH277721   1.310   4.862  14.498 -0.2603  0.6823  0.5394
18769TIP3    H177722   1.235   4.811  14.468  0.1935  0.1093  0.3684
18769TIP3    H277723   1.313   4.937  14.439  0.5279 -0.3517 -0.7769
18770TIP3   OH277724   2.212   6.096   5.503 -0.4151 -0.0138 -0.2501
18770TIP3    H177725   2.194   6.152   5.427 -0.0904 -0.1552 -0.4323
18770TIP3    H277726   2.235   6.011   5.465 -0.9484 -0.2867  0.0232
18771TIP3   OH277727   4.668   2.624  11.868 -0.2887  0.7580 -0.3087
18771TIP3    H177728   4.603   2.601  11.802 -2.2810 -0.9273  2.0412
18771TIP3    H277729   4.726   2.548  11.872 -0.8005  0.3815  0.4926
18772TIP3   OH277730   2.174   6.731   2.130  0.1424  0.3244  0.5595
18772TIP3    H177731   2.133   6.785   2.198 -2.2070 -0.3896 -0.1645
18772TIP3    H277732   2.137   6.765   2.048  0.6232 -0.7087 -0.1043
18773TIP3   OH277733   5.389   2.848  16.423  0.3857  0.5094  0.3835
18773TIP3    H177734   5.473   2.889  16.407  0.3793  0.3606 -0.0414
18773TIP3    H277735   5.356   2.825  16.336 -0.4486  1.2611  0.4822
18774TIP3   OH277736   4.942   3.690  12.068 -0.3293 -0.2424 -0.1557
18774TIP3    H177737   4.916   3.692  11.975  0.9575 -0.0150 -0.5316
18774TIP3    H277738   4.991   3.608  12.077  0.5364  0.2787  0.0216
18775TIP3   OH277739   2.897   2.984  14.494  0.1090  0.5562  0.1640
18775TIP3    H177740   2.931   2.897  14.477  0.2515  0.6299  0.0697
18775TIP3    H277741   2.946   3.041  14.435  0.6498  0.8221  0.8528
18776TIP3   OH277742   4.688   4.538   0.807  0.0471 -0.7183 -0.6275
18776TIP3    H177743   4.613   4.591   0.779  0.3164  0.0449  0.0536
18776TIP3    H277744   4.703   4.477   0.734 -0.2097  0.2050 -1.4756
18777TIP3   OH277745   0.898   0.609   2.771 -0.1195  0.3772  0.0662
18777TIP3    H177746   0.852   0.682   2.812  0.5697  0.7001  0.2769
18777TIP3    H277747   0.950   0.571   2.841 -0.0544  0.0265 -0.1696
18778TIP3   OH277748   2.713   4.242   4.063 -0.2022 -0.7447 -0.1734
18778TIP3    H177749   2.746   4.213   4.148  0.2160  1.6988  0.5989
18778TIP3    H277750   2.684   4.162   4.019 -0.3838 -2.0963  2.2434
18779TIP3   OH277751   4.214   1.560   3.268  1.2212 -0.1495  0.0873
18779TIP3    H177752   4.162   1.499   3.216  0.8609 -0.1534  0.4395
18779TIP3    H277753   4.165   1.569   3.350  1.9850 -0.4655  0.5900
18780TIP3   OH277754   0.676   1.851  14.381 -0.7144  0.6035  0.2043
18780TIP3    H177755   0.636   1.835  14.296 -0.8382  0.0540  0.3596
18780TIP3    H277756   0.733   1.927  14.367  0.8955 -0.7306 -0.9295
18781TIP3   OH277757   2.980   2.553  13.676 -0.3788  0.1527 -0.0954
18781TIP3    H177758   3.016   2.640  13.691 -1.2726  0.5062  0.0532
18781TIP3    H277759   2.970   2.547  13.581 -0.2183  0.1747 -0.1125
18782TIP3   OH277760   2.777   6.622   2.200  0.2063 -0.3237  0.2035
18782TIP3    H177761   2.776   6.526   2.201 -1.3026 -0.3332  0.2295
18782TIP3    H277762   2.852   6.645   2.255  0.7767 -1.4817 -0.0446
18783TIP3   OH277763   1.191   4.983  12.417  0.5645  0.4383 -0.1026
18783TIP3    H177764   1.136   5.007  12.492 -0.5534 -1.9001 -0.0944
18783TIP3    H277765   1.258   4.926  12.454 -0.0126 -0.7600 -0.8248
18784TIP3   OH277766   6.600   3.421   4.082 -0.1192  0.6943  0.1741
18784TIP3    H177767   6.692   3.433   4.104 -0.8514  1.1933  3.4844
18784TIP3    H277768   6.588   3.326   4.084 -0.0550  0.6863  1.9169
18785TIP3   OH277769   0.081   6.710  14.946 -0.7756  0.3617  0.2789
18785TIP3    H177770   0.046   6.744  14.864  1.2450  1.4833 -0.1621
18785TIP3    H277771   0.043   6.766  15.014 -0.3909  1.1374 -0.1339
18786TIP3   OH277772   0.306   0.438   5.782 -0.4022  0.0913 -0.2829
18786TIP3    H177773   0.325   0.389   5.862  3.5170 -1.0719 -1.6802
18786TIP3    H277774   0.382   0.422   5.726 -2.1390  2.2883 -3.5751
18787TIP3   OH277775   3.134   6.615   2.511 -0.1814 -0.1240  0.0771
18787TIP3    H177776   3.152   6.619   2.605  1.9348  2.3362 -0.3259
18787TIP3    H277777   3.187   6.542   2.480  0.1701 -0.1062  0.6154
18788TIP3   OH277778   4.409   3.578   1.431 -0.5062  0.4772 -0.0954
18788TIP3    H177779   4.467   3.630   1.376  0.3089  0.6852  0.9380
18788TIP3    H277780   4.344   3.542   1.370 -0.2562  1.5553 -1.0285
18789TIP3   OH277781   5.688   5.785  14.951  0.0004  0.0132 -0.3411
18789TIP3    H177782   5.784   5.791  14.950 -0.0092  1.3195  1.3041
18789TIP3    H277783   5.664   5.808  15.041 -1.8675 -0.3280 -0.7135
18790TIP3   OH277784   0.623   5.202  10.444 -0.1451  0.2816 -0.3383
18790TIP3    H177785   0.543   5.208  10.392  0.6539  0.3489 -1.6014
18790TIP3    H277786   0.597   5.155  10.524 -1.3834  0.1334 -0.8135
18791TIP3   OH277787   6.659   6.507   1.083 -0.6606  0.7649 -0.4539
18791TIP3    H177788   6.665   6.413   1.068 -3.0839  0.0384  2.2567
18791TIP3    H277789   6.609   6.540   1.009 -0.9482 -0.3212 -0.7583
18792TIP3   OH277790   1.857   2.450  15.544  0.1569  0.6435 -0.0537
18792TIP3    H177791   1.942   2.475  15.506  0.3264  1.9249  1.1006
18792TIP3    H277792   1.881   2.392  15.617 -0.1513 -1.5163 -1.5599
18793TIP3   OH277793   4.051   1.570  15.454 -0.0317  0.0996  0.7605
18793TIP3    H177794   4.023   1.661  15.462  1.5061  0.6694  0.1543
18793TIP3    H277795   3.973   1.519  15.473 -1.0838  1.5527  0.5300
18794TIP3   OH277796   0.304   5.972  13.589 -0.9008 -0.3554  0.5417
18794TIP3    H177797   0.305   6.020  13.672  0.6840 -0.1178  0.4333
18794TIP3    H277798   0.228   5.915  13.594 -1.6636  0.7056  1.5420
18795TIP3   OH277799   5.918   4.868   2.705 -0.3747  0.1631  0.2085
18795TIP3    H177800   5.941   4.784   2.666  0.2015 -0.2586  1.4210
18795TIP3    H277801   5.991   4.926   2.682 -0.0831 -0.0598  0.5534
18796TIP3   OH277802   1.856   3.142  15.575 -0.4789 -1.0728  0.5663
18796TIP3    H177803   1.865   3.149  15.670  1.6233  0.5756  0.3088
18796TIP3    H277804   1.769   3.105  15.563 -0.9616 -0.9912  3.1200
18797TIP3   OH277805   2.971   6.554  16.601  0.3163 -0.1316  0.1463
18797TIP3    H177806   2.911   6.479  16.606 -0.2281  0.2967  0.2228
18797TIP3    H277807   2.926   6.624  16.650  1.0213  0.1080  0.4641
18798TIP3   OH277808   4.369   0.425  15.983 -0.2101 -0.0375 -0.4011
18798TIP3    H177809   4.303   0.481  16.025  0.5486  0.7860 -0.2657
18798TIP3    H277810   4.419   0.388  16.056  0.1118  0.1496 -0.5237
18799TIP3   OH277811   0.747   3.782  12.295 -0.1668 -0.3600  0.1952
18799TIP3    H177812   0.790   3.803  12.213  0.4203  0.2004  0.6399
18799TIP3    H277813   0.709   3.695  12.281  3.3632 -2.1604  0.6402
18800TIP3   OH277814   4.934   2.216  15.672  0.5234 -0.4971 -0.2910
18800TIP3    H177815   4.972   2.304  15.677 -1.9665  0.6196  3.3325
18800TIP3    H277816   4.854   2.227  15.621  0.0494 -0.5220  0.4249
18801TIP3   OH277817   3.863   5.483  11.960 -0.0807  0.0475 -0.0791
18801TIP3    H177818   3.835   5.556  12.015 -0.9216 -0.2917 -0.0582
18801TIP3    H277819   3.892   5.524  11.878 -3.1992  0.2584 -1.1927
18802TIP3   OH277820   2.633   6.358  15.483 -0.0639 -0.5778 -0.8642
18802TIP3    H177821   2.632   6.447  15.518  0.0155 -0.7491 -0.4270
18802TIP3    H277822   2.725   6.341  15.464  0.1607 -1.1785  0.6330
18803TIP3   OH277823   0.897   2.889   1.133  0.2466  0.0922  0.1851
18803TIP3    H177824   0.888   2.961   1.197  0.0522 -0.2047  0.4966
18803TIP3    H277825   0.927   2.932   1.053 -0.3641  0.5994  0.2154
18804TIP3   OH277826   2.129   3.136   2.051  0.9289  0.3258  0.2966
18804TIP3    H177827   2.217   3.168   2.072  0.7792 -0.3106  2.0755
18804TIP3    H277828   2.079   3.148   2.132  0.5656 -3.2717  0.7653
18805TIP3   OH277829   6.637   2.204  13.046  0.2631 -0.4640  0.4410
18805TIP3    H177830   6.596   2.216  12.960  2.7268  0.7694 -0.6882
18805TIP3    H277831   6.637   2.292  13.085 -2.0583 -1.2338  2.4221
18806TIP3   OH277832   5.632   3.907   1.183 -0.0549  0.0321 -0.0643
18806TIP3    H177833   5.709   3.861   1.151  0.0491  0.0263  0.1956
18806TIP3    H277834   5.571   3.904   1.110  0.6698  1.1583 -0.7471
18807TIP3   OH277835   0.467   4.815  11.704 -0.4967  0.0146  0.3666
18807TIP3    H177836   0.505   4.903  11.704 -0.6497  0.0790  0.7035
18807TIP3    H277837   0.498   4.776  11.622  0.1003  0.1553  0.5150
18808TIP3   OH277838   3.648   2.008  11.915  0.3308 -0.2701 -0.3755
18808TIP3    H177839   3.593   2.041  11.986  0.3716 -0.5187 -0.2274
18808TIP3    H277840   3.588   2.001  11.840 -0.2100 -1.9328  0.1577
18809TIP3   OH277841   6.546   1.634   2.393  0.2071  0.0866  0.9359
18809TIP3    H177842   6.493   1.585   2.330  1.5638 -0.1440 -0.0547
18809TIP3    H277843   6.532   1.726   2.370 -0.7323  0.1068  1.5010
18810TIP3   OH277844   3.427   0.345  13.714  0.4703  0.2112  0.8918
18810TIP3    H177845   3.388   0.413  13.770  0.1083 -1.1703  2.3929
18810TIP3    H277846   3.481   0.294  13.774  3.1070  0.8820 -0.7601
18811TIP3   OH277847   3.552   6.588  14.379 -0.3007 -0.4239 -0.1531
18811TIP3    H177848   3.541   6.678  14.348 -0.3299 -0.3345  0.1137
18811TIP3    H277849   3.615   6.595  14.451 -1.1284 -0.4634  0.5990
18812TIP3   OH277850   2.575   3.287  12.236 -0.1516  0.1869  0.5057
18812TIP3    H177851   2.590   3.303  12.143 -0.6866  0.5812  0.4797
18812TIP3    H277852   2.513   3.215  12.239  0.3303 -0.2341  0.5760
18813TIP3   OH277853   2.975   1.607  16.992 -0.0948  0.3172 -0.0090
18813TIP3    H177854   3.049   1.586  17.049 -0.5338  1.6996  1.1626
18813TIP3    H277855   2.920   1.529  16.995  0.8142 -0.3440 -0.0770
18814TIP3   OH277856   2.430   1.045   4.699 -0.2915  0.0656  0.0623
18814TIP3    H177857   2.337   1.029   4.714 -0.2796 -0.2769 -0.2315
18814TIP3    H277858   2.470   0.958   4.696 -0.1522  0.1460 -1.0117
18815TIP3   OH277859   2.356   6.170   4.276  0.1020 -0.5434  0.6695
18815TIP3    H177860   2.260   6.176   4.282  0.1186 -0.2324  0.6383
18815TIP3    H277861   2.384   6.258   4.250  0.4280 -0.5072  1.1229
18816TIP3   OH277862   6.325   4.349  15.241 -0.7421 -0.6544 -0.7903
18816TIP3    H177863   6.272   4.312  15.312 -0.2905  0.4670  0.1705
18816TIP3    H277864   6.347   4.437  15.271  1.2730 -0.9119 -1.3692
18817TIP3   OH277865   1.401   0.351   4.412  0.5007 -0.3010 -0.1959
18817TIP3    H177866   1.322   0.307   4.442 -0.1818 -0.6022 -2.2780
18817TIP3    H277867   1.447   0.376   4.492 -0.8068 -1.7125  1.0437
18818TIP3   OH277868   4.593   5.788  12.308 -0.2996 -0.3674  0.1854
18818TIP3    H177869   4.536   5.855  12.273 -0.4443 -0.6191 -0.0634
18818TIP3    H277870   4.617   5.734  12.233  0.3692 -0.1928  0.2598
18819TIP3   OH277871   2.628   6.613   4.926 -0.1099  0.2781 -0.1898
18819TIP3    H177872   2.537   6.589   4.909 -1.2379  1.4662  3.3894
18819TIP3    H277873   2.669   6.533   4.959 -0.1553  0.0619 -0.6409
18820TIP3   OH277874   0.531   2.666  11.403 -0.2273  0.0014  0.7422
18820TIP3    H177875   0.579   2.684  11.322 -1.1685 -1.6220 -0.2185
18820TIP3    H277876   0.555   2.739  11.461  2.5607 -0.1734 -0.0277
18821TIP3   OH277877   1.200   1.794  11.515  0.1941 -0.1145  0.0609
18821TIP3    H177878   1.225   1.779  11.606  3.2793  0.4053 -0.5720
18821TIP3    H277879   1.219   1.886  11.499 -0.5989 -0.1182 -1.0359
18822TIP3   OH277880   3.625   6.546   3.955  0.0970  0.2338  0.5929
18822TIP3    H177881   3.602   6.551   3.862  2.7608  1.7404 -0.0893
18822TIP3    H277882   3.664   6.460   3.965 -0.2658  0.0368  0.3361
18823TIP3   OH277883   6.761   4.497  15.688 -0.1880 -0.2278  0.6200
18823TIP3    H177884   6.766   4.527  15.597  0.0202 -1.1468  0.3127
18823TIP3    H277885   6.849   4.465  15.706 -0.2705 -0.1773  1.1065
18824TIP3   OH277886   3.964   2.256   5.292  0.5907  0.2311  0.0609
18824TIP3    H177887   3.969   2.161   5.299  1.4930  0.2696  0.0912
18824TIP3    H277888   4.011   2.288   5.369 -0.6718  0.7194  0.6577
18825TIP3   OH277889   0.149   4.048   2.429 -0.1413  0.2925 -0.0335
18825TIP3    H177890   0.163   3.985   2.500 -1.2520  0.8752  0.7329
18825TIP3    H277891   0.056   4.042   2.409  0.2857 -0.4800 -2.0836
18826TIP3   OH277892   0.220   3.633  11.175 -0.3230  0.3670 -0.5491
18826TIP3    H177893   0.196   3.706  11.118 -0.3862 -0.2069 -1.2800
18826TIP3    H277894   0.136   3.597  11.205 -0.2839  0.8184  0.1038
18827TIP3   OH277895   0.531   4.817   5.737 -0.1182 -0.8017  0.0915
18827TIP3    H177896   0.513   4.864   5.818 -1.6967  0.5898 -1.0053
18827TIP3    H277897   0.623   4.792   5.744  0.0420  0.1368  1.8811
18828TIP3   OH277898   3.187   6.079   2.630 -0.1321  0.1355 -0.2238
18828TIP3    H177899   3.173   6.000   2.681 -0.9821  1.2135  1.3055
18828TIP3    H277900   3.260   6.123   2.674 -1.0835  1.2389  0.2899
18829TIP3   OH277901   2.703   3.281  13.068  0.2599  0.0453 -0.4256
18829TIP3    H177902   2.660   3.365  13.083  1.4167  0.6578 -0.4712
18829TIP3    H277903   2.661   3.221  13.130 -2.4195 -0.0355 -2.1474
18830TIP3   OH277904   2.009   2.527  13.377  0.0004  0.3398  0.1733
18830TIP3    H177905   2.070   2.589  13.336 -2.1259  2.5669  0.1141
18830TIP3    H277906   2.064   2.469  13.428  2.5216 -0.4658 -3.1107
18831TIP3   OH277907   1.575   3.777   0.057  0.4633  0.7409  0.6438
18831TIP3    H177908   1.502   3.772   0.120 -2.0261 -1.9796 -2.0985
18831TIP3    H277909   1.638   3.712   0.089 -1.9889 -2.6268 -0.7610
18832TIP3   OH277910   1.740   0.517   5.068  0.0733  0.3163 -0.0822
18832TIP3    H177911   1.832   0.534   5.048  0.3097  1.3758  1.7440
18832TIP3    H277912   1.699   0.603   5.068 -0.4121  0.1084  1.4419
18833TIP3   OH277913   5.170   6.529   1.480  0.0721 -0.4765 -0.2466
18833TIP3    H177914   5.141   6.444   1.512 -2.4007 -0.6821 -2.7026
18833TIP3    H277915   5.206   6.511   1.393 -3.2545  1.1687 -2.1626
18834TIP3   OH277916   3.342   6.030  12.608 -0.3409 -0.5732 -0.0847
18834TIP3    H177917   3.407   6.095  12.583 -1.2671  0.0203 -1.0117
18834TIP3    H277918   3.390   5.947  12.609  1.6970  0.3675  4.2554
18835TIP3   OH277919   5.848   6.585  13.871 -0.4740 -0.3512 -0.0741
18835TIP3    H177920   5.834   6.509  13.928 -0.8904  0.5961  1.1196
18835TIP3    H277921   5.926   6.627  13.905 -1.6402  1.1514  0.9027
18836TIP3   OH277922   6.431   4.187   5.202 -0.2370 -0.4115  0.3447
18836TIP3    H177923   6.372   4.138   5.259  0.6274  1.0535  2.6243
18836TIP3    H277924   6.468   4.121   5.143 -1.0285 -2.0457  1.6050
18837TIP3   OH277925   5.827   0.243  15.417 -0.4140 -0.5784 -0.1138
18837TIP3    H177926   5.810   0.158  15.457  0.7049  0.0264  1.7516
18837TIP3    H277927   5.901   0.227  15.359 -1.2742 -1.2008 -1.0843
18838TIP3   OH277928   2.378   3.000  13.537  0.8731  0.4062  0.0772
18838TIP3    H177929   2.443   3.064  13.564 -0.9413  1.6533  1.7684
18838TIP3    H277930   2.340   2.968  13.618  0.2058 -1.1815 -0.8194
18839TIP3   OH277931   0.991   1.965  14.325 -0.9796 -0.3331  0.2118
18839TIP3    H177932   1.006   1.884  14.277  0.1824  1.2895 -2.3788
18839TIP3    H277933   1.078   1.995  14.350 -1.1607  1.1343 -0.7726
18840TIP3   OH277934   4.340   3.992   4.715 -0.3539  0.2765  0.2417
18840TIP3    H177935   4.401   3.920   4.733 -0.2132  0.5821  1.0278
18840TIP3    H277936   4.258   3.948   4.693 -0.3938 -0.1464  1.1478
18841TIP3   OH277937   3.958   3.429  11.032  0.1899 -0.1189  0.3752
18841TIP3    H177938   3.999   3.513  11.052 -2.8718  1.3213  1.2249
18841TIP3    H277939   3.871   3.452  10.999 -1.4327 -2.9006  2.2761
18842TIP3   OH277940   1.836   0.335   1.060  0.2851 -0.2113  0.2673
18842TIP3    H177941   1.859   0.367   0.973  1.1921 -2.1580 -0.2739
18842TIP3    H277942   1.750   0.295   1.048 -0.3258  0.9253  0.6771
18843TIP3   OH277943   0.467   5.582  11.282  0.0240 -0.2206 -0.0741
18843TIP3    H177944   0.411   5.513  11.318 -0.0225 -0.9711 -1.5283
18843TIP3    H277945   0.469   5.649  11.351  0.1923 -1.7079  1.4563
18844TIP3   OH277946   3.638   2.406   0.309  0.0051 -0.4209  0.0742
18844TIP3    H177947   3.548   2.380   0.331 -0.1312 -0.5750 -0.6448
18844TIP3    H277948   3.674   2.331   0.261  1.3886 -1.4138  2.4964
18845TIP3   OH277949   6.466   6.553  13.607  0.0175  0.3733 -0.1770
18845TIP3    H177950   6.470   6.646  13.627 -1.3329  0.4307 -0.0982
18845TIP3    H277951   6.429   6.548  13.519 -0.2584 -0.0954 -0.0408
18846TIP3   OH277952   1.654   4.938   2.741  0.0743 -1.1041 -0.1396
18846TIP3    H177953   1.708   5.015   2.728  0.5988 -1.2807  0.8613
18846TIP3    H277954   1.584   4.967   2.800 -0.5317 -1.0567 -0.8581
18847TIP3   OH277955   5.121   1.167  16.046 -0.1783 -0.5289 -0.3173
18847TIP3    H177956   5.149   1.082  16.013 -0.5832 -0.0098 -2.0737
18847TIP3    H277957   5.030   1.153  16.074  0.0710 -0.8976  0.3339
18848TIP3   OH277958   5.702   6.598  10.973  0.3630 -0.0111 -0.0493
18848TIP3    H177959   5.655   6.626  10.894  0.8965  1.7727  0.2175
18848TIP3    H277960   5.785   6.644  10.969  0.6053 -0.2845  1.3181
18849TIP3   OH277961   4.146   3.578  15.815  0.4887  0.3124 -0.3962
18849TIP3    H177962   4.057   3.553  15.792 -0.1826  0.4048  1.8421
18849TIP3    H277963   4.199   3.556  15.738 -1.4454  0.2714 -1.7743
18850TIP3   OH277964   3.725   4.607  12.947 -0.0564 -0.7941 -0.0987
18850TIP3    H177965   3.816   4.592  12.975 -0.6419 -1.8160  1.3758
18850TIP3    H277966   3.701   4.525  12.904 -0.5764 -0.8813  0.3581
18851TIP3   OH277967   2.639   4.514   4.166  0.3184  0.1682  0.2223
18851TIP3    H177968   2.688   4.433   4.180 -0.0862  0.0300  0.9038
18851TIP3    H277969   2.687   4.580   4.216  0.3281  0.2267  0.1352
18852TIP3   OH277970   2.641   6.365  10.515 -0.1784  0.2239  0.1531
18852TIP3    H177971   2.693   6.287  10.535  0.2371  0.6491  0.7686
18852TIP3    H277972   2.551   6.334  10.512  0.0703 -0.4621 -0.5894
18853TIP3   OH277973   1.164   2.571  15.700 -0.5270 -0.1360 -0.4273
18853TIP3    H177974   1.120   2.640  15.750  0.2285 -0.4028  0.6472
18853TIP3    H277975   1.253   2.570  15.735 -0.9695 -2.8090  0.8375
18854TIP3   OH277976   6.777   6.216   2.073  0.3501  0.3397 -0.4176
18854TIP3    H177977   6.830   6.274   2.128 -0.2886  1.3512 -0.8300
18854TIP3    H277978   6.773   6.134   2.121  1.1055  0.7015  0.2931
18855TIP3   OH277979   0.468   3.406   6.170 -0.4099 -0.2398  0.4933
18855TIP3    H177980   0.400   3.352   6.130  0.0517 -0.4207 -0.0712
18855TIP3    H277981   0.549   3.356   6.156  0.3376  1.4302 -1.7717
18856TIP3   OH277982   1.192   3.970   6.445  0.3212 -0.1777 -0.6649
18856TIP3    H177983   1.120   3.917   6.480  0.7750 -1.7954 -2.1008
18856TIP3    H277984   1.161   3.999   6.359  1.6062 -1.4901 -1.6162
18857TIP3   OH277985   2.930   5.789   5.535 -0.3805  0.3314  0.1862
18857TIP3    H177986   2.933   5.710   5.481  0.0683 -1.2799  2.4121
18857TIP3    H277987   3.020   5.799   5.566 -0.6917  1.0258  0.8833
18858TIP3   OH277988   1.815   0.515   3.359 -0.0648 -0.1084  0.0779
18858TIP3    H177989   1.888   0.574   3.376 -0.1721 -0.1712  0.8254
18858TIP3    H277990   1.765   0.515   3.441 -0.2074 -1.0305  0.0083
18859TIP3   OH277991   5.339   4.954  13.376  0.2430 -0.3626  0.4450
18859TIP3    H177992   5.394   4.921  13.447 -0.6559 -2.4631  0.2301
18859TIP3    H277993   5.251   4.960  13.415 -0.3744 -2.0870 -0.5728
18860TIP3   OH277994   5.336   4.319   0.586 -0.0683  0.0356 -0.0772
18860TIP3    H177995   5.258   4.325   0.641 -1.1440  0.9807 -1.6240
18860TIP3    H277996   5.319   4.245   0.528  0.2615  0.1504 -0.3249
18861TIP3   OH277997   4.471   0.620  11.846 -0.6578 -0.2453  0.2360
18861TIP3    H177998   4.460   0.558  11.774 -0.1689  0.6358 -0.6179
18861TIP3    H277999   4.528   0.575  11.908  1.0920 -0.0555 -1.1562
18862TIP3   OH278000   4.116   4.747  12.034 -0.5232 -0.0881 -0.1477
18862TIP3    H178001   4.196   4.744  12.087  0.4471 -0.8108 -1.5733
18862TIP3    H278002   4.057   4.803  12.083 -0.4462 -2.2459  2.6770
18863TIP3   OH278003   3.899   5.413   3.810 -0.6509 -0.4073 -0.0390
18863TIP3    H178004   3.914   5.362   3.730  1.9522 -0.2770  0.2713
18863TIP3    H278005   3.987   5.436   3.840 -1.5705 -0.0273  2.6062
18864TIP3   OH278006   4.797   3.522   4.977  0.7462  0.3046  0.0956
18864TIP3    H178007   4.765   3.445   5.024  0.3780 -0.0212 -0.6798
18864TIP3    H278008   4.872   3.552   5.029 -0.2157  0.5240  1.4177
18865TIP3   OH278009   1.520   3.482   6.015 -0.2175 -0.6766  0.7026
18865TIP3    H178010   1.557   3.448   6.097  0.2899 -1.6658  0.0766
18865TIP3    H278011   1.425   3.478   6.028 -0.1477 -1.3584  1.0268
18866TIP3   OH278012   4.750   5.416   4.467  0.0891 -0.1646 -0.1213
18866TIP3    H178013   4.686   5.345   4.465 -0.1183 -0.1635  2.5126
18866TIP3    H278014   4.833   5.373   4.486  1.3721 -0.3354 -4.8423
18867TIP3   OH278015   3.044   0.915  16.452 -0.3393  0.4440  0.3263
18867TIP3    H178016   3.098   0.975  16.401 -0.3795 -0.8270 -1.3073
18867TIP3    H278017   2.954   0.940  16.431 -0.3807  1.0355  1.1754
18868TIP3   OH278018   6.132   4.746  16.693 -0.3146 -0.0902  0.0243
18868TIP3    H178019   6.157   4.821  16.747  1.7798 -1.4404  1.0200
18868TIP3    H278020   6.073   4.695  16.748 -0.8345  0.2199 -0.2344
18869TIP3   OH278021   3.703   0.312   4.681 -0.4036 -0.3758 -0.0761
18869TIP3    H178022   3.795   0.338   4.681 -0.0056 -1.6491  1.2971
18869TIP3    H278023   3.657   0.386   4.720  0.3384 -0.5551  1.2020
18870TIP3   OH278024   3.508   6.188  11.859 -0.6803  0.0938  0.1390
18870TIP3    H178025   3.556   6.114  11.821  0.5107  0.7441  0.3363
18870TIP3    H278026   3.424   6.151  11.884 -0.5386 -0.9326 -0.8215
18871TIP3   OH278027   2.059   0.636   0.037  0.5511 -0.2405  0.2763
18871TIP3    H178028   2.127   0.570   0.025 -0.8389 -1.2866 -2.7377
18871TIP3    H278029   1.996   0.619  -0.033 -2.5630  1.0292  2.5313
18872TIP3   OH278030   1.277   5.015   4.595 -0.6358  0.1177 -0.1728
18872TIP3    H178031   1.277   5.051   4.684  3.7809  0.5506 -0.0929
18872TIP3    H278032   1.259   5.090   4.539 -0.7598  0.4323  0.2783
18873TIP3   OH278033   3.506   2.146  12.434  0.5617  0.6576 -0.3529
18873TIP3    H178034   3.600   2.161  12.437  0.7571 -0.5415  1.5882
18873TIP3    H278035   3.467   2.233  12.432  1.7031  1.3245  2.4199
18874TIP3   OH278036   0.639   4.189   2.012  0.2506 -0.1714 -0.0670
18874TIP3    H178037   0.658   4.238   2.092  2.3465 -2.0331  0.6556
18874TIP3    H278038   0.697   4.228   1.946  1.8395 -1.5209  0.4816
18875TIP3   OH278039   4.411   1.541  16.053 -0.1839  0.0926 -0.1276
18875TIP3    H178040   4.325   1.508  16.028 -1.1934  3.1484 -1.1937
18875TIP3    H278041   4.393   1.623  16.099  2.1425  1.5759 -1.6510
18876TIP3   OH278042   3.907   1.109   5.407 -0.4512 -0.3457 -0.0166
18876TIP3    H178043   3.840   1.093   5.473 -1.9913  0.5808 -1.2793
18876TIP3    H278044   3.980   1.148   5.455 -1.4807  0.1744  1.1536
18877TIP3   OH278045   0.814   3.647   0.912  0.3636 -0.4142 -0.6527
18877TIP3    H178046   0.899   3.634   0.955 -0.3019  1.4376  1.3760
18877TIP3    H278047   0.835   3.657   0.819  2.4503  0.6324 -0.1221
18878TIP3   OH278048   1.310   6.608  12.318  0.5686 -0.2224  0.7751
18878TIP3    H178049   1.402   6.613  12.341  0.2388  0.3105  2.0890
18878TIP3    H278050   1.282   6.699  12.309 -0.1067 -0.3293  1.6451
18879TIP3   OH278051   3.690   4.550  16.211  0.5341  0.3841 -0.1125
18879TIP3    H178052   3.618   4.497  16.176 -0.2628  0.2925  1.5975
18879TIP3    H278053   3.648   4.620  16.260  1.5951  0.3692  0.8715
18880TIP3   OH278054   4.426   2.022  11.572 -0.0495  0.1719  0.1388
18880TIP3    H178055   4.350   2.070  11.604 -0.5829  0.4916 -1.5304
18880TIP3    H278056   4.397   1.982  11.491  1.6171  0.4865 -0.6568
18881TIP3   OH278057   5.495   6.745   5.211  0.0676  0.0282 -0.2045
18881TIP3    H178058   5.472   6.817   5.269  0.3225 -0.6681  0.7887
18881TIP3    H278059   5.411   6.704   5.190 -0.0220  0.2514 -0.2835
18882TIP3   OH278060   5.179   1.931  15.440  0.5222  0.0024 -0.4229
18882TIP3    H178061   5.185   1.868  15.368  2.4032  0.0316 -0.3446
18882TIP3    H278062   5.165   2.015  15.397 -1.6895 -0.3611 -0.5426
18883TIP3   OH278063   6.478   6.265   3.656  0.4749  1.0021 -0.1287
18883TIP3    H178064   6.462   6.212   3.734 -1.1327 -0.9940 -1.7062
18883TIP3    H278065   6.573   6.265   3.646  0.6881  1.0587  1.6307
18884TIP3   OH278066   5.638   6.437   2.855 -0.1668  0.0969  0.5136
18884TIP3    H178067   5.659   6.348   2.828 -0.4760 -0.5845  2.3261
18884TIP3    H278068   5.607   6.427   2.946  0.8258  2.1801  1.1321
18885TIP3   OH278069   0.511   4.887   5.221 -0.1478  0.6697 -0.1425
18885TIP3    H178070   0.452   4.915   5.151  0.5749  1.2268 -0.5314
18885TIP3    H278071   0.458   4.827   5.274 -0.6140 -0.0042 -1.3349
18886TIP3   OH278072   1.335   1.673  16.590 -0.6489 -0.0743 -0.8850
18886TIP3    H178073   1.258   1.694  16.536 -0.8456 -1.2115 -1.0771
18886TIP3    H278074   1.398   1.635  16.528  0.6100  1.9903 -0.9777
18887TIP3   OH278075   1.941   2.775  14.664  0.5039  0.1471 -0.5312
18887TIP3    H178076   2.005   2.766  14.593 -0.1171 -1.0904 -0.9698
18887TIP3    H278077   1.858   2.792  14.620 -0.1585 -2.0078 -0.2653
18888TIP3   OH278078   6.490   2.408   2.562 -0.5245 -0.2264  0.0247
18888TIP3    H178079   6.406   2.446   2.536 -2.4405 -3.5102  0.7083
18888TIP3    H278080   6.517   2.355   2.487  1.8776  1.9764 -0.8004
18889TIP3   OH278081   5.992   4.370  11.992 -0.2557  0.2706  0.2233
18889TIP3    H178082   6.050   4.328  12.056 -0.3623  0.8383  0.7028
18889TIP3    H278083   6.000   4.464  12.011 -0.8355  0.3954 -0.1296
18890TIP3   OH278084   2.695   1.534   4.434 -0.3223  0.8567 -0.7649
18890TIP3    H178085   2.730   1.616   4.469  0.9615  0.1747 -0.3978
18890TIP3    H278086   2.768   1.495   4.386 -0.3209 -0.9766  0.6320
18891TIP3   OH278087   3.109   0.161   0.688  0.2685 -0.0811 -0.0172
18891TIP3    H178088   3.110   0.233   0.625  1.4604 -0.4265 -0.4342
18891TIP3    H278089   3.179   0.103   0.658 -1.7410 -2.3100 -0.7220
18892TIP3   OH278090   4.817   4.143  13.702 -0.1829  0.2412  0.3481
18892TIP3    H178091   4.842   4.078  13.768  0.6498  1.3496  1.2003
18892TIP3    H278092   4.756   4.098  13.644 -0.3689 -0.9989  1.4562
18893TIP3   OH278093   4.512   4.225   2.851 -0.2981 -0.2075  0.1251
18893TIP3    H178094   4.586   4.173   2.883  0.4554  1.6644  1.5811
18893TIP3    H278095   4.435   4.178   2.882  0.3638  0.9710  4.1638
18894TIP3   OH278096   6.498   1.472   5.864 -0.2213  0.2881  0.5302
18894TIP3    H178097   6.441   1.395   5.855 -0.6168  0.6772 -0.4507
18894TIP3    H278098   6.505   1.486   5.959 -1.4064 -0.0344  0.6779
18895TIP3   OH278099   1.822   2.040  16.322 -0.2604 -0.6916  0.7766
18895TIP3    H178100   1.860   2.089  16.396  2.3446 -2.3668  0.6818
18895TIP3    H278101   1.897   2.023  16.265 -1.4697 -2.9145 -0.2366
18896TIP3   OH278102   3.153   6.294  13.598 -0.4540  0.5085 -0.0570
18896TIP3    H178103   3.080   6.309  13.539  1.7260  2.2975 -2.5626
18896TIP3    H278104   3.225   6.266  13.541  1.4476  1.0907  1.8991
18897TIP3   OH278105   3.411   3.838   5.278 -0.1371 -0.0500  0.1998
18897TIP3    H178106   3.444   3.892   5.349 -1.2472 -0.1569  0.8315
18897TIP3    H278107   3.414   3.895   5.201 -1.4694  1.0151  0.8908
18898TIP3   OH278108   6.396   6.558  15.880 -0.3204 -0.3162 -0.0172
18898TIP3    H178109   6.397   6.491  15.948 -1.7407 -1.3551 -0.9546
18898TIP3    H278110   6.417   6.639  15.925  1.6700 -1.4053  1.1198
18899TIP3   OH278111   5.612   3.943   1.566  0.3646  0.7621 -0.0803
18899TIP3    H178112   5.529   3.908   1.598  0.8022 -1.3842 -1.0580
18899TIP3    H278113   5.660   3.968   1.645 -1.2775  2.3177  0.4880
18900TIP3   OH278114   3.588   0.176  16.038  0.5722  0.1784  0.2682
18900TIP3    H178115   3.533   0.222  15.975 -0.2822  0.9387  1.5442
18900TIP3    H278116   3.587   0.085  16.008 -0.0910  0.4586 -0.6094
18901TIP3   OH278117   1.810   4.333   6.184  0.2382  0.1662  0.0263
18901TIP3    H178118   1.887   4.307   6.234  0.5844  1.3161  0.1280
18901TIP3    H278119   1.737   4.324   6.245  0.0725 -2.1905 -0.4590
18902TIP3   OH278120   0.743   0.504   6.493 -0.2439 -0.6278  0.6819
18902TIP3    H178121   0.778   0.531   6.579  0.3170  1.3684 -0.1165
18902TIP3    H278122   0.696   0.581   6.461 -1.6583 -1.8195 -0.2155
18903TIP3   OH278123   5.802   0.978   2.638  0.0212  0.0170 -0.3595
18903TIP3    H178124   5.770   1.064   2.612 -0.2154 -0.0589 -0.3190
18903TIP3    H278125   5.786   0.973   2.732 -0.4811 -0.2898 -0.4582
18904TIP3   OH278126   3.025   0.975   5.167 -0.6864 -0.1705  0.7245
18904TIP3    H178127   3.094   0.923   5.207 -0.0320  0.6408  0.6707
18904TIP3    H278128   3.048   1.066   5.186 -0.3791  0.2492 -1.3924
18905TIP3   OH278129   0.944   3.806   5.451 -0.1008  0.1338 -0.4482
18905TIP3    H178130   0.929   3.712   5.459 -0.4958  0.1837 -0.5840
18905TIP3    H278131   0.880   3.845   5.510 -0.6978  0.3646 -1.2376
18906TIP3   OH278132   0.925   0.426  14.435 -0.0791  0.4821 -0.4551
18906TIP3    H178133   0.880   0.356  14.482  1.3796 -0.2078 -0.0237
18906TIP3    H278134   0.895   0.418  14.345  0.4124 -1.0443 -0.5161
18907TIP3   OH278135   1.565   6.655   4.309  0.2218 -0.0587  0.6977
18907TIP3    H178136   1.517   6.582   4.270 -0.4216  0.9643 -0.5201
18907TIP3    H278137   1.564   6.638   4.403 -2.5644 -0.1177  0.7345
18908TIP3   OH278138   3.144   3.890  14.834 -0.1825  0.1924 -0.1994
18908TIP3    H178139   3.127   3.977  14.799 -1.4088  0.0408 -0.0370
18908TIP3    H278140   3.209   3.904  14.903 -2.1292  1.4033  1.5461
18909TIP3   OH278141   5.006   1.283  14.721  0.0865  0.5612 -0.1438
18909TIP3    H178142   5.054   1.283  14.638  1.4315  0.6658  0.5985
18909TIP3    H278143   4.995   1.375  14.743 -1.3793  0.5705 -0.7883
18910TIP3   OH278144   2.951   5.915  10.672 -0.0493 -0.4077 -0.2629
18910TIP3    H178145   3.033   5.963  10.674  0.7311 -1.6983 -0.4312
18910TIP3    H278146   2.887   5.979  10.641  0.7378  0.8030  0.5439
18911TIP3   OH278147   6.218   3.117  16.812  0.3519 -0.3140  0.3595
18911TIP3    H178148   6.193   3.068  16.890  1.6053 -0.3163  0.7906
18911TIP3    H278149   6.135   3.139  16.769 -0.5309  1.6050  2.8495
18912TIP3   OH278150   2.811   0.369  16.783  0.7324  0.0761 -0.1758
18912TIP3    H178151   2.817   0.461  16.806  1.0316 -0.0439  0.2258
18912TIP3    H278152   2.902   0.340  16.773  0.6333 -0.1061 -0.5864
18913TIP3   OH278153   2.754   2.667   0.262  0.4492  0.1591  0.0160
18913TIP3    H178154   2.839   2.703   0.240  0.2629  0.5267 -0.1156
18913TIP3    H278155   2.735   2.604   0.192  0.0905  0.9440 -0.6066
18914TIP3   OH278156   4.303   2.663   5.486 -0.0774  0.2620 -0.4801
18914TIP3    H178157   4.343   2.580   5.511  0.5414  0.6152 -0.2634
18914TIP3    H278158   4.262   2.646   5.401  1.7640  0.2388 -1.4158
18915TIP3   OH278159   3.702   5.491   0.803  0.2960 -0.5378  0.2169
18915TIP3    H178160   3.655   5.532   0.730  0.8785  0.3609  0.3296
18915TIP3    H278161   3.634   5.442   0.850 -0.0748 -1.1692 -0.9365
18916TIP3   OH278162   4.433   6.454  12.648 -0.2117  0.0483 -0.0612
18916TIP3    H178163   4.493   6.444  12.574 -0.8355  0.7115 -0.6777
18916TIP3    H278164   4.355   6.405  12.622 -0.9207  1.3197 -0.4197
18917TIP3   OH278165   4.830   3.732   1.559  0.1034 -0.6420 -0.2594
18917TIP3    H178166   4.759   3.668   1.569 -1.2366  0.5666 -1.5282
18917TIP3    H278167   4.805   3.784   1.482  2.4806 -0.2750 -0.8791
18918TIP3   OH278168   6.420   3.886  15.764  0.3583 -0.0370 -0.2019
18918TIP3    H178169   6.510   3.918  15.752  0.1505 -0.2899 -2.9968
18918TIP3    H278170   6.402   3.835  15.685 -1.5222 -1.8376  1.2906
18919TIP3   OH278171   0.826   3.588  16.332 -0.3942  0.0267 -0.4027
18919TIP3    H178172   0.837   3.577  16.237 -1.2431 -0.5924 -0.4504
18919TIP3    H278173   0.814   3.498  16.365 -2.2312  0.3594 -0.0245
18920TIP3   OH278174   3.539   1.488   5.748  0.9552  0.2606  0.0290
18920TIP3    H178175   3.454   1.444   5.746  0.6333  0.6822  1.9440
18920TIP3    H278176   3.527   1.566   5.694 -0.5475  1.3506  1.8144
18921TIP3   OH278177   4.844   0.465  15.896 -0.5149  0.2712  0.0625
18921TIP3    H178178   4.871   0.492  15.983 -1.4404  0.5147  0.2849
18921TIP3    H278179   4.761   0.418  15.910  0.2653 -1.3479 -0.4793
18922TIP3   OH278180   0.309   4.325   0.784 -0.6035 -0.0245  0.4914
18922TIP3    H178181   0.316   4.406   0.734 -0.7493 -0.6439 -0.5665
18922TIP3    H278182   0.216   4.320   0.809 -0.8077 -0.3581 -0.3123
18923TIP3   OH278183   3.350   5.893  11.534  1.2159 -0.2500 -0.2933
18923TIP3    H178184   3.351   5.838  11.456  1.0449  0.2031 -0.6194
18923TIP3    H278185   3.257   5.910  11.551  1.2450 -0.4986  0.1160
18924TIP3   OH278186   4.965   2.544  16.936 -0.1253  0.0530  0.5796
18924TIP3    H178187   4.939   2.605  16.867  0.6802 -0.8196 -0.5281
18924TIP3    H278188   4.917   2.464  16.916  1.5426 -0.8107 -0.0963
18925TIP3   OH278189   3.953   6.236  14.825 -0.2870  0.1108  0.0104
18925TIP3    H178190   3.958   6.190  14.741 -0.7715 -0.6312  0.3814
18925TIP3    H278191   4.039   6.222  14.866  0.5297  1.7796 -1.0037
18926TIP3   OH278192   2.748   2.378   1.706 -0.4312 -0.3538 -0.2571
18926TIP3    H178193   2.733   2.397   1.799 -1.9834 -2.9519  0.1475
18926TIP3    H278194   2.829   2.327   1.705 -0.6682 -0.7421 -0.2240
18927TIP3   OH278195   2.092   1.674   2.062 -0.5181 -0.1393 -0.2212
18927TIP3    H178196   2.059   1.687   1.972 -2.1939 -0.6097  0.2802
18927TIP3    H278197   2.110   1.763   2.093 -0.3792  0.0630 -0.8565
18928TIP3   OH278198   6.721   0.448  12.751 -0.0944 -0.0100  0.2047
18928TIP3    H178199   6.795   0.507  12.756 -0.0260 -0.1820  1.4665
18928TIP3    H278200   6.669   0.480  12.677  0.3559  1.1302  0.3701
18929TIP3   OH278201   5.744   5.255   4.387  0.3761  0.2109 -0.1541
18929TIP3    H178202   5.650   5.269   4.383  0.5698  1.4336 -1.0273
18929TIP3    H278203   5.755   5.180   4.446 -1.0125  1.3005  1.6079
18930TIP3   OH278204   2.555   3.224   2.759 -0.1334  0.1899 -0.4252
18930TIP3    H178205   2.520   3.311   2.780  0.9868  0.2645  1.4159
18930TIP3    H278206   2.613   3.204   2.832  0.2541 -1.7856 -1.2111
18931TIP3   OH278207   0.686   3.812   3.320 -0.5130  0.1665  0.0329
18931TIP3    H178208   0.655   3.804   3.410  1.2920  1.0343  0.7942
18931TIP3    H278209   0.712   3.904   3.312  0.8175 -0.2556 -0.8369
18932TIP3   OH278210   4.128   6.380   2.623  0.4977 -0.5382 -0.0935
18932TIP3    H178211   4.132   6.448   2.690  0.6585 -2.3850  1.8935
18932TIP3    H278212   4.218   6.351   2.613  0.5842  0.2281 -1.7051
18933TIP3   OH278213   2.080   1.238   0.098  0.8052  0.2077  0.1726
18933TIP3    H178214   2.164   1.191   0.101  0.8142  0.2779  1.4864
18933TIP3    H278215   2.015   1.168   0.091  0.8728  0.0289  1.1746
18934TIP3   OH278216   4.947   6.042   1.762 -0.2884  0.2991 -0.1628
18934TIP3    H178217   5.030   6.004   1.733 -0.2932  0.5792 -0.5441
18934TIP3    H278218   4.884   6.017   1.695 -0.3693  0.6728 -0.2279
18935TIP3   OH278219   0.749   0.636  13.126  1.0016 -0.7015 -0.6571
18935TIP3    H178220   0.740   0.657  13.219 -0.3851  1.6574 -1.2156
18935TIP3    H278221   0.715   0.547  13.118 -0.3435 -0.3892  0.9033
18936TIP3   OH278222   2.271   0.459   4.747  0.1276  0.2378 -1.1110
18936TIP3    H178223   2.189   0.420   4.715 -0.4677  0.4042  0.1439
18936TIP3    H278224   2.313   0.389   4.797  1.6987 -0.4455 -3.2327
18937TIP3   OH278225   5.755   4.466   3.929 -0.0405 -0.4498  0.0266
18937TIP3    H178226   5.709   4.520   3.864 -0.2631 -1.1149 -0.3769
18937TIP3    H278227   5.711   4.381   3.924  0.2258 -0.6304  0.7468
18938TIP3   OH278228   2.308   2.323   3.253 -0.1865  0.2271 -0.6542
18938TIP3    H178229   2.219   2.290   3.240 -0.9020  1.5118  0.6493
18938TIP3    H278230   2.296   2.416   3.273  1.6254  0.9363 -2.5288
18939TIP3   OH278231   6.785   2.708  13.019 -0.0512  0.1812  0.2645
18939TIP3    H178232   6.746   2.625  13.050  0.7641 -0.0393  0.7094
18939TIP3    H278233   6.791   2.697  12.924  2.4813 -1.3868  0.5111
18940TIP3   OH278234   0.798   1.728  16.556 -0.0126  0.0047 -0.2123
18940TIP3    H178235   0.750   1.713  16.638 -2.3168  0.5548 -1.3721
18940TIP3    H278236   0.774   1.654  16.500 -0.8920  1.1532 -1.4063
18941TIP3   OH278237   3.907   3.783  12.479 -0.0612 -0.2286  0.3011
18941TIP3    H178238   3.915   3.705  12.424 -2.6208  0.5159 -1.3193
18941TIP3    H278239   3.902   3.749  12.569  0.5899 -1.7694 -0.2104
18942TIP3   OH278240   3.593   2.532  14.411  0.0407  0.4819 -0.3922
18942TIP3    H178241   3.534   2.526  14.486 -0.0701  1.3795 -0.3960
18942TIP3    H278242   3.637   2.616  14.422 -0.1217  0.7177 -1.4394
18943TIP3   OH278243   2.181   5.085  16.089 -0.2407  0.2819 -0.0533
18943TIP3    H178244   2.200   5.045  16.004  0.2829 -0.6612  0.4900
18943TIP3    H278245   2.174   5.011  16.150  2.0996  1.0187  1.2436
18944TIP3   OH278246   6.053   3.844   4.415 -0.1763 -0.3214  0.5240
18944TIP3    H178247   5.969   3.863   4.373  0.4278 -0.2166 -0.6802
18944TIP3    H278248   6.049   3.751   4.436 -0.0622 -0.6588 -0.8346
18945TIP3   OH278249   2.002   4.847  14.704 -0.0213 -0.1165  0.2756
18945TIP3    H178250   1.918   4.808  14.727 -0.6614  1.0210 -0.0797
18945TIP3    H278251   1.991   4.874  14.613  0.5461  0.5159  0.3901
18946TIP3   OH278252   0.909   0.205  16.699  0.4042  0.1315 -0.3256
18946TIP3    H178253   0.912   0.195  16.604 -0.0405 -0.0478 -0.3244
18946TIP3    H278254   0.936   0.295  16.715 -0.3259  0.4230 -0.6868
18947TIP3   OH278255   2.889   5.091  14.941 -0.4777 -0.2492 -0.8281
18947TIP3    H178256   2.976   5.106  14.979 -1.4146  2.6550  0.4438
18947TIP3    H278257   2.901   5.106  14.848  0.2585  1.0011 -0.5545
18948TIP3   OH278258   6.081   5.567   0.876 -0.7943  0.1327 -0.5577
18948TIP3    H178259   6.121   5.548   0.961  0.6256  0.4757 -1.1099
18948TIP3    H278260   6.093   5.487   0.826  0.6553  0.7165 -1.2249
18949TIP3   OH278261   1.670   2.172  11.696  0.2127  0.5515  0.4027
18949TIP3    H178262   1.752   2.201  11.656 -0.8032  1.2548 -1.2795
18949TIP3    H278263   1.608   2.242  11.677 -1.2948 -0.8742 -0.1832
18950TIP3   OH278264   4.650   0.529  16.659  0.2029  0.3305  0.1575
18950TIP3    H178265   4.711   0.464  16.623  1.7158  1.7384  0.0680
18950TIP3    H278266   4.665   0.525  16.753 -0.2288  0.0522  0.2150
18951TIP3   OH278267   1.308   4.231   5.859 -0.2666  0.3314  0.5712
18951TIP3    H178268   1.300   4.140   5.889 -0.5117  0.2947  0.3994
18951TIP3    H278269   1.231   4.275   5.897  0.4969  0.7583  1.6859
18952TIP3   OH278270   3.269   4.035   2.847  0.0310 -0.0740 -0.9449
18952TIP3    H178271   3.324   4.111   2.868  0.4242  0.3665 -3.2527
18952TIP3    H278272   3.323   3.982   2.788 -0.8719 -1.2830 -0.7279
18953TIP3   OH278273   2.843   6.353   1.748  0.8105 -0.0853  0.1425
18953TIP3    H178274   2.823   6.262   1.771 -1.4367  0.3292  0.0580
18953TIP3    H278275   2.841   6.354   1.652  0.0301  0.1954  0.1554
18954TIP3   OH278276   0.180   6.214  11.781 -0.1402  0.1786  0.2889
18954TIP3    H178277   0.253   6.275  11.793 -0.2402  0.1104  1.2858
18954TIP3    H278278   0.104   6.261  11.815 -0.6709  0.4392 -1.1792
18955TIP3   OH278279   4.235   6.709   5.126  0.3150 -0.4695  0.2043
18955TIP3    H178280   4.298   6.764   5.173  0.0862  0.2815 -0.3352
18955TIP3    H278281   4.289   6.651   5.073  0.5629 -0.1649  0.1177
18956TIP3   OH278282   5.095   0.890   5.363  0.3159 -0.2189 -0.3490
18956TIP3    H178283   5.099   0.800   5.331 -0.6124 -1.7896  3.3306
18956TIP3    H278284   5.051   0.939   5.294  2.7325 -2.0212 -3.3944
18957TIP3   OH278285   2.292   2.587   3.285 -0.1705  0.0817  0.5862
18957TIP3    H178286   2.248   2.605   3.368 -0.6480 -0.9115  0.5657
18957TIP3    H278287   2.254   2.650   3.223 -0.1989  0.4680  0.9906
18958TIP3   OH278288   3.936   3.494   5.107  0.0167  0.0774 -0.3219
18958TIP3    H178289   3.866   3.527   5.051 -1.2282 -1.6327  0.1667
18958TIP3    H278290   4.000   3.457   5.047 -0.2031  0.3082 -0.7012
18959TIP3   OH278291   6.058   6.169   2.967  0.0042  0.1576  0.0236
18959TIP3    H178292   6.132   6.111   2.947  0.5908  1.5081 -2.1056
18959TIP3    H278293   6.048   6.164   3.062  2.6827 -0.2867  0.3552
18960TIP3   OH278294   4.362   1.175  13.200 -0.4835 -0.2860  0.2380
18960TIP3    H178295   4.453   1.173  13.168 -1.2038 -0.8141 -1.9569
18960TIP3    H278296   4.366   1.131  13.285  1.2781 -0.4537  0.1211
18961TIP3   OH278297   1.030   2.207   4.437  0.0316  0.2806 -0.5231
18961TIP3    H178298   1.086   2.262   4.382  2.9695 -0.8029  1.1854
18961TIP3    H278299   1.031   2.250   4.523 -1.4112 -0.0347 -0.3221
18962TIP3   OH278300   1.033   5.854   1.277 -0.2698 -0.7948  0.2228
18962TIP3    H178301   1.083   5.885   1.202  0.2176 -1.3098  0.3244
18962TIP3    H278302   0.943   5.844   1.245 -0.9646  2.6494  0.6859
18963TIP3   OH278303   1.426   5.104   0.643  0.1158 -0.0844  0.1022
18963TIP3    H178304   1.429   5.097   0.738  1.1678  1.2994  0.1953
18963TIP3    H278305   1.333   5.098   0.621 -0.0917 -1.0825  1.1381
18964TIP3   OH278306   4.369   6.500   3.318  0.3005 -0.2814 -0.3095
18964TIP3    H178307   4.346   6.409   3.336  2.0304 -0.6921 -0.0341
18964TIP3    H278308   4.321   6.551   3.385 -1.0215 -0.9129 -0.7377
18965TIP3   OH278309   3.962   1.894  13.228 -0.4624  0.3940  0.4517
18965TIP3    H178310   3.983   1.981  13.262 -1.0673  0.4317  0.7316
18965TIP3    H278311   3.962   1.837  13.304  2.1142 -0.3077  0.0166
18966TIP3   OH278312   5.124   3.662  16.858  0.7943  0.4352  0.6485
18966TIP3    H178313   5.089   3.641  16.771  3.3781 -1.5337 -0.0581
18966TIP3    H278314   5.055   3.634  16.918  0.8789 -3.1091 -0.6472
18967TIP3   OH278315   4.880   0.739   3.348 -0.2617 -0.6878  0.5188
18967TIP3    H178316   4.790   0.755   3.377 -1.1031 -3.6367 -0.1225
18967TIP3    H278317   4.915   0.678   3.413  0.1349 -2.0819 -0.9413
18968TIP3   OH278318   4.031   1.122   3.149  0.1738  0.0563 -0.0476
18968TIP3    H178319   4.003   1.050   3.093  1.2026  0.5793 -1.2738
18968TIP3    H278320   4.109   1.089   3.194 -0.1564 -0.0658  0.4416
18969TIP3   OH278321   1.962   6.701   0.230 -0.0894  0.7786 -0.3048
18969TIP3    H178322   1.930   6.652   0.305 -1.2481 -0.7970 -1.7613
18969TIP3    H278323   1.957   6.639   0.157  0.9569  2.2627 -1.6914
18970TIP3   OH278324   0.159   0.164   3.121  0.3133 -0.2430 -0.0724
18970TIP3    H178325   0.152   0.101   3.050 -0.1725 -0.5456  0.2420
18970TIP3    H278326   0.227   0.225   3.092 -1.1347  0.7288 -1.6131
18971TIP3   OH278327   1.837   3.254  12.342  0.5742 -0.1503  0.2599
18971TIP3    H178328   1.790   3.211  12.271 -0.7672  0.0707  0.9810
18971TIP3    H278329   1.863   3.182  12.401 -1.0278 -0.0783  1.0952
18972TIP3   OH278330   2.499   4.306   0.992  0.3682 -0.3555 -0.4273
18972TIP3    H178331   2.486   4.221   1.034  2.2977  0.5376  2.2285
18972TIP3    H278332   2.547   4.286   0.912 -0.2835 -1.8283 -0.4851
18973TIP3   OH278333   1.383   3.876   5.732  0.2152 -0.3735  0.0160
18973TIP3    H178334   1.318   3.889   5.801 -0.8208 -1.7677 -0.6492
18973TIP3    H278335   1.398   3.782   5.731 -0.1740 -0.4503 -1.9690
18974TIP3   OH278336   2.304   6.418  17.061 -0.5386  0.2139  0.0673
18974TIP3    H178337   2.398   6.420  17.043 -0.5838  1.1850 -0.1300
18974TIP3    H278338   2.263   6.430  16.975 -0.8959 -2.0137 -0.1218
18975TIP3   OH278339   1.801   2.857  11.311  0.4042  0.3395  0.0797
18975TIP3    H178340   1.752   2.925  11.358  1.2630  0.0171  1.4907
18975TIP3    H278341   1.815   2.894  11.223  1.7754  2.5027  1.1053
18976TIP3   OH278342   2.912   6.782   4.541  0.6384  0.1598 -0.0188
18976TIP3    H178343   2.934   6.784   4.634 -0.5105 -0.6605  0.2909
18976TIP3    H278344   2.884   6.872   4.522  0.0497  0.1314  0.6537
18977TIP3   OH278345   4.586   1.903   4.137 -0.2946  0.1450  0.4100
18977TIP3    H178346   4.670   1.875   4.173 -0.8820 -1.1523  0.8353
18977TIP3    H278347   4.602   1.992   4.104  1.2901 -0.1584  0.2846
18978TIP3   OH278348   5.134   6.537  14.392  0.2849  0.5582  0.2467
18978TIP3    H178349   5.087   6.585  14.324  1.1181 -0.4947 -1.1010
18978TIP3    H278350   5.198   6.600  14.426 -0.7032  1.3559  0.6967
18979TIP3   OH278351   2.935   2.271   1.411  0.4753  0.2901 -0.1347
18979TIP3    H178352   2.944   2.205   1.480 -0.6584 -0.1597 -0.3918
18979TIP3    H278353   2.908   2.221   1.334  1.3561  0.8356 -0.8185
18980TIP3   OH278354   1.163   4.174  15.665 -0.4287 -0.1705  0.1221
18980TIP3    H178355   1.166   4.093  15.717  0.3565  0.1268  0.5586
18980TIP3    H278356   1.077   4.212  15.684  0.5328  0.9198  2.7643
18981TIP3   OH278357   5.821   3.057   3.134  0.1151 -0.0236  0.2832
18981TIP3    H178358   5.763   3.089   3.066  0.0724 -1.3308 -0.3272
18981TIP3    H278359   5.795   3.105   3.213 -1.0236  0.2296 -0.2290
18982TIP3   OH278360   3.579   4.513   2.744 -0.8985  0.0307 -0.2180
18982TIP3    H178361   3.589   4.439   2.684  0.5494  1.8475 -2.3839
18982TIP3    H278362   3.642   4.495   2.814  1.2052  0.2524 -1.9459
18983TIP3   OH278363   6.489   6.603   3.259 -0.3148  0.5524 -0.0631
18983TIP3    H178364   6.468   6.512   3.237  0.4197  0.5506 -0.8154
18983TIP3    H278365   6.523   6.640   3.178  2.1558  0.6643  0.9580
18984TIP3   OH278366   1.159   2.796   4.153  0.3219  0.2480 -0.3706
18984TIP3    H178367   1.176   2.834   4.066  1.9900 -0.2961 -0.3282
18984TIP3    H278368   1.221   2.724   4.159 -1.3058 -1.1473  0.4155
18985TIP3   OH278369   4.115   4.386  17.121  0.0481 -0.0566 -0.6405
18985TIP3    H178370   4.102   4.361  17.030 -2.2858 -0.5686 -0.2539
18985TIP3    H278371   4.210   4.394  17.131  0.5028 -1.9852 -2.5867
18986TIP3   OH278372   1.191   2.754   2.177  0.0043  0.3752 -0.0692
18986TIP3    H178373   1.159   2.695   2.109  0.4198  0.9117 -0.7398
18986TIP3    H278374   1.128   2.744   2.248 -0.7169  0.1724 -0.7206
18987TIP3   OH278375   2.461   5.901   5.698 -0.1218  0.5407 -0.2606
18987TIP3    H178376   2.545   5.907   5.653  0.4515  2.3706  0.9845
18987TIP3    H278377   2.444   5.807   5.705  2.8697  0.0115  1.3555
18988TIP3   OH278378   2.096   3.492   4.222 -0.1361  0.0037 -0.5855
18988TIP3    H178379   2.185   3.461   4.202 -0.5327 -1.6634  0.1246
18988TIP3    H278380   2.084   3.567   4.164  1.4713 -0.1762 -1.2120
18989TIP3   OH278381   5.368   1.678  11.840 -0.3534 -0.3702  0.5104
18989TIP3    H178382   5.332   1.766  11.824  2.9138  0.7882 -1.4533
18989TIP3    H278383   5.349   1.630  11.759 -3.3241 -2.0967  2.0638
18990TIP3   OH278384   0.089   6.210  15.404 -0.5235  0.2624  0.0391
18990TIP3    H178385   0.077   6.293  15.451  1.3427 -0.4763  1.9732
18990TIP3    H278386   0.155   6.230  15.338  2.6945 -0.3089  2.7847
18991TIP3   OH278387   5.360   2.190  12.111  0.0743  0.3791  0.0947
18991TIP3    H178388   5.277   2.161  12.074  0.5029  0.3120 -0.8311
18991TIP3    H278389   5.343   2.196  12.205 -0.1308 -2.5544  0.3350
18992TIP3   OH278390   5.808   1.520   1.888 -0.5493 -0.2497 -0.1385
18992TIP3    H178391   5.822   1.614   1.889  0.4293 -0.3793  1.5227
18992TIP3    H278392   5.865   1.487   1.818  1.9351  0.0444  1.6356
18993TIP3   OH278393   1.794   2.468   4.100 -0.4199 -0.2638  0.4098
18993TIP3    H178394   1.783   2.440   4.009 -0.2053 -0.6945  0.5143
18993TIP3    H278395   1.710   2.510   4.122 -0.4495 -0.1061 -0.0033
18994TIP3   OH278396   3.452   2.151   4.226 -0.1780  0.4815 -0.5516
18994TIP3    H178397   3.381   2.186   4.279  1.1273 -0.4262  1.9540
18994TIP3    H278398   3.477   2.224   4.169 -1.9615  1.3364 -0.3223
18995TIP3   OH278399   0.388   1.673   0.913 -0.7551  0.3594 -0.1808
18995TIP3    H178400   0.398   1.580   0.936  0.3095  0.3544 -0.6313
18995TIP3    H278401   0.334   1.709   0.983  0.3356 -0.2057  0.9910
18996TIP3   OH278402   1.444   1.970  12.200  0.2712  0.2204  0.1705
18996TIP3    H178403   1.532   1.973  12.163  0.2900  2.0481  0.2916
18996TIP3    H278404   1.444   2.036  12.270 -0.7474 -0.8410  1.2211
18997TIP3   OH278405   5.367   1.674   2.518 -0.7191 -0.0217  0.9303
18997TIP3    H178406   5.324   1.599   2.475 -2.0193  2.2844 -2.1786
18997TIP3    H278407   5.299   1.712   2.573 -0.8584  0.3070  0.5340
18998TIP3   OH278408   5.604   6.023   2.121  0.1405  0.1177  0.1468
18998TIP3    H178409   5.616   5.991   2.211  1.0468 -0.6138 -0.2147
18998TIP3    H278410   5.694   6.038   2.089 -0.1730  0.3695 -0.6396
18999TIP3   OH278411   3.170   1.359   3.040 -0.5247  0.4561  0.2948
18999TIP3    H178412   3.192   1.365   3.133 -0.0752 -0.0298  0.2322
18999TIP3    H278413   3.082   1.322   3.038 -1.9147  3.4614  0.5808
19000TIP3   OH278414   4.848   5.208  12.578  0.5225  0.7459 -0.4118
19000TIP3    H178415   4.875   5.121  12.549  0.4017  0.7645 -0.5765
19000TIP3    H278416   4.891   5.218  12.663 -0.3334  0.0817  0.1203
19001TIP3   OH278417   5.810   4.172   6.152  0.0760  0.1181 -0.0260
19001TIP3    H178418   5.882   4.202   6.208 -0.4461 -0.0351  0.7403
19001TIP3    H278419   5.847   4.100   6.101  0.2001 -0.6178  1.0787
19002TIP3   OH278420   1.123   3.824   2.607  0.0626 -0.5488 -0.3679
19002TIP3    H178421   1.171   3.907   2.599 -0.1614 -0.3748  0.0708
19002TIP3    H278422   1.179   3.760   2.563  0.3109 -0.1935 -0.5760
19003TIP3   OH278423   1.988   1.876   5.348  0.4008 -0.8970  0.0214
19003TIP3    H178424   1.980   1.846   5.439 -1.1507 -1.0489 -0.1483
19003TIP3    H278425   2.010   1.797   5.299 -0.0050 -1.0553  0.0933
19004TIP3   OH278426   1.790   0.412   2.577 -0.1883  0.5551  0.1165
19004TIP3    H178427   1.874   0.451   2.552  0.0569 -0.2761 -0.4213
19004TIP3    H278428   1.729   0.485   2.580  0.4190  1.0804 -0.1216
19005TIP3   OH278429   4.223   1.033  11.180 -0.1926 -0.5969 -0.0177
19005TIP3    H178430   4.152   1.094  11.159  0.3248 -0.4279 -1.3743
19005TIP3    H278431   4.226   0.973  11.106  1.1642 -0.5184 -0.0504
19006TIP3   OH278432   0.158   4.337   3.666 -0.5959 -0.1549 -0.4592
19006TIP3    H178433   0.201   4.258   3.634  0.7493  0.7576 -0.9724
19006TIP3    H278434   0.215   4.369   3.736 -1.4664  0.0223  0.1874
19007TIP3   OH278435   5.446   1.213   3.512 -0.2492  0.2678  0.8582
19007TIP3    H178436   5.352   1.214   3.530 -0.6654  1.5363 -1.1094
19007TIP3    H278437   5.456   1.147   3.444  0.3565 -0.0767  1.2703
19008TIP3   OH278438   5.212   2.386  12.618  0.2310 -0.0599  0.1945
19008TIP3    H178439   5.277   2.354  12.680  1.1203  0.7179 -0.3031
19008TIP3    H278440   5.191   2.474  12.648 -0.6947 -0.3505  0.4184
19009TIP3   OH278441   5.488   0.533  11.557  0.3477  0.5584 -0.2774
19009TIP3    H178442   5.553   0.481  11.604  0.5472 -1.5572 -2.6562
19009TIP3    H278443   5.414   0.473  11.544 -0.6248  1.8035 -0.6350
19010TIP3   OH278444   4.589   4.199   3.955 -0.0668 -0.4160 -0.2419
19010TIP3    H178445   4.672   4.164   3.924 -0.2338 -1.7287  0.7066
19010TIP3    H278446   4.611   4.245   4.037 -0.1608 -0.0600 -0.4130
19011TIP3   OH278447   3.686   5.622   3.090 -0.0100  0.2340  0.1331
19011TIP3    H178448   3.603   5.649   3.050 -0.4715 -0.8082  0.3540
19011TIP3    H278449   3.691   5.672   3.171 -2.2977 -2.3591  2.0265
19012TIP3   OH278450   0.395   1.080   2.034 -0.0995 -0.7070  0.4397
19012TIP3    H178451   0.439   1.062   2.117  1.0026 -1.4545 -0.2882
19012TIP3    H278452   0.336   1.153   2.054  0.7578 -0.3200  1.6837
19013TIP3   OH278453   5.918   6.030  15.181 -0.0626 -0.2167  0.0350
19013TIP3    H178454   5.932   5.975  15.259  1.1966  1.3224  0.9655
19013TIP3    H278455   5.825   6.023  15.163 -0.2862 -1.0538  1.3572
19014TIP3   OH278456   1.791   5.149  16.011  0.0135  0.2385 -0.3017
19014TIP3    H178457   1.823   5.239  16.025  1.5738  0.1028 -2.4008
19014TIP3    H278458   1.831   5.098  16.081  2.2605  0.5931 -1.2282
19015TIP3   OH278459   3.861   3.965   1.604  0.0662 -0.1843  0.2608
19015TIP3    H178460   3.877   4.041   1.547 -0.5724  0.8412  1.4076
19015TIP3    H278461   3.948   3.939   1.634  0.2558  0.3739  0.2123
19016TIP3   OH278462   2.613   2.172  10.952 -0.1671 -0.1061  0.0327
19016TIP3    H178463   2.527   2.144  10.985 -1.4860 -0.1031 -3.0485
19016TIP3    H278464   2.599   2.262  10.922  1.3227  0.3724  0.6733
19017TIP3   OH278465   3.525   6.348   4.472 -0.0161  0.3675  0.4828
19017TIP3    H178466   3.478   6.406   4.533  1.7875  0.2832  2.0443
19017TIP3    H278467   3.566   6.407   4.410 -1.4760  0.4830 -0.4296
19018TIP3   OH278468   4.373   5.064  16.674  0.2937 -0.2671  0.1106
19018TIP3    H178469   4.372   4.968  16.669  0.4392 -0.2719  0.1660
19018TIP3    H278470   4.427   5.083  16.751  2.5355 -0.0815 -1.4503
19019TIP3   OH278471   0.549   5.914  13.481  0.1815  0.2427  0.4518
19019TIP3    H178472   0.523   5.892  13.391  0.3516 -2.0707  0.9110
19019TIP3    H278473   0.469   5.946  13.522 -0.3701 -0.5118 -0.0100
19020TIP3   OH278474   5.607   2.068   1.240  0.6693  0.0506  0.2827
19020TIP3    H178475   5.603   2.077   1.335 -0.7697 -0.7457  0.3206
19020TIP3    H278476   5.531   2.117   1.208  0.4368 -0.7196 -0.3632
19021TIP3   OH278477   2.525   0.228  15.291 -0.4232  0.3896  0.2265
19021TIP3    H178478   2.478   0.151  15.322  0.6215 -1.1540 -1.8160
19021TIP3    H278479   2.497   0.299  15.350 -2.3629 -1.2523  1.3831
19022TIP3   OH278480   5.772   2.845   1.952 -0.0229 -0.2457  0.3990
19022TIP3    H178481   5.689   2.892   1.958 -0.0941 -0.3141 -0.0413
19022TIP3    H278482   5.796   2.850   1.859 -1.7554 -4.0069 -0.4488
19023TIP3   OH278483   2.596   5.361  14.304  0.1016  0.6730  0.1848
19023TIP3    H178484   2.521   5.369  14.245  0.2129  2.0023  0.1862
19023TIP3    H278485   2.564   5.396  14.388 -0.2009 -1.6257  1.0877
19024TIP3   OH278486   6.318   2.419   4.671 -0.1188  0.7980  0.4744
19024TIP3    H178487   6.259   2.446   4.741 -0.7968  1.9217 -0.4990
19024TIP3    H278488   6.311   2.323   4.670 -3.7750  0.9016 -1.0668
19025TIP3   OH278489   5.135   5.738  16.164 -0.2727  1.1727 -0.0279
19025TIP3    H178490   5.061   5.689  16.126  0.2588  0.0866  0.2958
19025TIP3    H278491   5.163   5.685  16.238  0.2968  2.0160  0.3759
19026TIP3   OH278492   1.802   3.537   5.389  0.7568 -0.2140  0.1114
19026TIP3    H178493   1.717   3.579   5.375 -0.2431 -1.9346  0.6926
19026TIP3    H278494   1.865   3.608   5.382 -0.7431  1.1593 -0.1214
19027TIP3   OH278495   0.917   3.571  16.075 -0.4200 -0.0670  0.4730
19027TIP3    H178496   0.928   3.502  16.009 -1.3307  1.2656 -1.1551
19027TIP3    H278497   0.862   3.637  16.032 -0.6155  1.1090  2.4052
19028TIP3   OH278498   6.165   3.117   4.214  0.8781  0.2975  0.6301
19028TIP3    H178499   6.138   3.058   4.285  0.0474  0.4947  0.4953
19028TIP3    H278500   6.084   3.163   4.190  1.2230  0.4721 -0.2229
19029TIP3   OH278501   3.579   0.758  11.335  0.2985 -0.2362  0.3741
19029TIP3    H178502   3.553   0.731  11.248 -1.0273  1.5521  0.1470
19029TIP3    H278503   3.672   0.781  11.327 -0.0918  1.0648 -0.9101
19030TIP3   OH278504   5.216   2.979   1.044  0.2695 -0.0400  0.5556
19030TIP3    H178505   5.212   2.904   1.104  0.6652 -0.8779 -0.4440
19030TIP3    H278506   5.124   3.002   1.029  0.1333 -0.6089  0.5143
19031TIP3   OH278507   1.408   2.973   1.194  0.1939  0.2647 -0.4923
19031TIP3    H178508   1.459   3.046   1.227  1.1786 -0.0914 -1.1663
19031TIP3    H278509   1.464   2.932   1.128 -1.5043  0.7002 -2.3261
19032TIP3   OH278510   0.389   1.595   0.591  0.1182 -0.5163 -0.0142
19032TIP3    H178511   0.394   1.565   0.500 -2.7463 -0.7057 -0.1990
19032TIP3    H278512   0.301   1.572   0.619  0.7500  0.0245  2.6793
19033TIP3   OH278513   2.454   1.678   2.915  0.1327  0.4943  0.0084
19033TIP3    H178514   2.363   1.707   2.919 -1.3556 -3.2731 -1.8944
19033TIP3    H278515   2.490   1.721   2.837  0.0818  2.0168  0.7846
19034TIP3   OH278516   1.093   6.029  13.713 -0.2435  0.0215 -0.5093
19034TIP3    H178517   1.101   6.114  13.670  1.7970  0.0818 -0.1377
19034TIP3    H278518   1.164   5.977  13.675 -2.1006 -1.9210 -1.5073
19035TIP3   OH278519   6.136   2.857   6.438  0.3671  0.3080 -0.4355
19035TIP3    H178520   6.225   2.876   6.407 -0.7497  1.9956 -2.9323
19035TIP3    H278521   6.110   2.779   6.389  0.5132 -0.3079  0.4458
19036TIP3   OH278522   1.426   3.921  16.804 -0.3725 -0.2295  0.0438
19036TIP3    H178523   1.500   3.882  16.851 -0.5439 -0.2943  0.2628
19036TIP3    H278524   1.369   3.955  16.873 -0.7911 -0.6259 -0.1050
19037TIP3   OH278525   1.532   1.953   0.652  0.2633  0.6237 -0.0900
19037TIP3    H178526   1.478   2.029   0.672 -0.7643  0.0918 -0.7581
19037TIP3    H278527   1.601   1.955   0.718 -0.0266  1.8461  0.2103
19038TIP3   OH278528   2.436   2.134   5.611 -0.3661  0.0010 -0.0170
19038TIP3    H178529   2.513   2.190   5.614  0.5973 -0.9723 -3.0199
19038TIP3    H278530   2.366   2.190   5.577 -0.6867  0.5350  1.4513
19039TIP3   OH278531   6.103   0.384  12.739 -0.5374 -0.1922  0.4417
19039TIP3    H178532   6.120   0.432  12.820 -1.9218  0.6974  0.2260
19039TIP3    H278533   6.190   0.367  12.703  0.0108  2.1002  0.5543
19040TIP3   OH278534   6.125   2.812  16.930  0.1311  0.6907 -0.2945
19040TIP3    H178535   6.056   2.789  16.992 -1.5119  1.4818 -1.7475
19040TIP3    H278536   6.201   2.832  16.985 -0.9880  0.4873  1.4023
19041TIP3   OH278537   4.883   3.176  15.377  0.2303  0.3272  0.3526
19041TIP3    H178538   4.831   3.253  15.353 -1.5191 -0.6772  0.7997
19041TIP3    H278539   4.881   3.174  15.472  0.1850 -0.3265  0.3415
19042TIP3   OH278540   5.894   3.329   5.596 -0.1661  0.5328  0.1030
19042TIP3    H178541   5.965   3.298   5.652 -1.6307 -0.3123  1.5776
19042TIP3    H278542   5.814   3.303   5.642 -1.4430  1.2298 -1.6184
19043TIP3   OH278543   3.293   6.279  14.224 -0.3868 -0.4582 -0.7200
19043TIP3    H178544   3.283   6.196  14.271 -1.8402 -0.8136 -1.6049
19043TIP3    H278545   3.234   6.339  14.269  1.1971  0.3534  0.3783
19044TIP3   OH278546   3.331   1.528  14.433 -0.2965 -0.0283 -0.2768
19044TIP3    H178547   3.342   1.590  14.505 -0.2631 -0.0023 -0.3036
19044TIP3    H278548   3.368   1.573  14.357 -0.0488 -0.1798 -0.2462
19045TIP3   OH278549   3.891   6.599  14.228  0.0428  0.5239 -0.1075
19045TIP3    H178550   3.964   6.660  14.216  0.3321  0.7482  2.3919
19045TIP3    H278551   3.923   6.516  14.195  1.5101  0.5988  1.0503
19046TIP3   OH278552   5.774   3.416   2.841  0.4830 -0.3720  0.2507
19046TIP3    H178553   5.688   3.403   2.800 -0.6261  0.4521  2.1268
19046TIP3    H278554   5.756   3.412   2.935  1.8491  3.1556  0.8204
19047TIP3   OH278555   2.008   0.086   0.459 -0.5771  0.1367  0.2319
19047TIP3    H178556   2.019   0.114   0.368 -1.7158  0.8878  0.2923
19047TIP3    H278557   1.986  -0.007   0.454  2.8417 -0.7772 -0.0087
19048TIP3   OH278558   5.270   3.413  13.105 -0.3061  0.0293 -0.7840
19048TIP3    H178559   5.366   3.416  13.104 -0.1892 -2.0944 -2.3757
19048TIP3    H278560   5.247   3.403  13.197  0.9191  1.4402 -0.2778
19049TIP3   OH278561   3.411   3.256   5.051 -0.4383 -0.5828  0.1218
19049TIP3    H178562   3.416   3.186   4.985 -0.5096 -0.3667 -0.1141
19049TIP3    H278563   3.498   3.294   5.052 -1.1439  1.2791 -1.9035
19050TIP3   OH278564   3.845   5.266   4.754  0.6732  0.1330 -0.2695
19050TIP3    H178565   3.925   5.317   4.764  1.1084 -0.4285 -0.8623
19050TIP3    H278566   3.840   5.214   4.834  0.5280  0.6752  0.0801
19051TIP3   OH278567   2.182   5.442  13.414  0.0488 -0.2994  0.0580
19051TIP3    H178568   2.171   5.362  13.362  0.0334 -0.0330 -0.3508
19051TIP3    H278569   2.242   5.417  13.484  1.6306 -0.1590 -1.1984
19052TIP3   OH278570   5.775   0.764   4.689 -0.1577  0.0218  0.4570
19052TIP3    H178571   5.715   0.734   4.622  0.6077 -0.6929  0.0732
19052TIP3    H278572   5.861   0.762   4.647  0.4250 -1.0490  1.6390
19053TIP3   OH278573   3.050   4.610   0.162  0.4629 -0.4440 -0.1871
19053TIP3    H178574   2.986   4.557   0.113  0.9359 -1.9537  0.7686
19053TIP3    H278575   3.135   4.583   0.127  0.8661 -2.0371  1.8017
19054TIP3   OH278576   2.512   1.142  15.459 -0.4930  0.3612  0.0102
19054TIP3    H178577   2.571   1.106  15.392 -0.0267 -0.0035  0.6026
19054TIP3    H278578   2.523   1.083  15.534 -0.2575  1.3241  0.7553
19055TIP3   OH278579   5.723   6.755   5.343  0.3495 -0.1894  0.6293
19055TIP3    H178580   5.783   6.778   5.272  1.2041 -0.6670  1.1855
19055TIP3    H278581   5.642   6.731   5.299  1.2155 -1.5874 -0.2563
19056TIP3   OH278582   0.636   4.268   1.059 -0.3990 -0.1099  0.0534
19056TIP3    H178583   0.569   4.315   1.109  0.6244  0.5922  0.8296
19056TIP3    H278584   0.657   4.192   1.113  0.9147  0.8035  0.8900
19057TIP3   OH278585   6.620   5.405  15.530 -0.0149 -0.0673 -0.4187
19057TIP3    H178586   6.571   5.365  15.457 -2.4946  0.8517  0.6384
19057TIP3    H278587   6.578   5.490  15.543  1.6953  0.6390  0.8270
19058TIP3   OH278588   1.746   1.668   5.831 -0.2008  0.4066  0.0249
19058TIP3    H178589   1.664   1.715   5.816 -0.6408 -0.3537  0.0053
19058TIP3    H278590   1.720   1.576   5.836  0.6534  0.1611  0.0207
19059TIP3   OH278591   1.296   4.602   5.563 -0.1874  0.6826  0.4414
19059TIP3    H178592   1.298   4.651   5.645 -1.1568  0.6617  0.4876
19059TIP3    H278593   1.307   4.511   5.590 -1.3816  0.5810  0.6536
19060TIP3   OH278594   0.803   6.304  12.500  0.2250  0.0943  0.0385
19060TIP3    H178595   0.739   6.266  12.440  0.6472 -0.1041 -0.2898
19060TIP3    H278596   0.795   6.398  12.487 -0.8453  0.1404  0.8736
19061TIP3   OH278597   5.982   1.421  14.667  0.0033 -1.0799 -0.2164
19061TIP3    H178598   5.992   1.494  14.729 -0.9982 -0.0182 -1.2470
19061TIP3    H278599   5.909   1.448  14.611  0.5108 -2.2723 -1.4954
19062TIP3   OH278600   5.856   3.859  11.833 -0.7614 -0.3830 -0.4695
19062TIP3    H178601   5.941   3.819  11.851  0.3278  1.4892 -1.1396
19062TIP3    H278602   5.875   3.929  11.771 -2.7777  0.2319 -0.4766
19063TIP3   OH278603   1.166   2.152  16.996  0.5370 -0.3869  0.8884
19063TIP3    H178604   1.125   2.233  16.966  2.8597  0.9005  0.9482
19063TIP3    H278605   1.258   2.161  16.969  0.7243 -3.3211  0.3082
19064TIP3   OH278606   4.997   5.955   3.182 -0.3476 -1.2251 -0.0223
19064TIP3    H178607   4.932   5.906   3.131  0.2326 -1.3901 -0.6245
19064TIP3    H278608   5.039   5.890   3.238  0.4707 -1.4601 -0.8716
19065TIP3   OH278609   5.695   2.270  14.149  0.4063 -0.5698  0.1263
19065TIP3    H178610   5.675   2.206  14.081 -0.1857 -0.1885 -0.0733
19065TIP3    H278611   5.638   2.245  14.222  1.1208 -1.0447  0.5270
19066TIP3   OH278612   4.408   5.606  12.004  0.3331  0.0490  0.1206
19066TIP3    H178613   4.483   5.547  12.004  0.4433  0.1903 -0.0358
19066TIP3    H278614   4.438   5.684  11.958 -0.4593 -0.5782 -1.5191
19067TIP3   OH278615   3.266   5.859   5.886  0.2499 -0.0088 -0.1340
19067TIP3    H178616   3.325   5.910   5.941  1.5093 -0.4312 -1.0350
19067TIP3    H278617   3.304   5.771   5.885 -0.9844 -0.5715  0.0875
19068TIP3   OH278618   3.227   1.201  11.727 -0.8189 -0.1363 -0.0058
19068TIP3    H178619   3.179   1.216  11.646 -1.0510 -0.6054  0.0424
19068TIP3    H278620   3.162   1.212  11.796 -0.4233  1.1662  0.1783
19069TIP3   OH278621   3.813   0.712   6.416 -0.3206  0.1798  0.1407
19069TIP3    H178622   3.891   0.730   6.468  1.1853  1.9846 -2.5286
19069TIP3    H278623   3.837   0.637   6.362 -0.8725  0.0257  0.1070
19070TIP3   OH278624   6.614   4.449  11.330  0.4227 -0.1295  0.3239
19070TIP3    H178625   6.584   4.468  11.241  1.7229 -0.6970 -0.2637
19070TIP3    H278626   6.565   4.372  11.357  1.1551 -0.9130 -0.5316
19071TIP3   OH278627   3.877   6.748   0.989 -0.0996  0.2671  0.4882
19071TIP3    H178628   3.917   6.812   0.931  0.3275  0.1293  0.6242
19071TIP3    H278629   3.784   6.748   0.965  0.3463 -1.2323 -1.6231
19072TIP3   OH278630   4.197   3.947   2.071  0.3809 -0.2119  0.1224
19072TIP3    H178631   4.109   3.927   2.102 -0.5835  1.0223 -1.5849
19072TIP3    H278632   4.243   3.863   2.071 -1.4535 -1.2813 -0.8411
19073TIP3   OH278633   1.907   2.667  17.099 -0.0001  0.0000  0.0332
19073TIP3    H178634   1.991   2.647  17.058  0.5750  0.6408  0.8664
19073TIP3    H278635   1.928   2.679  17.192 -0.8066  1.4347  0.0527
19074TIP3   OH278636   2.051   1.077   1.558 -0.0127 -0.3094  0.0221
19074TIP3    H178637   2.074   1.015   1.488 -1.0175  1.6332 -2.1536
19074TIP3    H278638   1.955   1.082   1.554 -0.0281  0.4159  1.0335
19075TIP3   OH278639   5.564   2.461  12.603  0.4048  0.1384  0.5126
19075TIP3    H178640   5.509   2.538  12.618 -0.8857 -0.0794 -2.4896
19075TIP3    H278641   5.618   2.484  12.528  1.3075 -1.2327  0.7036
19076TIP3   OH278642   2.216   0.450   2.787 -0.0581 -0.3831 -0.1262
19076TIP3    H178643   2.123   0.430   2.802 -0.5052  0.7280 -1.2993
19076TIP3    H278644   2.258   0.364   2.786 -1.0355 -0.8993  0.6026
19077TIP3   OH278645   1.990   1.004   0.499 -0.1599  0.4421  0.1510
19077TIP3    H178646   2.039   0.959   0.430  0.1612  0.5869  0.2817
19077TIP3    H278647   2.040   1.084   0.515 -2.0421  2.1112 -1.8368
19078TIP3   OH278648   4.087   5.937  11.558 -0.3275  0.0111  0.0930
19078TIP3    H178649   4.088   6.027  11.591  0.9128 -0.1638  0.5587
19078TIP3    H278650   4.177   5.906  11.569 -0.5960 -1.0843 -0.6356
19079TIP3   OH278651   2.866   3.211   2.084  0.2670  0.1860  0.5219
19079TIP3    H178652   2.917   3.196   2.164  2.3963  1.6038 -0.4840
19079TIP3    H278653   2.898   3.145   2.023  0.3130  0.5763  0.1220
19080TIP3   OH278654   6.161   6.479  15.190 -0.0839 -0.0517 -0.1419
19080TIP3    H178655   6.142   6.398  15.142 -0.9478  0.9953 -1.6321
19080TIP3    H278656   6.147   6.549  15.126  1.7450  1.2389  0.7983
19081TIP3   OH278657   4.929   0.396  16.258  0.5892  0.4426 -0.2776
19081TIP3    H178658   4.892   0.484  16.255  1.8669  1.0062 -0.1661
19081TIP3    H278659   4.954   0.384  16.349 -3.3041 -1.7044  0.7404
19082TIP3   OH278660   2.930   2.997   0.173  0.1542 -0.3267  0.0854
19082TIP3    H178661   2.841   3.021   0.201 -0.0609  0.4016 -1.1475
19082TIP3    H278662   2.987   3.056   0.221 -0.1295  0.1414 -0.1453
19083TIP3   OH278663   6.216   2.132   3.096 -0.0113 -0.4324  0.5375
19083TIP3    H178664   6.263   2.134   3.012 -1.7096  0.7130 -0.4694
19083TIP3    H278665   6.250   2.207   3.144 -0.9657  0.6085 -0.3349
19084TIP3   OH278666   6.180   0.997   0.471 -0.5729  0.3864 -0.0249
19084TIP3    H178667   6.178   0.902   0.484 -1.5371  0.1816 -1.3618
19084TIP3    H278668   6.087   1.022   0.465 -0.3325  1.4614  0.6199
19085TIP3   OH278669   5.296   0.212  16.204 -0.1777  0.1275  0.2784
19085TIP3    H178670   5.277   0.153  16.131  2.1199  0.2224 -0.4545
19085TIP3    H278671   5.251   0.293  16.181 -1.8083 -0.7051  0.3846
19086TIP3   OH278672   1.445   1.335   2.831 -0.2655 -0.3244  0.3837
19086TIP3    H178673   1.504   1.394   2.784 -0.0925 -0.3573  0.5556
19086TIP3    H278674   1.365   1.386   2.845 -0.3465 -0.3431 -0.0145
19087TIP3   OH278675   3.837   5.171  10.939 -0.2907 -0.4228 -0.2699
19087TIP3    H178676   3.875   5.224  11.009 -1.1717 -0.8158  0.5148
19087TIP3    H278677   3.743   5.184  10.947 -0.4246 -0.6957 -1.2171
19088TIP3   OH278678   5.270   6.512   2.905 -0.1788 -0.0516  0.0580
19088TIP3    H178679   5.347   6.497   2.959 -1.2325 -0.4720  1.4968
19088TIP3    H278680   5.284   6.600   2.868  0.3969  0.3981  1.3026
19089TIP3   OH278681   5.126   3.462  14.900  0.3443 -0.3001  0.4875
19089TIP3    H178682   5.121   3.382  14.847 -0.0299 -0.8035  1.2561
19089TIP3    H278683   5.155   3.431  14.986  0.4396  0.4360  0.7232
19090TIP3   OH278684   0.184   5.784   2.783 -0.0333  0.3899  0.0491
19090TIP3    H178685   0.181   5.693   2.755  0.4111  0.1531  0.7482
19090TIP3    H278686   0.106   5.796   2.836  0.2128  0.2404  0.4531
19091TIP3   OH278687   6.501   4.984   4.823 -0.2124 -0.3968  0.2263
19091TIP3    H178688   6.520   5.001   4.915 -2.2143  1.5877  0.3674
19091TIP3    H278689   6.509   4.889   4.814  1.2758 -0.5030  2.1104
19092TIP3   OH278690   1.915   5.542  10.782  0.3595 -0.2401  0.3110
19092TIP3    H178691   1.907   5.448  10.797 -1.3022 -0.4340 -1.4572
19092TIP3    H278692   1.943   5.577  10.866 -1.6375 -2.0044  1.8214
19093TIP3   OH278693   4.188   0.536   6.168 -0.0224  0.5296 -0.0815
19093TIP3    H178694   4.093   0.534   6.172 -0.0608 -2.8196 -0.3110
19093TIP3    H278695   4.211   0.628   6.184 -3.1736  1.1045  1.8822
19094TIP3   OH278696   2.721   5.121   1.673  0.2693  0.2402 -0.0855
19094TIP3    H178697   2.813   5.101   1.692  0.7053  0.4049 -1.8082
19094TIP3    H278698   2.705   5.079   1.588 -1.1237  0.5832 -0.0133
19095TIP3   OH278699   4.900   5.666  16.044  0.2311 -0.3182  0.4350
19095TIP3    H178700   4.851   5.702  16.117  0.2392 -1.0756  0.8261
19095TIP3    H278701   4.839   5.605  16.002 -0.1104  0.8348 -0.7907
19096TIP3   OH278702   6.673   5.704  16.372 -0.0013  1.0912  0.9075
19096TIP3    H178703   6.588   5.660  16.377 -0.2859  1.6476  0.9631
19096TIP3    H278704   6.661   5.773  16.306  0.5196  0.9265  0.6344
19097TIP3   OH278705   0.199   3.600   5.385 -0.1338  0.0541  0.1433
19097TIP3    H178706   0.176   3.661   5.315 -0.1734  0.5036  0.5453
19097TIP3    H278707   0.211   3.516   5.341 -0.8980  0.1685 -0.3088
19098TIP3   OH278708   2.712   1.960  16.760  0.0558 -0.3012 -0.0699
19098TIP3    H178709   2.718   1.916  16.845  0.0828  1.0206  0.6457
19098TIP3    H278710   2.711   2.053  16.782  3.9766  0.2962 -1.6862
19099TIP3   OH278711   6.728   3.689   4.516  0.0163  0.3027  0.0814
19099TIP3    H178712   6.804   3.704   4.460  0.3454 -0.5521  0.2866
19099TIP3    H278713   6.653   3.698   4.457  0.3202  0.1978 -0.3225
19100TIP3   OH278714   3.819   2.360   5.066 -0.0764 -0.0612 -0.1251
19100TIP3    H178715   3.870   2.430   5.025 -1.0406  0.1758 -0.9756
19100TIP3    H278716   3.880   2.317   5.126  2.1131 -1.8147 -3.3284
19101TIP3   OH278717   3.742   1.070   5.172 -0.6095  0.8118 -0.1860
19101TIP3    H178718   3.742   1.165   5.181 -1.9424  0.7837  0.3325
19101TIP3    H278719   3.811   1.040   5.230  2.5778  1.6283 -3.1883
19102TIP3   OH278720   3.748   0.242  13.323 -0.2326 -0.0809  0.3162
19102TIP3    H178721   3.823   0.190  13.294 -0.4619 -0.4696  0.4105
19102TIP3    H278722   3.767   0.331  13.294 -0.0330 -0.2969 -0.2147
19103TIP3   OH278723   2.425   5.958  15.191 -0.1007  0.0420 -0.7830
19103TIP3    H178724   2.343   5.957  15.240  0.1204 -1.0057 -0.4118
19103TIP3    H278725   2.489   5.993  15.252  0.0023 -0.4613 -0.5957
19104TIP3   OH278726   0.816   2.575   1.912  0.2677 -0.3109  0.2229
19104TIP3    H178727   0.760   2.513   1.958 -1.4160  0.9050 -0.0917
19104TIP3    H278728   0.772   2.591   1.829  0.7531  1.1281  0.2005
19105TIP3   OH278729   2.576   4.870  15.568  0.2033  0.8006  0.7754
19105TIP3    H178730   2.568   4.901  15.658 -0.2930  1.3687  0.5420
19105TIP3    H278731   2.512   4.798  15.562  2.5350 -1.5309  1.8115
19106TIP3   OH278732   4.783   4.148   0.891 -0.1553 -0.0651 -0.2078
19106TIP3    H178733   4.724   4.114   0.825  0.9565 -1.0441 -0.7327
19106TIP3    H278734   4.870   4.138   0.853  0.3330  2.0184  0.2284
19107TIP3   OH278735   0.342   0.640  16.650  0.0331 -0.0692  0.0367
19107TIP3    H178736   0.362   0.620  16.558  1.8564 -0.7015  0.5095
19107TIP3    H278737   0.312   0.730  16.649 -0.7980 -0.3318 -1.2780
19108TIP3   OH278738   4.692   4.209  12.714 -0.6000 -0.0222 -0.1547
19108TIP3    H178739   4.681   4.213  12.619 -3.0722 -0.4015  0.0307
19108TIP3    H278740   4.726   4.295  12.738 -2.8554  1.2588 -1.1510
19109TIP3   OH278741   3.380   2.774   6.242 -0.0867  0.1357 -0.1441
19109TIP3    H178742   3.449   2.772   6.308  1.3945 -0.1904 -1.5988
19109TIP3    H278743   3.299   2.785   6.291  0.8298 -1.1079  1.7862
19110TIP3   OH278744   6.786   6.536  16.124  0.4777 -0.6022  0.8810
19110TIP3    H178745   6.734   6.586  16.188 -0.4172 -1.1484  0.5979
19110TIP3    H278746   6.777   6.445  16.151  0.0888 -0.8430 -0.0191
19111TIP3   OH278747   6.131   5.191  10.609 -0.1056 -0.4834  0.0439
19111TIP3    H178748   6.185   5.150  10.676 -1.2025 -1.9348  0.1076
19111TIP3    H278749   6.046   5.146  10.616 -0.8007  0.5631 -1.1279
19112TIP3   OH278750   5.544   5.060   1.801  0.3440  0.3893 -0.3040
19112TIP3    H178751   5.524   5.143   1.845  1.1261  0.5247 -0.1965
19112TIP3    H278752   5.630   5.035   1.834  0.1102 -0.4796 -0.3237
19113TIP3   OH278753   5.512   1.066  13.037  0.3069  0.1758  0.0651
19113TIP3    H178754   5.605   1.049  13.022  0.6321  1.1833  0.8179
19113TIP3    H278755   5.497   1.154  13.002 -0.1733  0.3334  0.6473
19114TIP3   OH278756   3.540   5.531  14.985  0.0482 -0.3774  0.2282
19114TIP3    H178757   3.450   5.533  15.019  0.6238 -1.2796  1.9109
19114TIP3    H278758   3.530   5.549  14.891 -1.7332  1.0332  0.6231
19115TIP3   OH278759   5.633   1.171   2.354 -0.1483 -0.2787  0.3816
19115TIP3    H178760   5.711   1.220   2.327 -0.4292  0.3470  0.6796
19115TIP3    H278761   5.661   1.079   2.352  0.5093 -0.0833  0.1960
19116TIP3   OH278762   4.931   6.459   3.232 -0.0328 -0.0992 -0.1177
19116TIP3    H178763   4.943   6.395   3.162 -1.6188 -2.4751  1.5937
19116TIP3    H278764   4.839   6.449   3.257  0.8318 -0.5801  3.3270
19117TIP3   OH278765   4.868   4.953   2.852 -0.0773 -0.1244  0.2109
19117TIP3    H178766   4.811   4.991   2.919  1.7216  3.1381  0.1258
19117TIP3    H278767   4.950   4.936   2.898 -0.2200 -2.3328 -0.2260
19118TIP3   OH278768   4.205   4.032   2.519 -0.6291  0.0169 -0.5831
19118TIP3    H178769   4.193   3.946   2.479 -1.9435 -1.0112  1.8224
19118TIP3    H278770   4.295   4.031   2.552 -0.1820  0.1330 -1.7534
19119TIP3   OH278771   4.344   6.217   3.375 -0.7256  0.0778 -0.6674
19119TIP3    H178772   4.354   6.190   3.284 -0.9051 -0.3208 -0.5708
19119TIP3    H278773   4.258   6.259   3.379 -0.8684 -0.2149 -0.6110
19120TIP3   OH278774   5.512   1.711  14.199 -0.3546 -0.0899  0.2623
19120TIP3    H178775   5.583   1.656  14.231 -1.3831 -1.0291  1.0367
19120TIP3    H278776   5.454   1.720  14.275 -1.2607  0.3063 -0.4617
19121TIP3   OH278777   4.317   5.196   4.840  0.0578  0.3349  0.1345
19121TIP3    H178778   4.404   5.235   4.851  0.8645 -0.6878 -1.9415
19121TIP3    H278779   4.315   5.124   4.903  1.1539 -0.2703 -0.4918
19122TIP3   OH278780   3.918   2.924  11.298  0.5097 -0.4222 -0.1190
19122TIP3    H178781   3.900   2.849  11.355  0.7672 -0.9839 -0.7652
19122TIP3    H278782   3.840   2.931  11.243  0.0544  0.4179  0.6017
19123TIP3   OH278783   1.560   1.469   4.742 -0.3226 -0.8125 -0.3498
19123TIP3    H178784   1.554   1.541   4.679  0.5726 -0.3027  0.1143
19123TIP3    H278785   1.648   1.478   4.779 -1.2511 -0.2621  1.9374
19124TIP3   OH278786   5.091   6.081  14.604 -0.4704 -0.5090  0.4305
19124TIP3    H178787   5.097   6.173  14.629  0.3587 -0.0850 -1.1539
19124TIP3    H278788   5.034   6.081  14.527 -0.8279 -1.3976  0.6765
19125TIP3   OH278789   1.784   3.169   4.519  0.1545  0.2316 -0.1833
19125TIP3    H178790   1.750   3.213   4.598  1.7369  0.7181  0.2664
19125TIP3    H278791   1.823   3.240   4.467 -1.5267  0.0375 -1.8180
19126TIP3   OH278792   4.341   1.021   1.599 -0.6500 -0.3086  0.2636
19126TIP3    H178793   4.278   0.955   1.629 -0.5473  0.4698  2.3443
19126TIP3    H278794   4.302   1.104   1.624  1.0899  0.1934  1.4270
19127TIP3   OH278795   2.636   3.672  11.487 -0.9682 -0.7993 -0.3054
19127TIP3    H178796   2.618   3.721  11.406  0.1940 -0.3114 -0.2944
19127TIP3    H278797   2.561   3.691  11.543 -1.3754 -0.4350 -0.9510
19128TIP3   OH278798   1.948   1.374   5.640 -0.2780 -0.0667 -0.0792
19128TIP3    H178799   1.883   1.383   5.710  0.0402  0.6562  0.1404
19128TIP3    H278800   1.929   1.446   5.580 -0.9899 -1.1032 -1.1196
19129TIP3   OH278801   5.173   2.752   1.198  0.2196 -0.4903 -0.2927
19129TIP3    H178802   5.080   2.770   1.207  0.3106 -0.8669  2.0786
19129TIP3    H278803   5.182   2.659   1.218  1.2181 -0.2182  0.6285
19130TIP3   OH278804   5.225   6.353   1.885 -0.5157 -0.4891 -0.4262
19130TIP3    H178805   5.133   6.356   1.913 -0.4741 -1.2322 -0.1813
19130TIP3    H278806   5.236   6.430   1.829 -0.9724  0.2718  0.4884
19131TIP3   OH278807   3.988   0.435   2.396 -0.4103 -0.1693 -0.4564
19131TIP3    H178808   3.941   0.455   2.315  0.9966  0.3811 -1.1672
19131TIP3    H278809   3.944   0.358   2.431 -0.7891 -0.6633 -1.9575
19132TIP3   OH278810   4.404   3.711   4.762 -0.1605  0.6308  0.4250
19132TIP3    H178811   4.325   3.705   4.816  0.5297  0.0623  1.4014
19132TIP3    H278812   4.418   3.621   4.730 -0.2798  0.8648 -0.3168
19133TIP3   OH278813   6.642   5.210   5.900  0.1765  0.6747  0.1370
19133TIP3    H178814   6.717   5.164   5.939  0.4023  0.5970 -0.3771
19133TIP3    H278815   6.608   5.264   5.971 -0.1134 -0.3080  0.7653
19134TIP3   OH278816   4.777   6.620   2.079  0.3137  0.0227 -0.2177
19134TIP3    H178817   4.693   6.627   2.125  0.6339  0.3251  0.3194
19134TIP3    H278818   4.834   6.574   2.139  0.5422 -0.1726 -0.5812
19135TIP3   OH278819   5.490   4.759   4.726 -0.2665  0.5590 -0.2650
19135TIP3    H178820   5.549   4.780   4.799  1.2694 -0.7015 -1.0754
19135TIP3    H278821   5.498   4.834   4.667 -0.8791  1.2078  0.4576
19136TIP3   OH278822   5.844   0.668  15.062 -0.6063  0.1541  0.1075
19136TIP3    H178823   5.784   0.627  15.124  0.2445 -1.2482  0.0477
19136TIP3    H278824   5.898   0.596  15.031  0.9866  1.3411  0.0288
19137TIP3   OH278825   4.084   6.284   5.176  0.0810 -0.1510  0.5932
19137TIP3    H178826   4.119   6.243   5.097 -0.2803 -0.9869  0.8545
19137TIP3    H278827   4.161   6.318   5.222  0.5273 -1.5312  0.9183
19138TIP3   OH278828   1.254   0.264   3.738 -0.1006  0.3886  0.3588
19138TIP3    H178829   1.196   0.276   3.663 -1.9274 -1.1610  1.4566
19138TIP3    H278830   1.299   0.181   3.721  0.1988  0.5097  0.5427
19139TIP3   OH278831   3.557   3.480   0.337 -0.4272  0.3908 -0.0623
19139TIP3    H178832   3.588   3.561   0.379  0.1213  0.5174 -0.6938
19139TIP3    H278833   3.518   3.509   0.255  1.6711 -0.1385 -1.3123
19140TIP3   OH278834   2.294   3.524  12.342  0.0358  0.1127  0.1407
19140TIP3    H178835   2.376   3.554  12.383 -0.2704  0.3641  0.5839
19140TIP3    H278836   2.311   3.527  12.248  0.5107  0.2343  0.2281
19141TIP3   OH278837   6.016   0.508  14.526 -0.2505  0.2338  0.3881
19141TIP3    H178838   6.051   0.593  14.499  0.9059  0.2419  1.8143
19141TIP3    H278839   5.942   0.493  14.467  0.0451  1.8293 -0.4410
19142TIP3   OH278840   3.250   3.512   4.453  0.1500  0.5527 -1.0251
19142TIP3    H178841   3.174   3.571   4.447 -1.2435 -1.2632 -2.3438
19142TIP3    H278842   3.284   3.509   4.363  1.1250  0.4986 -0.6573
19143TIP3   OH278843   0.920   2.033   5.550 -1.0313 -0.5079  0.2856
19143TIP3    H178844   0.925   1.938   5.564 -0.4888 -0.5837 -0.3635
19143TIP3    H278845   0.921   2.043   5.454 -0.4109  0.1801  0.3557
19144TIP3   OH278846   6.104   1.404   3.737 -0.0762  0.0130 -0.3083
19144TIP3    H178847   6.153   1.475   3.695  2.6200 -0.1736  2.2031
19144TIP3    H278848   6.136   1.325   3.694  0.5370  0.0303  0.0925
19145TIP3   OH278849   2.430   3.521   2.770  0.1465  0.1690  0.1485
19145TIP3    H178850   2.492   3.565   2.712  0.7025 -1.7407 -0.8003
19145TIP3    H278851   2.474   3.518   2.855  0.6863  0.2137 -0.1239
19146TIP3   OH278852   3.000   1.797  16.013  0.5464  0.5377  0.2599
19146TIP3    H178853   2.906   1.797  15.996  0.5400  0.1009  0.2749
19146TIP3    H278854   3.017   1.878  16.061  0.4125  1.3570 -1.0053
19147TIP3   OH278855   1.329   5.005   0.259  0.2381 -0.0782 -0.5931
19147TIP3    H178856   1.405   4.959   0.294 -0.2712 -2.4083 -2.3453
19147TIP3    H278857   1.301   5.062   0.331  2.1938 -0.9228  0.9299
19148TIP3   OH278858   1.000   2.163  12.047  0.2383  0.1069  0.0247
19148TIP3    H178859   0.955   2.080  12.035  0.5200 -0.0835  0.2610
19148TIP3    H278860   1.003   2.175  12.142 -0.8589  0.9739 -0.0368
19149TIP3   OH278861   3.089   6.707  13.159  0.0311 -0.6261  0.1315
19149TIP3    H178862   3.058   6.703  13.069  0.4468 -0.0852 -0.0466
19149TIP3    H278863   3.013   6.733  13.210  0.2956  1.3751 -0.3870
19150TIP3   OH278864   6.736   4.567   2.706  0.8735  0.3257 -0.5458
19150TIP3    H178865   6.813   4.525   2.744  0.3321  0.3601  0.6292
19150TIP3    H278866   6.765   4.656   2.685  1.3657  0.0983 -0.8507
19151TIP3   OH278867   6.213   4.665   5.242 -0.4374  0.3575  0.8493
19151TIP3    H178868   6.266   4.602   5.192 -2.1548  0.2835 -1.0014
19151TIP3    H278869   6.192   4.620   5.323 -0.3211 -0.8589  0.2266
19152TIP3   OH278870   0.177   4.447   6.339 -0.6407  0.2268  0.5320
19152TIP3    H178871   0.193   4.368   6.289 -2.6501  0.1738 -0.1175
19152TIP3    H278872   0.146   4.511   6.275 -1.0508  0.8788  1.3496
19153TIP3   OH278873   2.220   3.490  15.767 -0.0956  0.5418  0.4677
19153TIP3    H178874   2.309   3.521  15.749 -0.1332  1.0621  1.1461
19153TIP3    H278875   2.213   3.408  15.718  1.0647  0.0390  1.0856
19154TIP3   OH278876   1.047   5.481   1.177 -0.5270 -0.2041 -0.4961
19154TIP3    H178877   1.072   5.436   1.258 -0.9789 -0.7997 -0.6789
19154TIP3    H278878   1.021   5.569   1.205  0.8776  0.1345 -0.1980
19155TIP3   OH278879   4.789   4.637  13.115  0.1994  0.3119  0.2017
19155TIP3    H178880   4.705   4.615  13.156 -0.5780  1.0969 -0.9152
19155TIP3    H278881   4.794   4.580  13.038 -0.5317  2.0219 -1.1615
19156TIP3   OH278882   4.107   5.452  10.795  0.4263 -0.3241 -1.1028
19156TIP3    H178883   4.093   5.516  10.726 -0.1516  0.7889 -0.0099
19156TIP3    H278884   4.077   5.369  10.758 -1.6780  0.5733 -1.5840
19157TIP3   OH278885   5.635   2.343   5.736 -0.0217 -0.0152  0.0494
19157TIP3    H178886   5.593   2.417   5.780  2.7221  1.6034  0.2256
19157TIP3    H278887   5.672   2.381   5.656  0.0789 -1.5968 -0.6989
19158TIP3   OH278888   2.353   3.578   3.496 -0.5021  0.0992 -0.0621
19158TIP3    H178889   2.353   3.620   3.411 -0.8328 -3.2646 -1.9123
19158TIP3    H278890   2.266   3.538   3.503 -0.4924  0.3097  1.8867
19159TIP3   OH278891   0.705   6.203   5.377 -0.4328  0.2033 -0.0495
19159TIP3    H178892   0.664   6.283   5.345 -1.7481 -0.6770 -0.6364
19159TIP3    H278893   0.721   6.151   5.298  1.9820  0.5459  0.1366
19160TIP3   OH278894   4.834   5.606   4.252  0.5670 -0.0131  0.2769
19160TIP3    H178895   4.792   5.542   4.308  1.2598 -0.9128 -0.2104
19160TIP3    H278896   4.771   5.621   4.181 -0.1969  0.9315  1.1364
19161TIP3   OH278897   0.558   5.598  11.731 -0.1459  0.3787  0.3331
19161TIP3    H178898   0.598   5.647  11.803  0.5038  0.4962 -0.0948
19161TIP3    H278899   0.494   5.658  11.694 -0.1895  0.4710  0.5531
19162TIP3   OH278900   5.178   5.454   2.867  0.8286 -0.2602  0.0759
19162TIP3    H178901   5.163   5.509   2.790 -2.0561 -0.6666  0.2255
19162TIP3    H278902   5.211   5.372   2.832 -0.7447 -0.5541 -0.8267
19163TIP3   OH278903   2.134   1.967   2.150  0.4097 -0.6241  0.3629
19163TIP3    H178904   2.187   2.031   2.198 -0.3262  0.6523 -0.4653
19163TIP3    H278905   2.071   1.936   2.215  1.7757 -1.7312  1.1978
19164TIP3   OH278906   6.064   3.080  12.490  0.0293  0.3361 -0.0512
19164TIP3    H178907   6.002   3.124  12.432 -0.0756 -1.1554 -1.1357
19164TIP3    H278908   6.140   3.061  12.434 -0.9026 -3.0178 -0.4385
19165TIP3   OH278909   0.452   1.886   0.463 -0.1280  0.1211  0.2319
19165TIP3    H178910   0.362   1.889   0.433 -0.0474  2.2767  0.0439
19165TIP3    H278911   0.445   1.872   0.558 -0.5464 -1.5778 -0.0108
19166TIP3   OH278912   3.945   2.494  14.135 -0.9493 -0.1401 -0.4400
19166TIP3    H178913   4.038   2.484  14.118 -1.2040 -1.1682 -1.4291
19166TIP3    H278914   3.918   2.409  14.172 -1.3152  0.4791  0.7570
19167TIP3   OH278915   1.527   3.494  12.198  0.3693 -0.2995 -0.3109
19167TIP3    H178916   1.573   3.415  12.169  1.0760  0.2677 -0.7505
19167TIP3    H278917   1.586   3.535  12.261 -0.5825 -0.8189  0.9830
19168TIP3   OH278918   0.074   1.988   4.919 -0.0401  0.3315 -0.3067
19168TIP3    H178919   0.087   2.082   4.909 -1.3295  0.2950 -3.3802
19168TIP3    H278920  -0.020   1.977   4.933 -0.3420 -0.5538 -2.5827
19169TIP3   OH278921   4.815   5.330  16.957 -0.2581  0.1064  0.4395
19169TIP3    H178922   4.780   5.384  17.027 -0.8912 -0.2177  0.3797
19169TIP3    H278923   4.748   5.333  16.888 -0.3141 -0.7735  0.4495
19170TIP3   OH278924   1.729   5.310  14.063 -0.8118 -0.0942  0.4026
19170TIP3    H178925   1.807   5.255  14.063 -0.8869 -0.2870 -1.6417
19170TIP3    H278926   1.746   5.376  14.130  1.0466 -0.2291  0.1196
19171TIP3   OH278927   5.206   2.481   1.352  0.3813 -0.3399  0.1931
19171TIP3    H178928   5.146   2.444   1.417 -0.1131 -1.2814 -0.7659
19171TIP3    H278929   5.200   2.421   1.277 -0.5063  1.7361 -1.4762
19172TIP3   OH278930   2.637   2.747   5.120  0.2423  0.1278  0.7417
19172TIP3    H178931   2.639   2.665   5.170 -0.5604 -0.5963 -0.3528
19172TIP3    H278932   2.596   2.723   5.037  2.5330  1.0599 -0.7286
19173TIP3   OH278933   3.436   6.696  15.538 -0.1978  0.5525  0.5096
19173TIP3    H178934   3.397   6.765  15.485  1.1815  0.7384 -0.3173
19173TIP3    H278935   3.530   6.714  15.535  0.2771 -1.7612 -0.3613
19174TIP3   OH278936   4.111   5.949  14.502 -0.0125 -0.3559 -0.9141
19174TIP3    H178937   4.201   5.971  14.524 -0.1760  1.1758 -1.6945
19174TIP3    H278938   4.058   5.990  14.570 -0.1777 -0.4674 -0.9742
19175TIP3   OH278939   5.553   1.332  16.373 -0.9921  0.6718  0.4691
19175TIP3    H178940   5.577   1.390  16.301  1.0269 -0.5171  0.1335
19175TIP3    H278941   5.458   1.318  16.362 -1.0734  1.9921 -0.8114
19176TIP3   OH278942   6.632   4.450  14.364 -0.1789 -0.7323  0.1258
19176TIP3    H178943   6.591   4.423  14.446  0.6107 -1.9532  0.1562
19176TIP3    H278944   6.675   4.533  14.384  2.1502 -2.2076  1.7224
19177TIP3   OH278945   3.903   3.033  12.208 -0.1362  0.1438  0.5866
19177TIP3    H178946   3.874   2.974  12.278  0.7126 -0.1878  0.6712
19177TIP3    H278947   3.906   2.979  12.130 -0.7768  0.4398  0.3478
19178TIP3   OH278948   2.052   4.766   1.425  0.5746 -0.0298  0.0919
19178TIP3    H178949   2.013   4.825   1.490 -0.4434  1.3870 -1.7295
19178TIP3    H278950   2.133   4.809   1.400  0.4601 -0.0557 -0.3210
19179TIP3   OH278951   2.321   2.422  11.879  0.2245 -0.1965  0.1709
19179TIP3    H178952   2.381   2.432  11.805  1.0145  0.3002  0.8561
19179TIP3    H278953   2.372   2.452  11.955 -1.3882  1.6807  0.5821
19180TIP3   OH278954   5.413   3.106   1.384  0.4586  0.6265 -0.1726
19180TIP3    H178955   5.386   3.189   1.423  0.6286  1.0418 -0.8991
19180TIP3    H278956   5.504   3.121   1.358  0.5331  0.1666 -0.1812
19181TIP3   OH278957   5.320   1.421   5.709  0.3614  0.4477 -0.5439
19181TIP3    H178958   5.258   1.396   5.640 -2.1178  0.8285  1.4085
19181TIP3    H278959   5.325   1.516   5.703  0.9539  0.4021 -0.8288
19182TIP3   OH278960   4.073   3.784   3.887 -0.3461 -0.7620 -0.1693
19182TIP3    H178961   3.998   3.726   3.899 -0.6357 -0.4951 -0.6659
19182TIP3    H278962   4.135   3.733   3.835 -1.2138 -0.1267 -1.8901
19183TIP3   OH278963   2.835   4.122   4.307  0.5120 -0.5652 -0.2183
19183TIP3    H178964   2.751   4.079   4.322 -0.2610  0.5390 -1.2056
19183TIP3    H278965   2.900   4.053   4.320 -0.5839 -1.6287 -0.2295
19184TIP3   OH278966   1.495   4.477  17.205 -0.5682 -0.7650 -0.2766
19184TIP3    H178967   1.511   4.410  17.272 -1.4871 -0.5349  0.1935
19184TIP3    H278968   1.426   4.439  17.150 -0.3644 -0.6318 -0.6224
19185TIP3   OH278969   6.392   6.016  11.929 -0.2756  0.0254 -0.0295
19185TIP3    H178970   6.480   6.000  11.893 -0.8626  0.6425 -1.7938
19185TIP3    H278971   6.348   5.931  11.922  0.4187 -0.5351  1.7086
19186TIP3   OH278972   2.793   2.671   1.299  0.4136  0.4302  0.3084
19186TIP3    H178973   2.703   2.685   1.268  0.6865  0.1867 -0.6185
19186TIP3    H278974   2.787   2.593   1.354  0.2673 -0.3857 -0.8147
19187TIP3   OH278975   1.638   1.048  14.657 -0.0663 -0.0594  0.3878
19187TIP3    H178976   1.729   1.077  14.651  0.0496 -0.4922 -0.0505
19187TIP3    H278977   1.641   0.974  14.718  0.2177 -1.3402 -1.1117
19188TIP3   OH278978   6.724   3.318  16.171  0.5014  0.0415 -0.1550
19188TIP3    H178979   6.637   3.353  16.157  0.9033  0.8393 -0.7500
19188TIP3    H278980   6.726   3.237  16.119 -0.4055 -0.8647  1.1720
19189TIP3   OH278981   2.442   2.492  14.762 -0.7508  0.0937 -0.4998
19189TIP3    H178982   2.414   2.510  14.672  0.4429  0.9066 -0.7435
19189TIP3    H278983   2.504   2.563  14.781  0.3584 -1.0622  0.3265
19190TIP3   OH278984   0.485   4.978   4.443 -0.2009  0.1083  0.2054
19190TIP3    H178985   0.509   5.071   4.440 -1.5036  0.4681  0.4315
19190TIP3    H278986   0.550   4.939   4.500 -0.3730  1.1274  1.1299
19191TIP3   OH278987   0.216   3.115  16.000 -0.5726  0.2575 -0.2656
19191TIP3    H178988   0.213   3.030  15.956 -4.0998  0.3294 -0.4489
19191TIP3    H278989   0.267   3.099  16.080  0.4862 -1.4818 -1.2189
19192TIP3   OH278990   6.547   6.075  13.905 -0.2012  0.2057 -0.2001
19192TIP3    H178991   6.596   6.020  13.845  1.4450  1.2275  0.1522
19192TIP3    H278992   6.546   6.161  13.862  0.1851  0.7146  0.7925
19193TIP3   OH278993   0.691   0.815   5.654  0.5312 -0.2072  0.6096
19193TIP3    H178994   0.633   0.792   5.727 -0.0181  1.1475  0.6313
19193TIP3    H278995   0.760   0.748   5.656  0.1428 -0.6000  1.9312
19194TIP3   OH278996   3.652   6.392   5.511 -0.2966 -0.2613  0.3871
19194TIP3    H178997   3.602   6.389   5.593 -0.7713 -0.0173  0.1090
19194TIP3    H278998   3.734   6.348   5.532 -0.8663 -1.2082  0.6899
19195TIP3   OH278999   1.708   4.714  14.079 -0.0213  0.6121 -0.7547
19195TIP3    H179000   1.764   4.709  14.156 -0.0174  0.7367 -0.7500
19195TIP3    H279001   1.651   4.637  14.086 -2.2497  2.2614  1.1290
19196TIP3   OH279002   2.333   4.379   5.223  0.3873  0.1351  0.1891
19196TIP3    H179003   2.366   4.435   5.292  0.5813 -0.5449  0.6589
19196TIP3    H279004   2.374   4.293   5.239 -1.8664 -0.8501  1.0316
19197TIP3   OH279005   4.168   5.525   6.048  0.1722 -0.3365 -0.3766
19197TIP3    H179006   4.181   5.543   6.142  2.3115 -1.6793 -0.3555
19197TIP3    H279007   4.086   5.476   6.045 -0.5978  0.8163  0.6145
19198TIP3   OH279008   4.322   1.778   2.623 -0.2935 -0.7937 -0.6363
19198TIP3    H179009   4.373   1.754   2.700 -0.5207  0.2313 -0.1587
19198TIP3    H279010   4.245   1.721   2.627 -1.1028  0.3540  0.7908
19199TIP3   OH279011   5.925   1.077  11.949 -0.0808 -0.7293 -1.1105
19199TIP3    H179012   5.835   1.098  11.927 -0.1699 -0.1265 -0.2058
19199TIP3    H279013   5.976   1.152  11.918 -0.4110  1.0934  2.2142
19200TIP3   OH279014   3.971   2.674  15.367 -0.1365 -0.3151 -0.5821
19200TIP3    H179015   3.977   2.737  15.438  1.8405 -0.4627 -0.5412
19200TIP3    H279016   3.898   2.704  15.313 -0.0539  1.2547  0.1305
19201TIP3   OH279017   3.225   3.137  14.642  0.2086  0.3267 -0.1200
19201TIP3    H179018   3.203   3.044  14.641  0.9500  0.1306  0.4843
19201TIP3    H279019   3.321   3.139  14.647  0.2192  1.1271 -0.4163
19202TIP3   OH279020   3.363   2.124  13.342  0.0910 -0.7552 -0.1784
19202TIP3    H179021   3.290   2.158  13.394  0.3164 -1.0840  0.3693
19202TIP3    H279022   3.405   2.060  13.400  0.9782 -0.3708 -0.3807
19203TIP3   OH279023   3.013   6.420  11.426  0.2086 -0.3883 -0.2674
19203TIP3    H179024   2.956   6.494  11.408 -1.7373 -2.0035 -1.1536
19203TIP3    H279025   3.071   6.414  11.350 -0.2175 -0.3154 -0.5966
19204TIP3   OH279026   2.678   1.772   3.094 -0.2412  0.7574  0.1819
19204TIP3    H179027   2.655   1.705   3.158  0.9963 -0.7768 -0.8928
19204TIP3    H279028   2.614   1.761   3.024 -0.2469  0.9461  0.1569
19205TIP3   OH279029   0.362   2.623   0.272 -0.7570  0.1180 -0.3755
19205TIP3    H179030   0.276   2.657   0.249 -0.6063 -1.3517 -3.6370
19205TIP3    H279031   0.344   2.553   0.336 -2.0474 -0.3822 -1.2549
19206TIP3   OH279032   5.403   4.849  15.784 -0.1238 -0.5533 -0.6059
19206TIP3    H179033   5.349   4.835  15.707 -0.0663 -2.2552 -0.3777
19206TIP3    H279034   5.492   4.829  15.755 -0.0448 -0.7796 -0.2158
19207TIP3   OH279035   6.295   3.731  10.537 -0.3208  0.6896  0.4008
19207TIP3    H179036   6.268   3.674  10.609  0.5292 -2.0972 -1.3128
19207TIP3    H279037   6.391   3.724  10.537 -0.2775  1.2281 -0.5320
19208TIP3   OH279038   6.347   0.702  14.838  0.1152  0.2615  0.2431
19208TIP3    H179039   6.269   0.757  14.840 -0.4107 -0.4301 -0.3422
19208TIP3    H279040   6.405   0.743  14.775 -0.9869 -0.7353 -1.4974
19209TIP3   OH279041   0.619   2.197  16.032  0.2893 -0.1029  0.5140
19209TIP3    H179042   0.620   2.288  16.061 -1.9221  0.4020 -0.7870
19209TIP3    H279043   0.611   2.146  16.113  1.4875  0.8217  1.2494
19210TIP3   OH279044   2.572   0.742  13.284 -0.8659  0.4367  0.4862
19210TIP3    H179045   2.572   0.651  13.314 -0.8787 -0.3875 -1.7683
19210TIP3    H279046   2.651   0.780  13.323  0.2085 -1.1274 -0.0516
19211TIP3   OH279047   6.405   2.306   2.910  0.4273 -0.6228 -0.9913
19211TIP3    H179048   6.409   2.323   3.004 -2.0170 -0.9594 -0.7619
19211TIP3    H279049   6.489   2.337   2.876  0.7146  1.0108  1.0525
19212TIP3   OH279050   6.231   1.073  11.957  0.1542  0.4689 -0.3105
19212TIP3    H179051   6.266   1.015  12.026 -0.5458  0.9697  0.4901
19212TIP3    H279052   6.136   1.066  11.966  0.0313 -0.0559 -1.7626
19213TIP3   OH279053   5.981   3.904   2.152  0.0160  0.4019  0.3558
19213TIP3    H179054   5.976   3.978   2.091 -0.2840  0.0318 -0.0719
19213TIP3    H279055   5.921   3.927   2.222  0.0591  0.6457  0.3137
19214TIP3   OH279056   0.776   2.718   0.151 -0.0439  0.3903  0.1147
19214TIP3    H179057   0.700   2.771   0.130  0.2577  0.6702 -0.2696
19214TIP3    H279058   0.844   2.748   0.091  0.1973 -0.2631  0.0509
19215TIP3   OH279059   2.960   2.032  16.900  0.0093  0.1727  0.2102
19215TIP3    H179060   2.966   2.112  16.848  1.0918 -0.2781 -0.3971
19215TIP3    H279061   3.047   1.993  16.894 -0.0169 -0.2072  1.8737
19216TIP3   OH279062   1.285   3.304  14.271 -0.0695 -0.5205 -0.0121
19216TIP3    H179063   1.266   3.226  14.322  0.4031 -0.2246  0.6405
19216TIP3    H279064   1.216   3.308  14.206 -0.6165 -0.9826  0.5250
19217TIP3   OH279065   3.752   2.565   0.964  0.2859 -0.9845  0.4839
19217TIP3    H179066   3.680   2.525   0.915 -0.8268 -0.7133  1.8185
19217TIP3    H279067   3.802   2.491   0.997 -0.9082 -1.2920  1.7050
19218TIP3   OH279068   1.941   1.177   1.163  0.9192  0.4658 -0.3259
19218TIP3    H179069   1.945   1.132   1.247  0.7748  0.6454 -0.2218
19218TIP3    H279070   1.939   1.107   1.098 -1.0613  0.2514 -0.1034
19219TIP3   OH279071   0.903   4.033  13.661  0.4730 -0.5039 -0.2303
19219TIP3    H179072   0.878   4.086  13.737 -0.7442  0.2464 -1.1140
19219TIP3    H279073   0.996   4.015  13.674  0.2066 -0.7753  1.6521
19220TIP3   OH279074   3.205   4.073  12.368  0.1609 -0.0437 -0.7003
19220TIP3    H179075   3.127   4.072  12.423 -0.0009 -1.0365 -0.9454
19220TIP3    H279076   3.173   4.093  12.280  0.2612  0.1968 -0.6832
19221TIP3   OH279077   4.654   2.900   3.633 -0.0473 -0.4742  0.7908
19221TIP3    H179078   4.726   2.858   3.679  0.6792  0.5121  0.5780
19221TIP3    H279079   4.670   2.883   3.540 -0.2583 -0.5273  0.7636
19222TIP3   OH279080   0.955   0.274   5.988  0.2625  0.3079 -0.7029
19222TIP3    H179081   0.961   0.370   5.988 -0.5538  0.3731 -1.6998
19222TIP3    H279082   0.921   0.252   6.075  1.3055  0.8484 -0.1421
19223TIP3   OH279083   5.182   2.154   4.150 -0.1468  0.4611 -0.0078
19223TIP3    H179084   5.228   2.176   4.069  0.7890 -1.4688 -0.0775
19223TIP3    H279085   5.119   2.086   4.124  0.7879 -0.8374  0.9804
19224TIP3   OH279086   6.761   2.010  11.412  0.6532  0.4779 -0.7030
19224TIP3    H179087   6.801   2.035  11.495 -1.1014  1.7019 -0.1713
19224TIP3    H279088   6.734   1.919  11.425  0.4684  0.6322  0.0528
19225TIP3   OH279089   4.244   1.711   0.358  0.3008 -0.0383  0.7907
19225TIP3    H179090   4.170   1.737   0.413 -1.2167  0.6314 -1.3980
19225TIP3    H279091   4.219   1.627   0.322 -0.1200  0.8460 -1.0930
19226TIP3   OH279092   0.376   4.085  11.275 -0.8241 -0.2749 -0.7537
19226TIP3    H179093   0.469   4.100  11.258 -1.1015  1.7937 -0.7242
19226TIP3    H279094   0.331   4.134  11.207 -1.9323 -1.6896 -1.0875
19227TIP3   OH279095   5.045   2.981  11.790 -0.1907  0.7518 -0.1950
19227TIP3    H179096   5.074   2.956  11.878  0.1229 -0.9245 -0.7424
19227TIP3    H279097   4.951   2.960  11.789 -0.3097  1.2481 -0.1223
19228TIP3   OH279098   2.085   4.039  16.138 -0.1312 -0.0467 -0.4680
19228TIP3    H179099   2.117   4.090  16.212 -0.7084  0.1673 -0.3658
19228TIP3    H279100   2.060   3.955  16.175  0.0161 -0.1055 -0.4992
19229TIP3   OH279101   0.194   5.984  14.073  0.9692 -0.0761 -0.4603
19229TIP3    H179102   0.157   6.067  14.104 -1.1657 -0.1776 -2.5111
19229TIP3    H279103   0.230   5.943  14.152  1.5397  2.4815  0.7193
19230TIP3   OH279104   3.511   2.110  12.848 -0.1649 -0.1209 -0.0484
19230TIP3    H179105   3.433   2.124  12.795 -1.0026 -1.8958  0.6559
19230TIP3    H279106   3.555   2.195  12.849 -1.7237  0.7281 -1.0266
19231TIP3   OH279107   3.031   6.788  12.500 -0.1727  0.2989  0.5515
19231TIP3    H179108   2.978   6.731  12.556 -0.8479  0.4459  0.0764
19231TIP3    H279109   3.029   6.745  12.414  0.7086  0.1663  0.5808
19232TIP3   OH279110   2.944   1.009  12.031 -0.1029  0.3393 -0.1832
19232TIP3    H179111   2.899   1.045  12.108 -1.2695  0.8373 -1.0686
19232TIP3    H279112   2.991   0.933  12.065  0.1051  1.0389  1.1858
19233TIP3   OH279113   1.759   1.724   4.567  0.1307  0.2090  0.0607
19233TIP3    H179114   1.716   1.808   4.581  0.6789  0.4640  0.2362
19233TIP3    H279115   1.832   1.724   4.629  0.5032 -0.1380 -0.3747
19234TIP3   OH279116   2.544   6.760   1.456 -1.0472 -0.4992  0.0111
19234TIP3    H179117   2.529   6.724   1.369 -0.1897  0.4324 -0.5433
19234TIP3    H279118   2.567   6.684   1.510  2.9720 -0.6952 -1.6345
19235TIP3   OH279119   1.723   2.091   2.672 -0.4616 -0.0457 -0.6060
19235TIP3    H179120   1.730   2.054   2.760 -2.0322  0.7091 -0.1139
19235TIP3    H279121   1.755   2.180   2.680 -0.7186  0.0635 -0.7583
19236TIP3   OH279122   0.306   1.006   2.599 -0.4004  0.7904  0.2626
19236TIP3    H179123   0.250   0.994   2.523 -1.2487  0.6829  0.8883
19236TIP3    H279124   0.316   1.101   2.607  0.4524  0.7742 -0.5141
19237TIP3   OH279125   2.216   3.447   2.196 -0.1623 -0.4655  0.2663
19237TIP3    H179126   2.303   3.440   2.157 -0.0353 -1.6707  0.7293
19237TIP3    H279127   2.233   3.470   2.288 -0.3843  0.2466  0.1394
19238TIP3   OH279128   5.636   0.026  13.124  0.1946 -0.4470 -0.5416
19238TIP3    H179129   5.562  -0.021  13.163 -0.7869  0.6672 -0.9823
19238TIP3    H279130   5.711   0.002  13.177 -0.7647 -0.4198  0.8753
19239TIP3   OH279131   0.354   1.629   4.902 -0.3318  0.5257  0.3552
19239TIP3    H179132   0.367   1.688   4.976 -1.3575 -0.4329  1.3344
19239TIP3    H279133   0.354   1.541   4.940 -0.0847 -0.0399 -0.8923
19240TIP3   OH279134   5.380   0.790   4.719 -0.1210  0.2060 -0.1071
19240TIP3    H179135   5.383   0.775   4.814 -1.6459  2.4960  0.3746
19240TIP3    H279136   5.287   0.790   4.698  0.1680  0.5520 -1.4719
19241TIP3   OH279137   1.590   1.085   1.708  0.6496 -1.0810 -0.2603
19241TIP3    H179138   1.551   1.173   1.715  1.0564 -0.7791 -1.5450
19241TIP3    H279139   1.602   1.057   1.799 -1.1912 -0.5780  0.1826
19242TIP3   OH279140   2.949   5.977   3.315  0.3081  0.0482 -0.6980
19242TIP3    H179141   2.919   5.886   3.308  4.0014 -1.3274 -0.7148
19242TIP3    H279142   2.922   6.017   3.233  1.3384 -2.0181 -2.1495
19243TIP3   OH279143   1.938   5.344   3.581  0.2024 -0.4481  0.0234
19243TIP3    H179144   1.996   5.307   3.648  0.7055  0.6515  0.2159
19243TIP3    H279145   1.926   5.273   3.518 -0.0489 -1.4081  1.1261
19244TIP3   OH279146   1.316   0.686  13.208  0.4345  0.4310 -0.2473
19244TIP3    H179147   1.331   0.746  13.135 -1.3908  0.8938 -0.2946
19244TIP3    H279148   1.381   0.616  13.196  1.2473  1.3350 -1.3559
19245TIP3   OH279149   4.294   4.481   0.114 -0.2043  0.1364 -0.4171
19245TIP3    H179150   4.348   4.404   0.131  0.0830 -0.2291 -2.6622
19245TIP3    H279151   4.349   4.555   0.141  0.1182 -0.3622  0.3390
19246TIP3   OH279152   2.603   2.510   2.826  0.6412  0.5510  0.1616
19246TIP3    H179153   2.595   2.436   2.766  2.2372  0.0892  0.4705
19246TIP3    H279154   2.528   2.501   2.884  0.5911 -0.6093 -0.0541
19247TIP3   OH279155   6.224   1.747   1.666  0.0096 -0.0904 -0.2915
19247TIP3    H179156   6.266   1.664   1.687  0.7281  0.0556 -1.0460
19247TIP3    H279157   6.296   1.811   1.668 -0.4487  0.4312 -0.1560
19248TIP3   OH279158   1.939   2.605   4.284 -0.3428 -0.1163 -0.3235
19248TIP3    H179159   1.898   2.556   4.213  1.3182 -1.7596 -0.2402
19248TIP3    H279160   1.998   2.666   4.240  1.4821 -1.8551 -0.4561
19249TIP3   OH279161   5.534   2.402   2.950 -0.1657 -0.2605  0.1307
19249TIP3    H179162   5.557   2.353   2.871  0.6608 -0.3992  0.4422
19249TIP3    H279163   5.575   2.352   3.021 -0.9955 -0.1995  0.6579
19250TIP3   OH279164   1.620   3.901   5.155  0.0687 -0.2269 -0.8284
19250TIP3    H179165   1.573   3.976   5.118  0.7663 -0.2664 -1.8445
19250TIP3    H279166   1.710   3.932   5.165  0.0516 -0.4733  0.1451
19251TIP3   OH279167   4.728   0.818  16.801  0.0757 -0.0092  0.1537
19251TIP3    H179168   4.759   0.728  16.812 -0.0718 -0.1348 -0.4173
19251TIP3    H279169   4.808   0.870  16.803  0.2416 -0.2345 -0.3082
19252TIP3   OH279170   6.665   6.310   3.332  0.4321 -0.7224  0.3517
19252TIP3    H179171   6.754   6.293   3.303 -0.1813 -2.2600 -0.7765
19252TIP3    H279172   6.614   6.236   3.298 -1.2182 -0.0431  1.2226
19253TIP3   OH279173   1.013   2.382  13.962 -0.0829 -0.0440  1.0165
19253TIP3    H179174   1.005   2.312  14.026  3.1601  0.2035  1.8344
19253TIP3    H279175   1.024   2.337  13.878 -0.0889 -0.4555  1.2355
19254TIP3   OH279176   6.232   2.733  16.702  0.3217  0.2286  0.1297
19254TIP3    H179177   6.323   2.761  16.712  0.1199  0.5745  1.0707
19254TIP3    H279178   6.186   2.772  16.776 -0.1359 -1.8687  1.0465
19255TIP3   OH279179   3.617   2.420   3.324  0.6365 -0.5462 -0.2302
19255TIP3    H179180   3.610   2.328   3.296 -1.3717 -0.7462  0.7532
19255TIP3    H279181   3.548   2.431   3.389  1.2555  1.5197  0.1656
19256TIP3   OH279182   5.332   1.936   0.322 -0.5687 -0.6933  0.2019
19256TIP3    H179183   5.361   1.863   0.268  0.1863  0.9394 -1.7678
19256TIP3    H279184   5.363   2.014   0.275 -0.6907  0.8845  2.5720
19257TIP3   OH279185   4.196   0.280   3.009 -0.0953  0.1357  0.2713
19257TIP3    H179186   4.128   0.341   3.037  0.0074 -0.0461  0.9521
19257TIP3    H279187   4.276   0.333   3.006  0.2113 -0.1722  1.9442
19258TIP3   OH279188   2.526   5.492   2.787  0.2276  0.3350 -0.2309
19258TIP3    H179189   2.431   5.490   2.797  0.1346  1.2367 -0.8728
19258TIP3    H279190   2.551   5.580   2.813  0.9919 -0.1350  0.7153
19259TIP3   OH279191   1.577   3.231   2.811 -0.6772  0.0482 -0.0553
19259TIP3    H179192   1.547   3.177   2.884  0.2645 -0.1585  0.1927
19259TIP3    H279193   1.670   3.246   2.829 -0.2197 -0.6839 -1.6439
19260TIP3   OH279194   6.493   2.572   0.598 -0.3808 -0.3034  0.2680
19260TIP3    H179195   6.414   2.548   0.550 -1.7267  0.2895  2.0698
19260TIP3    H279196   6.513   2.661   0.567  0.5611 -1.0403 -1.3511
19261TIP3   OH279197   1.352   6.678  14.261  0.3662  0.0793 -0.4915
19261TIP3    H179198   1.386   6.613  14.200  1.9937  0.0820  0.3397
19261TIP3    H279199   1.326   6.628  14.339 -2.1175  0.0230 -1.2807
19262TIP3   OH279200   1.004   0.215  12.963 -0.3063  0.1734 -0.6935
19262TIP3    H179201   0.979   0.275  12.893 -2.6730  1.0270  0.7865
19262TIP3    H279202   1.017   0.271  13.039 -0.0911 -0.9527  0.1238
19263TIP3   OH279203   4.202   0.247   5.544 -0.0296 -0.0934  0.0096
19263TIP3    H179204   4.119   0.254   5.497  0.2277 -0.5231 -0.5247
19263TIP3    H279205   4.268   0.238   5.475  0.5088  0.6303  0.4131
19264TIP3   OH279206   6.748   5.741  13.927 -0.1930  0.6194 -0.4838
19264TIP3    H179207   6.667   5.705  13.964 -0.1282  1.2786  0.3190
19264TIP3    H279208   6.718   5.805  13.862 -0.3292 -1.5804 -2.7538
19265TIP3   OH279209   5.198   2.917   0.021 -0.5742 -0.2439  0.4226
19265TIP3    H179210   5.241   2.922   0.107 -0.2199 -0.4465  0.2596
19265TIP3    H279211   5.157   3.003   0.009  1.4871  0.6942 -0.3118
19266TIP3   OH279212   6.550   6.350   0.726  0.5241 -0.3821  0.2856
19266TIP3    H179213   6.604   6.305   0.661 -1.7768  0.5453 -2.4637
19266TIP3    H279214   6.586   6.439   0.729 -1.9127  0.9374 -3.2619
19267TIP3   OH279215   3.330   0.766  16.088 -0.4080  0.1042 -0.3357
19267TIP3    H179216   3.371   0.813  16.160 -0.4725 -1.0516  0.4878
19267TIP3    H279217   3.306   0.681  16.125 -0.7835 -0.3818 -1.6213
19268TIP3   OH279218   0.351   4.801   3.577  0.3102  0.8522 -0.4968
19268TIP3    H179219   0.280   4.760   3.527 -0.1401  0.5460  0.3786
19268TIP3    H279220   0.318   4.806   3.667  1.4066  0.6615 -0.0612
19269TIP3   OH279221   6.104   3.452  13.666  0.2111 -0.1498 -0.3399
19269TIP3    H179222   6.101   3.452  13.570  1.5515  1.4960 -0.4357
19269TIP3    H279223   6.187   3.411  13.688  1.2271  1.9063 -0.0543
19270TIP3   OH279224   2.836   3.173   5.051 -0.4202 -0.0725 -0.1548
19270TIP3    H179225   2.834   3.262   5.087  1.8854 -0.7939  1.9847
19270TIP3    H279226   2.910   3.173   4.991  0.2444 -0.8003  0.6472
19271TIP3   OH279227   4.280   3.706  11.698 -0.4545 -0.7342  0.6479
19271TIP3    H179228   4.222   3.774  11.664  0.7780  0.3954  0.7356
19271TIP3    H279229   4.359   3.713  11.644  1.0287  0.2111  2.8061
19272TIP3   OH279230   2.874   4.337  13.596  0.2709 -0.1501 -0.6748
19272TIP3    H179231   2.912   4.420  13.625 -0.1437  0.0348 -0.6457
19272TIP3    H279232   2.839   4.297  13.675 -1.1780  0.5231 -0.9419
19273TIP3   OH279233   4.084   2.889  16.834 -0.2532  0.2442  0.1640
19273TIP3    H179234   4.109   2.865  16.923  0.5539 -0.0882 -0.1446
19273TIP3    H279235   4.040   2.812  16.798 -1.2864  0.6412  0.5196
19274TIP3   OH279236   0.770   2.482   2.220  0.2695 -0.1701 -0.5202
19274TIP3    H179237   0.732   2.568   2.234 -0.2395 -0.4035 -0.4367
19274TIP3    H279238   0.860   2.490   2.253 -0.1859 -0.0471  0.7551
19275TIP3   OH279239   6.433   4.189  11.815 -0.1991 -0.1986  0.2653
19275TIP3    H179240   6.406   4.252  11.881  0.2382  0.9269 -0.5841
19275TIP3    H279241   6.482   4.241  11.751 -3.0081 -0.6151 -2.4891
19276TIP3   OH279242   2.923   5.327  11.727  0.0863 -0.8391 -0.1572
19276TIP3    H179243   2.869   5.325  11.805 -1.3150  0.7834 -1.0235
19276TIP3    H279244   3.000   5.379  11.751 -0.0446 -0.8640  0.3097
19277TIP3   OH279245   3.467   3.490   1.914  0.1370 -0.2999 -0.4381
19277TIP3    H179246   3.556   3.491   1.880  0.2973 -0.5443 -0.0383
19277TIP3    H279247   3.459   3.573   1.962 -0.4859  0.6025 -2.0369
19278TIP3   OH279248   0.903   5.036  16.851 -0.2088  0.2788  0.0923
19278TIP3    H179249   0.837   4.984  16.805 -0.0772  0.5763 -0.4438
19278TIP3    H279250   0.918   5.111  16.793 -1.0764  1.4109  1.2701
19279TIP3   OH279251   5.748   3.666  13.174 -0.7485  0.2719 -0.4647
19279TIP3    H179252   5.687   3.669  13.100 -1.8891  0.2468  0.4555
19279TIP3    H279253   5.831   3.698  13.138 -1.7574  2.1172 -1.3014
19280TIP3   OH279254   0.912   5.356   1.920 -0.5277 -0.0724  0.9891
19280TIP3    H179255   0.842   5.339   1.982 -0.1873 -1.9319  0.8986
19280TIP3    H279256   0.871   5.346   1.834 -0.6602  1.1259  0.8839
19281TIP3   OH279257   2.991   5.252  16.509  0.5914  0.5310  0.0183
19281TIP3    H179258   3.002   5.160  16.483  1.0212  0.6971 -0.3983
19281TIP3    H279259   3.002   5.251  16.604 -0.8703 -0.0691  0.2208
19282TIP3   OH279260   3.454   2.391   0.023 -0.5299 -0.6203 -0.2300
19282TIP3    H179261   3.425   2.395   0.115 -1.7025 -1.0464 -0.5686
19282TIP3    H279262   3.488   2.479   0.006 -3.5772  0.6833 -0.3936
19283TIP3   OH279263   2.104   6.522   4.971 -0.0292  0.0937 -0.7009
19283TIP3    H179264   2.112   6.591   4.905 -1.8457  0.0620 -1.0108
19283TIP3    H279265   2.030   6.548   5.025 -1.4959 -2.0982 -1.5024
19284TIP3   OH279266   3.177   1.491  16.598 -0.4977 -0.0500 -0.5330
19284TIP3    H179267   3.123   1.570  16.591  0.0911  0.3706 -0.3850
19284TIP3    H279268   3.247   1.505  16.535 -0.6701 -0.6883 -0.8687
19285TIP3   OH279269   0.057   1.275   5.003 -0.0822  0.3397 -0.1814
19285TIP3    H179270   0.022   1.327   4.931  0.1137  1.6113  0.6098
19285TIP3    H279271   0.023   1.187   4.988  0.6334  0.3855 -2.2633
19286TIP3   OH279272   0.646   3.615  15.316 -0.1949 -0.3590 -0.6288
19286TIP3    H179273   0.600   3.573  15.388  0.4793  1.9494  1.2878
19286TIP3    H279274   0.693   3.688  15.357 -0.0415  1.2777 -3.4466
19287TIP3   OH279275   5.703   6.391   5.999 -0.1847  0.6031 -0.4342
19287TIP3    H179276   5.758   6.457   6.042 -1.4843  1.4738 -0.0557
19287TIP3    H279277   5.690   6.324   6.066 -0.6320  1.0223 -0.0960
19288TIP3   OH279278   2.838   4.752   5.362 -0.3897  0.4463 -0.1533
19288TIP3    H179279   2.846   4.661   5.388  1.3106  1.0640  1.7278
19288TIP3    H279280   2.754   4.781   5.399 -0.4493 -0.0804  0.1298
19289TIP3   OH279281   4.385   6.229   0.071 -0.2259  0.0960  0.5987
19289TIP3    H179282   4.340   6.151   0.104  0.2650 -0.6804 -0.4851
19289TIP3    H279283   4.439   6.258   0.144 -1.8472  0.5648  1.6476
19290TIP3   OH279284   5.122   6.697   3.658 -0.3527  0.0900 -0.6147
19290TIP3    H179285   5.039   6.741   3.674 -0.2376  0.6647 -1.5190
19290TIP3    H279286   5.109   6.608   3.691 -1.3080  0.1842 -0.7057
19291TIP3   OH279287   1.534   2.529   0.527  0.4082  0.0793 -0.7615
19291TIP3    H179288   1.551   2.564   0.439  2.3469  0.0592 -0.4428
19291TIP3    H279289   1.560   2.600   0.586  0.8080 -0.5347 -0.1835
19292TIP3   OH279290   6.629   2.805   0.405  0.6120  0.4205  0.3529
19292TIP3    H179291   6.588   2.735   0.354  1.3243 -1.3775  2.1009
19292TIP3    H279292   6.556   2.850   0.448  0.2077  0.0414  0.0634
19293TIP3   OH279293   2.084   0.503  13.167  0.4549 -0.0793 -0.3072
19293TIP3    H179294   2.068   0.587  13.124  0.0222 -1.3303 -2.7251
19293TIP3    H279295   2.176   0.483  13.148  0.4202 -0.3950 -0.1469
19294TIP3   OH279296   2.090   4.242  10.517 -0.2962  0.1014  0.4032
19294TIP3    H179297   2.076   4.189  10.438  0.2247  0.7645 -0.1481
19294TIP3    H279298   2.041   4.196  10.586  2.2420 -2.6132  0.5946
19295TIP3   OH279299   0.496   5.052  11.216  0.3701  0.1911  0.2119
19295TIP3    H179300   0.450   5.049  11.300  0.7826 -0.3593  0.4179
19295TIP3    H279301   0.545   5.134  11.219 -0.3832  0.6664  0.0899
19296TIP3   OH279302   5.896   0.508   1.421 -0.2389  0.1376 -0.1371
19296TIP3    H179303   5.886   0.499   1.516  0.0352  3.1789  0.2941
19296TIP3    H279304   5.952   0.435   1.395  0.3399 -0.3204  2.1752
19297TIP3   OH279305   4.557   5.324   0.203  0.3216  0.8218  0.3238
19297TIP3    H179306   4.594   5.358   0.284 -1.7551  1.2353  1.1734
19297TIP3    H279307   4.606   5.244   0.185  1.8449  1.5415  1.1339
19298TIP3   OH279308   3.903   2.772   1.976  0.1186 -0.3811 -0.2112
19298TIP3    H179309   3.914   2.782   2.070 -0.6310 -0.0512 -0.1511
19298TIP3    H279310   3.845   2.843   1.950  2.2519  1.0481 -1.3435
19299TIP3   OH279311   1.598   1.038  12.123 -0.0392 -0.0584 -0.2217
19299TIP3    H179312   1.583   1.097  12.197  0.1321  0.5975 -0.6980
19299TIP3    H279313   1.519   1.046  12.070 -0.0641 -0.3513 -0.2309
19300TIP3   OH279314   1.559   1.161  16.010 -0.1412 -0.2321  0.8885
19300TIP3    H179315   1.645   1.194  16.035  1.0951 -0.8861 -2.0393
19300TIP3    H279316   1.524   1.227  15.949  0.3940 -1.9831 -1.4898
19301TIP3   OH279317   5.879   2.323  12.035  0.3559 -0.7709 -0.1940
19301TIP3    H179318   5.818   2.294  12.103 -0.9990  0.4146 -0.8411
19301TIP3    H279319   5.883   2.250  11.973 -0.9232 -0.6478 -0.4563
19302TIP3   OH279320   2.166   0.421   3.156 -0.0893 -0.2508  0.1382
19302TIP3    H179321   2.226   0.420   3.082 -0.0682  1.8349  0.0705
19302TIP3    H279322   2.112   0.343   3.145  0.1496 -0.1727 -1.8828
19303TIP3   OH279323   4.502   2.876  15.258  0.0095  0.8595  0.2540
19303TIP3    H179324   4.526   2.929  15.182 -1.6673  0.2604 -0.7471
19303TIP3    H279325   4.526   2.787  15.233  0.6699  0.8153  0.9894
19304TIP3   OH279326   5.973   5.187  16.909 -0.1424  0.3094 -0.1898
19304TIP3    H179327   6.011   5.238  16.981 -0.9084 -0.4288  0.7643
19304TIP3    H279328   6.011   5.226  16.830  1.4363  0.5528  0.6376
19305TIP3   OH279329   1.304   3.678  17.055  0.5824 -0.6099  0.1411
19305TIP3    H179330   1.389   3.716  17.032  0.1293  0.0756 -0.4223
19305TIP3    H279331   1.286   3.617  16.983 -0.1859  0.5039 -0.6319
19306TIP3   OH279332   2.123   1.409  13.013 -0.1317 -0.2501  0.0553
19306TIP3    H179333   2.153   1.339  13.072 -2.7200 -2.7391 -1.2967
19306TIP3    H279334   2.171   1.395  12.932 -1.0041 -0.8194 -0.3762
19307TIP3   OH279335   1.132   3.249   0.643 -0.5406  0.3326  0.3712
19307TIP3    H179336   1.060   3.197   0.608  0.0366 -2.0577  2.5035
19307TIP3    H279337   1.098   3.287   0.724 -0.7123  2.8616 -0.7674
19308TIP3   OH279338   0.207   4.040   2.902  1.2035  0.3183 -0.1017
19308TIP3    H179339   0.148   3.981   2.855 -0.9807  0.7690  1.9261
19308TIP3    H279340   0.286   4.042   2.848  0.3484 -2.3167 -1.6170
19309TIP3   OH279341   2.343   5.819   1.167  0.3097 -0.0365  0.1829
19309TIP3    H179342   2.365   5.776   1.084 -0.8312 -0.0167 -0.1425
19309TIP3    H279343   2.303   5.750   1.220 -0.1188  0.2557  0.2423
19310TIP3   OH279344   4.271   2.321   1.254 -0.6342  0.5553  0.4025
19310TIP3    H179345   4.309   2.352   1.172 -0.0053 -0.8978  0.1225
19310TIP3    H279346   4.296   2.387   1.318 -1.6046  2.0097 -0.6458
19311TIP3   OH279347   5.093   1.532  13.941  0.2029 -0.1720 -0.3211
19311TIP3    H179348   5.031   1.499  14.006 -1.2377 -0.2121 -1.6673
19311TIP3    H279349   5.142   1.600  13.988  0.0108 -0.9781  1.1216
19312TIP3   OH279350   5.137   2.588  15.973 -0.2498 -1.1853  0.0291
19312TIP3    H179351   5.175   2.645  16.039 -0.1092  0.4600 -1.3702
19312TIP3    H279352   5.046   2.619  15.965  0.4576  0.6283 -2.4265
19313TIP3   OH279353   0.405   4.455   2.006  0.6220  0.7128  0.2319
19313TIP3    H179354   0.348   4.379   2.020  0.9069  0.3778 -0.3664
19313TIP3    H279355   0.359   4.527   2.048 -0.7606  0.6509 -1.0516
19314TIP3   OH279356   2.879   2.200  12.227  1.0222 -0.1934 -0.0239
19314TIP3    H179357   2.886   2.212  12.322 -2.2856 -1.8191  0.5583
19314TIP3    H279358   2.879   2.105  12.215 -1.0264 -0.0995 -1.2902
19315TIP3   OH279359   1.664   4.756   5.714 -0.6958 -0.2535 -0.4053
19315TIP3    H179360   1.574   4.729   5.733 -0.8360  0.1914 -0.4226
19315TIP3    H279361   1.693   4.697   5.644 -1.8414  1.1755 -2.1892
19316TIP3   OH279362   4.894   5.694  14.152  0.0951  0.9038 -0.2145
19316TIP3    H179363   4.965   5.746  14.188 -0.2531  2.2342 -1.3409
19316TIP3    H279364   4.881   5.729  14.063 -0.9323 -0.3392 -0.5914
19317TIP3   OH279365   3.131   4.922   1.246  0.0432  0.2352  0.2234
19317TIP3    H179366   3.047   4.910   1.290  0.1952  0.6064  0.6177
19317TIP3    H279367   3.185   4.970   1.309  0.3518  0.5385 -0.2634
19318TIP3   OH279368   0.591   2.377   0.400 -0.5126  0.2804 -0.1917
19318TIP3    H179369   0.504   2.365   0.361 -2.0995  0.0840  3.0708
19318TIP3    H279370   0.628   2.288   0.403 -0.4567  0.2705 -0.9794
19319TIP3   OH279371   2.060   6.648   1.183 -0.4092  0.0393  0.1595
19319TIP3    H179372   2.006   6.727   1.193 -0.5703 -0.0853  0.2865
19319TIP3    H279373   2.135   6.677   1.132 -0.6023  0.2140 -0.0268
19320TIP3   OH279374   4.535   1.642   4.412  0.0260 -0.1461  0.5432
19320TIP3    H179375   4.474   1.606   4.348 -0.5872 -0.1545  1.1271
19320TIP3    H279376   4.512   1.734   4.418  0.3974 -0.0427  0.4008
19321TIP3   OH279377   1.750   0.300   4.822  0.4735  0.8592 -0.1467
19321TIP3    H179378   1.819   0.358   4.791  1.2759  0.3429  0.6242
19321TIP3    H279379   1.719   0.340   4.903  1.1969  0.1116  0.5172
19322TIP3   OH279380   5.205   1.644   5.390 -0.2898  0.5666 -0.2874
19322TIP3    H179381   5.253   1.723   5.364 -0.2394  0.6606  0.0839
19322TIP3    H279382   5.124   1.678   5.430 -0.1809  0.4379  0.0491
19323TIP3   OH279383   4.922   2.640   6.420  0.1970  0.4667 -0.0510
19323TIP3    H179384   4.918   2.606   6.510 -1.3974 -0.0349 -0.2814
19323TIP3    H279385   4.851   2.704   6.416  1.0133  1.3513 -0.6259
19324TIP3   OH279386   1.991   1.168  16.482 -0.6395  0.3785 -0.4493
19324TIP3    H179387   1.912   1.221  16.486 -0.9988  0.0584 -2.3763
19324TIP3    H279388   2.057   1.220  16.529 -1.9189  0.7118  1.0497
19325TIP3   OH279389   4.484   5.896  15.082  1.0053 -0.5214 -0.2391
19325TIP3    H179390   4.443   5.859  15.160  0.9393 -0.3599 -0.1954
19325TIP3    H279391   4.466   5.990  15.088  2.9066 -0.1881  0.7033
19326TIP3   OH279392   0.912   0.389  13.765 -0.4209 -0.5540 -0.6723
19326TIP3    H179393   0.942   0.463  13.819  0.1168 -2.2169  1.4376
19326TIP3    H279394   0.934   0.415  13.676  1.8450  0.8910  0.2066
19327TIP3   OH279395   0.924   6.781  10.682 -0.6879 -0.9022 -0.3001
19327TIP3    H179396   0.846   6.778  10.738 -1.7576 -0.1993 -1.6971
19327TIP3    H279397   0.913   6.859  10.629  2.0172  0.3918  0.8611
19328TIP3   OH279398   4.244   0.203   1.371 -0.0248  0.3097  0.0099
19328TIP3    H179399   4.320   0.244   1.329  0.4281 -0.1640  0.3604
19328TIP3    H279400   4.274   0.181   1.459 -0.4741 -0.1637  0.0486
19329TIP3   OH279401   2.525   4.763  13.038 -0.2220  0.3845 -0.7336
19329TIP3    H179402   2.522   4.824  13.112  0.6381 -0.0098 -0.3577
19329TIP3    H279403   2.524   4.676  13.078 -1.6904  0.1328 -1.2806
19330TIP3   OH279404   5.588   1.652  16.368  0.0833 -0.2423  0.4394
19330TIP3    H179405   5.521   1.715  16.345  0.3142  0.2589  1.0972
19330TIP3    H279406   5.619   1.680  16.455  2.5213  0.7318 -0.6393
19331TIP3   OH279407   6.035   1.533  11.719  0.0392 -0.4798 -0.3884
19331TIP3    H179408   5.958   1.512  11.666  0.3378 -0.3660 -0.8720
19331TIP3    H279409   6.094   1.579  11.659  0.4294 -0.4462  0.0147
19332TIP3   OH279410   0.046   6.618   3.680 -0.6437  0.1066 -0.0425
19332TIP3    H179411   0.085   6.703   3.661 -0.4179 -0.3949 -2.0805
19332TIP3    H279412  -0.007   6.598   3.603 -1.1271 -1.3781  0.6278
19333TIP3   OH279413   2.871   4.517  11.835  0.1307  0.4347  0.4004
19333TIP3    H179414   2.920   4.600  11.829  0.9351 -0.0199  0.5731
19333TIP3    H279415   2.849   4.496  11.745 -0.9100  1.3217  0.4304
19334TIP3   OH279416   2.014   3.455  16.247  0.0562 -0.5007  0.4178
19334TIP3    H179417   2.081   3.509  16.289 -1.6644  2.1090  0.0058
19334TIP3    H279418   1.975   3.404  16.318  0.2740  0.3971  1.1931
19335TIP3   OH279419   6.237   5.204   6.040 -0.5273  0.4977  0.0036
19335TIP3    H179420   6.299   5.263   6.081 -0.4629  1.0126 -0.8174
19335TIP3    H279421   6.238   5.126   6.096 -1.5258  1.7002  1.8216
19336TIP3   OH279422   1.625   3.411  17.153 -0.0470 -0.6839  0.7332
19336TIP3    H179423   1.558   3.458  17.203 -1.5498 -2.7278  0.7391
19336TIP3    H279424   1.645   3.333  17.205  3.5869  0.5593  1.5311
19337TIP3   OH279425   3.303   6.108   0.176 -0.2701 -0.8004  0.3644
19337TIP3    H179426   3.282   6.087   0.086 -2.8954  0.1741  0.6632
19337TIP3    H279427   3.348   6.192   0.172  0.4145 -1.1752 -0.0553
19338TIP3   OH279428   0.702   6.659   1.835 -0.0118 -1.1507 -0.5828
19338TIP3    H179429   0.756   6.711   1.776 -0.2165  0.5036  0.6080
19338TIP3    H279430   0.696   6.574   1.794  1.5569 -0.6670 -1.8984
19339TIP3   OH279431   1.012   1.758  12.560 -0.1612  0.3833 -0.2444
19339TIP3    H179432   1.080   1.812  12.520  0.8406 -2.7128 -3.2488
19339TIP3    H279433   0.930   1.789  12.521  0.5971 -1.2659 -3.4731
19340TIP3   OH279434   1.139   3.663  10.939 -0.1044  0.4719 -1.1463
19340TIP3    H179435   1.051   3.698  10.923 -0.1156  0.6465 -0.7109
19340TIP3    H279436   1.125   3.587  10.995 -0.0475 -0.0204 -1.7852
19341TIP3   OH279437   4.923   1.310   3.214 -0.2648 -0.1122 -0.2107
19341TIP3    H179438   4.868   1.365   3.158 -0.3079  0.0556 -0.0037
19341TIP3    H279439   4.882   1.224   3.209  0.3492 -0.3626 -1.2944
19342TIP3   OH279440   0.707   2.372  10.791 -0.1942 -0.2463 -0.2625
19342TIP3    H179441   0.648   2.446  10.806 -1.2680 -1.3101  1.2038
19342TIP3    H279442   0.648   2.299  10.770  0.8086 -0.7650 -1.3779
19343TIP3   OH279443   4.146   0.824  16.757  0.9097 -0.8373  0.1905
19343TIP3    H179444   4.135   0.845  16.665 -1.0678  2.0389  0.9356
19343TIP3    H279445   4.236   0.794  16.765  0.9824 -1.6237 -2.7129
19344TIP3   OH279446   5.154   1.611  14.547 -0.1926 -0.2916 -0.1657
19344TIP3    H179447   5.089   1.679  14.566  1.1641  0.9798  0.0810
19344TIP3    H279448   5.156   1.557  14.625  0.1020  0.5494  0.4183
19345TIP3   OH279449   2.248   5.717   4.805 -0.0168  0.0312  0.2081
19345TIP3    H179450   2.170   5.663   4.794  0.3691 -0.9423  1.8652
19345TIP3    H279451   2.218   5.806   4.793 -1.0552 -0.4234 -0.7227
19346TIP3   OH279452   1.212   6.245  16.363  0.4724  0.3759 -0.1122
19346TIP3    H179453   1.270   6.295  16.306  0.1769  0.4417 -0.3590
19346TIP3    H279454   1.211   6.293  16.445 -0.0113  0.9263 -0.4326
19347TIP3   OH279455   6.431   5.738   5.710  0.0357  0.0405  0.0208
19347TIP3    H179456   6.498   5.722   5.776  0.5080 -2.3861 -0.9405
19347TIP3    H279457   6.394   5.824   5.733  0.3829 -0.5352  3.2018
19348TIP3   OH279458   1.654   6.304  15.050 -0.1304 -0.0282 -0.2522
19348TIP3    H179459   1.722   6.259  14.999 -0.8775 -0.5458 -0.8294
19348TIP3    H279460   1.573   6.285  15.002 -0.5746  1.2623 -0.0420
19349TIP3   OH279461   0.930   1.655  16.899  0.3678  0.0453 -0.5562
19349TIP3    H179462   0.972   1.734  16.863  2.2940 -1.0021 -0.7381
19349TIP3    H279463   0.902   1.681  16.987  2.1338  0.6029 -0.1277
19350TIP3   OH279464   5.682   2.931  13.116 -0.7546  0.0929 -0.2107
19350TIP3    H179465   5.701   2.889  13.200 -4.5229 -4.3135 -1.0803
19350TIP3    H279466   5.766   2.936  13.071  0.9481 -0.0238  2.7491
19351TIP3   OH279467   5.939   0.750  11.383 -0.3943 -0.0511  0.6307
19351TIP3    H179468   6.006   0.803  11.426 -0.5229  0.0757  0.6771
19351TIP3    H279469   5.981   0.666  11.367  0.2335  0.4903 -0.6407
19352TIP3   OH279470   2.188   4.381   2.733  0.3701  0.2651  0.5533
19352TIP3    H179471   2.101   4.381   2.694  0.2517  1.5566  0.7629
19352TIP3    H279472   2.200   4.293   2.768 -0.6223 -0.0855  0.0226
19353TIP3   OH279473   2.290   2.994   3.109  0.0439  0.3381  0.6733
19353TIP3    H179474   2.384   2.977   3.120 -0.0272 -0.5255  0.0549
19353TIP3    H279475   2.258   3.005   3.199  0.9400  1.9116  0.8393
19354TIP3   OH279476   2.890   3.665   3.374 -0.3918 -0.0643 -0.0830
19354TIP3    H179477   2.811   3.713   3.398 -0.0769  0.1071  0.6193
19354TIP3    H279478   2.934   3.721   3.311 -0.4834  0.1512  0.0460
19355TIP3   OH279479   4.466   3.437  16.328 -0.8192 -0.9527  0.1097
19355TIP3    H179480   4.479   3.347  16.360 -1.3949 -0.4041  2.0019
19355TIP3    H279481   4.372   3.443  16.311 -1.0186 -0.3165  1.3420
19356TIP3   OH279482   2.087   6.720  17.077 -0.0084  0.0857 -0.2910
19356TIP3    H179483   2.170   6.757  17.046 -0.4487  0.5218 -0.9677
19356TIP3    H279484   2.109   6.677  17.160  0.7425  0.8790 -0.0645
19357TIP3   OH279485   0.066   3.536   0.513  0.4879  0.3952  0.0426
19357TIP3    H179486   0.080   3.626   0.544  0.7655 -0.2285  1.8357
19357TIP3    H279487   0.112   3.533   0.429  3.3284  1.0641  1.4319
19358TIP3   OH279488   4.263   5.428   5.491  0.0402  0.6081 -0.4705
19358TIP3    H179489   4.345   5.466   5.462 -0.1199  1.7579  0.5141
19358TIP3    H279490   4.276   5.334   5.483  1.9347  0.7016  0.9080
19359TIP3   OH279491   1.270   2.565   6.594 -0.7555  0.2543  0.0092
19359TIP3    H179492   1.275   2.660   6.582 -1.7719  0.3141 -0.0082
19359TIP3    H279493   1.191   2.539   6.547 -0.1872 -0.6864 -0.4540
19360TIP3   OH279494   4.576   6.138   1.495 -0.4587 -0.6958 -0.6064
19360TIP3    H179495   4.504   6.138   1.558  1.2291 -1.8378  1.4863
19360TIP3    H279496   4.639   6.201   1.530  0.6996 -1.6631 -0.8673
19361TIP3   OH279497   1.641   6.175   2.817 -0.3663  0.2631 -0.2479
19361TIP3    H179498   1.683   6.199   2.900 -0.7804  0.4265 -0.0838
19361TIP3    H279499   1.568   6.236   2.809 -2.3983 -1.8820  0.9273
19362TIP3   OH279500   5.525   2.595   4.220 -0.1314  0.7044 -0.6763
19362TIP3    H179501   5.594   2.614   4.157 -0.1415 -0.2436 -0.9813
19362TIP3    H279502   5.517   2.676   4.272  1.1039  0.8650 -0.7153
19363TIP3   OH279503   1.922   2.896  13.307  0.1974 -0.6015  0.1591
19363TIP3    H179504   1.993   2.858  13.255 -0.6108 -1.2727 -0.4768
19363TIP3    H279505   1.947   2.988  13.318  0.8114 -0.6610 -0.6723
19364TIP3   OH279506   4.105   2.420  12.198 -0.0174 -0.2353 -0.7899
19364TIP3    H179507   4.058   2.438  12.279 -1.8789 -1.4576 -1.5324
19364TIP3    H279508   4.159   2.344  12.217 -0.1492 -0.2763 -0.5794
19365TIP3   OH279509   3.316   1.402  11.125 -0.0381  0.2898  0.0564
19365TIP3    H179510   3.240   1.349  11.103 -0.2364  0.7345 -0.3212
19365TIP3    H279511   3.294   1.443  11.209 -0.7555  1.4370 -0.6622
19366TIP3   OH279512   0.088   4.934   3.505 -0.1234  0.3900  0.2215
19366TIP3    H179513   0.024   4.863   3.514  0.5756 -0.4021 -0.8027
19366TIP3    H279514   0.132   4.937   3.590 -0.6236  0.0719  0.5010
19367TIP3   OH279515   1.170   5.519  12.376 -0.0329  0.7186  0.3398
19367TIP3    H179516   1.130   5.604  12.360 -1.1700 -0.0018 -0.7678
19367TIP3    H279517   1.112   5.456  12.335  2.2923 -0.3715 -1.5354
19368TIP3   OH279518   3.241   3.333   1.572 -0.1198 -0.0294 -0.2401
19368TIP3    H179519   3.177   3.276   1.615 -0.9882  3.1566  3.2557
19368TIP3    H279520   3.325   3.289   1.585 -0.9919 -1.8042 -0.2794
19369TIP3   OH279521   0.335   4.990  11.878 -0.5090 -0.1550  0.2845
19369TIP3    H179522   0.350   4.906  11.836  0.3392  0.1979 -0.1311
19369TIP3    H279523   0.331   4.969  11.972  0.7200 -0.5393  0.2715
19370TIP3   OH279524   1.680   4.684  17.188 -0.1997 -0.2680 -0.4650
19370TIP3    H179525   1.616   4.613  17.183 -0.5059 -0.0934  0.7338
19370TIP3    H279526   1.648   4.740  17.258  1.7419 -0.6520  0.8052
19371TIP3   OH279527   3.822   2.102   6.769 -0.6333  0.0128 -0.5005
19371TIP3    H179528   3.882   2.165   6.729  0.2672  0.2704  1.1541
19371TIP3    H279529   3.875   2.023   6.781 -0.8154  0.0093  0.3255
19372TIP3   OH279530   2.305   1.270   1.509  0.2332 -0.0907 -0.2087
19372TIP3    H179531   2.211   1.254   1.519  0.0457 -0.8410 -2.5929
19372TIP3    H279532   2.346   1.184   1.519  0.5068 -0.0057 -0.5517
19373TIP3   OH279533   0.383   5.117   1.545  0.2917 -0.4964 -0.4343
19373TIP3    H179534   0.290   5.125   1.524  0.2473  1.4389  0.2490
19373TIP3    H279535   0.385   5.064   1.625 -0.4993  1.4576  0.9801
19374TIP3   OH279536   0.849   6.753   3.239 -0.2632  0.6405  0.4561
19374TIP3    H179537   0.934   6.796   3.246 -1.2335  3.5800 -2.9750
19374TIP3    H279538   0.786   6.821   3.263 -1.8087  0.7829 -3.3667
19375TIP3   OH279539   3.569   5.762   5.782  0.0721  0.5655 -0.5563
19375TIP3    H179540   3.654   5.753   5.739 -0.0786  0.6442 -0.8818
19375TIP3    H279541   3.579   5.836   5.841  0.6576 -0.3203  0.4843
19376TIP3   OH279542   3.244   6.520   4.302 -0.2161 -0.3584  0.1490
19376TIP3    H179543   3.338   6.513   4.284 -0.2009 -1.3951  0.5591
19376TIP3    H279544   3.204   6.525   4.215  0.0704 -2.3391 -0.1504
19377TIP3   OH279545   5.479   0.326  12.772  0.4163 -0.2326  0.0488
19377TIP3    H179546   5.512   0.416  12.768  0.5156 -0.3202 -1.3845
19377TIP3    H279547   5.436   0.312  12.688 -1.0229 -1.0032  0.8603
19378TIP3   OH279548   4.322   5.110   1.792  0.0766  0.6755  0.1059
19378TIP3    H179549   4.275   5.193   1.792 -0.4307  0.3999  0.7273
19378TIP3    H279550   4.399   5.126   1.847 -0.4437  0.5162  0.9002
19379TIP3   OH279551   2.702   3.842  11.835 -0.5894 -0.0342  0.1023
19379TIP3    H179552   2.662   3.781  11.772  1.0261 -0.6447 -0.3899
19379TIP3    H279553   2.702   3.926  11.790 -1.7138  0.0840  0.2970
19380TIP3   OH279554   3.797   3.921  11.319  0.5452 -0.4498  0.5247
19380TIP3    H179555   3.774   3.843  11.369 -0.7037 -1.3976 -1.4194
19380TIP3    H279556   3.883   3.902  11.282  0.6894 -0.4612  0.8578
19381TIP3   OH279557   1.002   3.811  15.196  0.1438  0.0911 -0.2323
19381TIP3    H179558   0.911   3.836  15.212  0.0737 -0.6525  0.6489
19381TIP3    H279559   0.995   3.739  15.133  0.0991 -0.0883 -0.0264
19382TIP3   OH279560   3.519   5.152   2.480 -0.2846  0.4243 -0.3671
19382TIP3    H179561   3.590   5.102   2.441 -0.8513 -0.7420  0.0478
19382TIP3    H279562   3.556   5.184   2.563 -0.3938 -0.6273  0.1028
19383TIP3   OH279563   3.941   1.963  15.308 -0.2308 -0.2583  0.3015
19383TIP3    H179564   3.887   2.041  15.322  0.0895 -0.0039  0.1231
19383TIP3    H279565   3.990   1.982  15.228 -1.0142 -1.1235 -0.4053
19384TIP3   OH279566   6.400   1.224  16.686  0.2260 -0.5358 -0.7233
19384TIP3    H179567   6.476   1.223  16.628  1.0309 -0.5694  0.3007
19384TIP3    H279568   6.411   1.304  16.738  0.3836 -1.3166  0.4754
19385TIP3   OH279569   4.296   2.969   5.105 -0.5133  0.1291  0.5991
19385TIP3    H179570   4.375   3.010   5.070  1.0670 -0.6005  3.0578
19385TIP3    H279571   4.301   2.877   5.077 -0.4212  0.0480  0.8830
19386TIP3   OH279572   1.133   3.645   5.179  0.1824 -0.1942 -0.2457
19386TIP3    H179573   1.153   3.564   5.225  1.9878  0.9130  1.0610
19386TIP3    H279574   1.181   3.637   5.096 -1.1859 -1.2134 -0.9744
19387TIP3   OH279575   0.273   5.017  11.435 -0.2809  0.0946 -0.3376
19387TIP3    H179576   0.187   5.059  11.443  0.1239  1.7436 -3.1551
19387TIP3    H279577   0.335   5.086  11.458  0.4024 -1.2516  2.2754
19388TIP3   OH279578   2.052   3.594  14.871  0.1034 -0.2391 -0.5041
19388TIP3    H179579   1.999   3.658  14.823 -0.1132  0.4852  0.6460
19388TIP3    H279580   2.098   3.545  14.803  0.0270  0.9336 -1.4357
19389TIP3   OH279581   4.379   6.172   3.104 -0.1539 -0.0607  0.4758
19389TIP3    H179582   4.458   6.203   3.059  0.0737 -0.0004  0.9045
19389TIP3    H279583   4.334   6.118   3.040  0.0414  0.2201  0.0988
19390TIP3   OH279584   4.708   6.059  11.985  0.0136 -0.2217  0.8152
19390TIP3    H179585   4.786   6.045  12.038  0.0341 -3.5471  0.0948
19390TIP3    H279586   4.736   6.038  11.896 -1.9570 -3.1384  0.7447
19391TIP3   OH279587   6.102   2.481   1.155 -0.4030 -0.8592 -0.0756
19391TIP3    H179588   6.176   2.428   1.185 -1.2401 -0.8985  2.1252
19391TIP3    H279589   6.053   2.423   1.096  0.7140 -1.1902 -0.7098
19392TIP3   OH279590   0.110   3.544  12.725  0.0220  0.3393 -0.1996
19392TIP3    H179591   0.108   3.631  12.687 -2.0085  0.3285 -0.2466
19392TIP3    H279592   0.105   3.559  12.820 -2.0877  0.3061 -0.2604
19393TIP3   OH279593   2.945   4.621   3.960 -0.2114 -0.1291 -0.4185
19393TIP3    H179594   2.872   4.558   3.962 -0.2009 -0.1255  0.4394
19393TIP3    H279595   3.013   4.581   4.014 -0.2365  0.6546  0.2123
19394TIP3   OH279596   6.431   4.390   2.500 -0.7219 -0.0969  0.4067
19394TIP3    H179597   6.477   4.389   2.584  0.4247 -0.1451 -0.2007
19394TIP3    H279598   6.396   4.479   2.493 -0.8189 -0.0923  0.9211
19395TIP3   OH279599   6.327   1.128   0.300  0.1586  0.1193  0.6144
19395TIP3    H179600   6.256   1.101   0.358  1.5457 -1.2179  1.7965
19395TIP3    H279601   6.395   1.160   0.359  1.0950 -0.0152 -0.3626
19396TIP3   OH279602   3.796   0.033   6.125 -0.0058 -0.3282 -0.2870
19396TIP3    H179603   3.715   0.022   6.175  1.0692 -1.0017  1.3800
19396TIP3    H279604   3.830   0.118   6.152 -1.3275  1.1582 -2.8556
19397TIP3   OH279605   0.804   0.549  15.267 -0.5794 -0.1417 -0.1074
19397TIP3    H179606   0.770   0.622  15.320 -1.2197  1.3275 -2.4020
19397TIP3    H279607   0.729   0.493  15.252 -0.4910 -0.3386  0.1755
19398TIP3   OH279608   6.376   1.487   1.625 -0.0996 -0.1682  0.6545
19398TIP3    H179609   6.471   1.495   1.617  0.1291 -1.1812  2.0834
19398TIP3    H279610   6.362   1.437   1.705 -1.9100  2.3610  2.0605
19399TIP3   OH279611   6.783   2.110   4.334  0.0550 -0.3299 -0.2544
19399TIP3    H179612   6.775   2.168   4.258  0.3263 -0.9987 -0.7962
19399TIP3    H279613   6.718   2.144   4.396 -1.1865 -0.6182 -1.3361
19400TIP3   OH279614   5.308   4.517  13.045 -0.3136  0.0745  0.2403
19400TIP3    H179615   5.243   4.450  13.064  0.5502 -0.3310  1.9694
19400TIP3    H279616   5.312   4.571  13.124  1.1720  0.3140  0.0464
19401TIP3   OH279617   4.056   4.006  14.725  0.4447 -0.6691 -0.2017
19401TIP3    H179618   3.992   3.998  14.796  0.6075 -3.0605 -0.2465
19401TIP3    H279619   4.034   4.089  14.682 -1.8428 -0.8260  0.5162
19402TIP3   OH279620   1.358   6.073   1.733  0.4892  0.2771 -0.2273
19402TIP3    H179621   1.367   6.138   1.803  0.5517 -1.3344  1.3220
19402TIP3    H279622   1.273   6.094   1.693 -1.6172 -1.1534  3.0284
19403TIP3   OH279623   5.625   0.929  12.283 -0.0871  0.5137  0.0580
19403TIP3    H179624   5.556   0.896  12.225  0.2705  0.0160 -0.0901
19403TIP3    H279625   5.639   1.019  12.254 -1.5737  1.0635  0.9350
19404TIP3   OH279626   4.780   1.998  12.821 -0.7716  0.9085 -1.3020
19404TIP3    H179627   4.776   1.961  12.733  0.2381 -1.1094 -0.5546
19404TIP3    H279628   4.784   1.923  12.879  0.6891  2.1747  0.3694
19405TIP3   OH279629   4.249   6.430  10.992 -0.1878  0.1653  0.3692
19405TIP3    H179630   4.258   6.416  11.086 -0.7010 -1.5406  0.1982
19405TIP3    H279631   4.306   6.505  10.973 -0.7216  1.0702  2.1552
19406TIP3   OH279632   2.298   6.234   0.071  0.0641 -0.6802 -0.5443
19406TIP3    H179633   2.284   6.316   0.023  0.9703 -0.1733  0.0210
19406TIP3    H279634   2.319   6.170   0.003 -1.8111 -0.7450 -1.1072
19407TIP3   OH279635   4.247   5.109  14.824  0.6901 -0.1272 -0.1880
19407TIP3    H179636   4.242   5.014  14.827 -0.3463 -0.0764  0.1671
19407TIP3    H279637   4.225   5.137  14.913  0.8940  0.4511 -0.3148
19408TIP3   OH279638   5.905   6.149  11.208  0.7158  0.4350 -0.3128
19408TIP3    H179639   5.857   6.097  11.144  1.7732 -0.6890 -0.2170
19408TIP3    H279640   5.846   6.222  11.228 -0.2670 -0.0321 -1.3956
19409TIP3   OH279641   5.506   4.817   0.631 -0.1611  0.2756  0.2627
19409TIP3    H179642   5.499   4.744   0.569  0.4664  1.0216 -0.7185
19409TIP3    H279643   5.515   4.895   0.576  2.9074  0.7534  1.2032
19410TIP3   OH279644   2.439   4.967   2.104 -0.4185  0.5074  0.4477
19410TIP3    H179645   2.502   4.984   2.034 -0.9433 -0.2672 -0.2320
19410TIP3    H279646   2.416   5.053   2.137  1.4405  0.7894  1.1328
19411TIP3   OH279647   0.972   0.001   2.532  0.2351  0.3601  0.5202
19411TIP3    H179648   1.023  -0.056   2.590 -1.0599 -0.5721  0.7928
19411TIP3    H279649   1.021   0.001   2.450  1.6585  1.0215  1.3251
19412TIP3   OH279650   1.378   6.529   0.967 -0.2619  0.6842 -0.0348
19412TIP3    H179651   1.409   6.464   1.031  3.7847  1.0914 -1.2818
19412TIP3    H279652   1.314   6.481   0.914  0.7721 -1.5639  0.5958
19413TIP3   OH279653   6.027   5.820  13.816  0.3679 -0.7849 -0.3030
19413TIP3    H179654   6.014   5.758  13.887 -0.3677 -1.6163 -1.1440
19413TIP3    H279655   6.120   5.815  13.795  0.6166 -0.4175  0.6944
19414TIP3   OH279656   2.329   6.421   3.912 -0.4969 -0.3628  0.0455
19414TIP3    H179657   2.351   6.486   3.846 -0.5801  0.8394  1.1682
19414TIP3    H279658   2.249   6.379   3.879  1.5653 -2.6182 -2.5537
19415TIP3   OH279659   1.650   2.171   1.217  0.4161  0.2835 -0.0387
19415TIP3    H179660   1.662   2.158   1.311  0.2431 -1.3545 -0.2220
19415TIP3    H279661   1.558   2.150   1.202  0.5328  0.1883 -0.6277
19416TIP3   OH279662   3.005   2.726   0.256  0.3544  0.2883  0.1979
19416TIP3    H179663   3.100   2.734   0.266  0.4380  0.0744 -0.3994
19416TIP3    H279664   2.979   2.806   0.211  0.4881 -0.3860 -1.1311
19417TIP3   OH279665   3.792   3.192  16.562  0.1648 -2.0253  0.5597
19417TIP3    H179666   3.720   3.255  16.561 -0.8261 -3.1068 -0.4620
19417TIP3    H279667   3.811   3.177  16.655  0.4786 -0.2041  0.8139
19418TIP3   OH279668   6.190   1.762   4.229 -0.3662  0.1308  0.1381
19418TIP3    H179669   6.152   1.813   4.301  1.4280  1.4428  0.2095
19418TIP3    H279670   6.215   1.828   4.164 -0.3243 -0.8956 -0.9243
19419TIP3   OH279671   1.212   5.211   5.636 -0.1146  0.2172 -0.0410
19419TIP3    H179672   1.299   5.247   5.622 -0.0741 -0.6186 -2.3820
19419TIP3    H279673   1.192   5.231   5.727  0.9828  3.7108 -0.4200
19420TIP3   OH279674   4.819   4.568   2.105 -0.2900 -0.5252  0.1132
19420TIP3    H179675   4.739   4.606   2.068  0.5741  0.2135 -1.0542
19420TIP3    H279676   4.842   4.497   2.045  0.8464  0.3542 -0.5310
19421TIP3   OH279677   5.325   4.703  11.017 -0.0870 -0.0306 -0.4516
19421TIP3    H179678   5.371   4.730  10.938 -1.3004 -0.6664 -1.4134
19421TIP3    H279679   5.241   4.748  11.012 -0.2133 -0.1513  0.4414
19422TIP3   OH279680   0.462   3.618  16.198 -0.0804  0.2177 -0.4632
19422TIP3    H179681   0.374   3.653  16.214  0.1920  0.5251  0.4132
19422TIP3    H279682   0.456   3.579  16.111 -0.6446  1.6592 -1.1141
19423TIP3   OH279683   4.893   3.629   3.936  0.1193  0.6168 -0.3560
19423TIP3    H179684   4.887   3.631   4.031  0.1152  1.4667 -0.3617
19423TIP3    H279685   4.833   3.560   3.909  0.1219  0.3684  0.2542
19424TIP3   OH279686   5.616   5.126  14.123 -0.1321 -0.0783 -0.0258
19424TIP3    H179687   5.682   5.058  14.137 -0.3812 -0.4698 -0.7086
19424TIP3    H279688   5.536   5.078  14.105 -0.4527  0.4024  0.1120
19425TIP3   OH279689   1.758   1.360   5.833  0.0150 -0.2124 -0.3202
19425TIP3    H179690   1.768   1.328   5.923 -0.7879  0.5778  0.0650
19425TIP3    H279691   1.672   1.329   5.806  0.1325 -0.1945 -0.7167
19426TIP3   OH279692   0.907   3.062  12.757 -0.3148 -0.7057  0.5856
19426TIP3    H179693   0.842   3.044  12.689  1.0507  1.0695 -1.3153
19426TIP3    H279694   0.900   3.156  12.773  0.6702 -0.7759  1.5448
19427TIP3   OH279695   6.227   5.004   2.905  0.0755 -0.1570 -0.1360
19427TIP3    H179696   6.317   5.035   2.900  0.4186 -1.1574 -0.4055
19427TIP3    H279697   6.197   5.004   2.814  0.5003 -1.7765 -0.2983
19428TIP3   OH279698   0.939   5.015  15.106 -0.4246  0.0837 -0.2779
19428TIP3    H179699   0.858   5.058  15.078 -0.5854  1.1320  1.6201
19428TIP3    H279700   0.998   5.088  15.129  0.1448 -0.6690  0.7629
19429TIP3   OH279701   3.828   0.208  11.472 -0.8062  0.3829 -0.3867
19429TIP3    H179702   3.803   0.299  11.453 -0.0769  0.8041  0.5963
19429TIP3    H279703   3.898   0.189  11.411 -0.8804  0.5246 -0.5173
19430TIP3   OH279704   2.036   2.562  14.790 -0.2766  0.1430  0.3355
19430TIP3    H179705   2.019   2.486  14.734 -2.2436  0.3905  0.5414
19430TIP3    H279706   2.002   2.636  14.742  1.5984  0.9545  0.1610
19431TIP3   OH279707   5.779   6.760   5.895 -0.4398  0.2040  0.0425
19431TIP3    H179708   5.781   6.840   5.843  1.4212 -1.4335 -2.7438
19431TIP3    H279709   5.846   6.772   5.961 -0.3035  1.0103 -0.2350
19432TIP3   OH279710   1.799   2.418   2.151  0.5471 -0.6361  0.2881
19432TIP3    H179711   1.731   2.455   2.208  1.5743  2.6915 -0.3865
19432TIP3    H279712   1.770   2.329   2.132 -1.1579 -0.9647  3.7997
19433TIP3   OH279713   6.193   4.548  15.044 -0.6924  0.1236 -0.2341
19433TIP3    H179714   6.222   4.486  15.111 -1.0714 -0.7048 -0.8162
19433TIP3    H279715   6.181   4.631  15.091  1.4699  0.2150  0.2286
19434TIP3   OH279716   5.857   6.019   3.742 -0.3867  0.2409  0.3643
19434TIP3    H179717   5.903   5.986   3.665 -1.6253  0.2145 -0.3769
19434TIP3    H279718   5.867   6.114   3.738  1.0476  0.1564  1.1530
19435TIP3   OH279719   0.191   4.806   3.251  0.2132 -0.5813 -0.2467
19435TIP3    H179720   0.158   4.889   3.287  0.9266 -0.2321 -0.3735
19435TIP3    H279721   0.210   4.752   3.327 -1.8354 -1.2761 -0.1905
19436TIP3   OH279722   3.732   6.181   3.312  0.2566  0.0369 -0.0134
19436TIP3    H179723   3.786   6.116   3.357  1.0647  0.7252  0.0369
19436TIP3    H279724   3.757   6.173   3.220  1.2295  1.0372  0.1287
19437TIP3   OH279725   2.049   4.033  12.547  0.0195 -0.4151 -0.3066
19437TIP3    H179726   2.114   4.094  12.510  0.2803 -0.6332 -0.2131
19437TIP3    H279727   2.051   3.958  12.488  0.0665 -0.5479 -0.1364
19438TIP3   OH279728   3.065   5.705  13.460  0.0881 -0.0800 -0.2755
19438TIP3    H179729   3.161   5.703  13.456  0.1359 -1.2036  0.8587
19438TIP3    H279730   3.045   5.786  13.506  0.5794 -0.5292  0.7729
19439TIP3   OH279731   2.751   5.363  15.881  0.0577  0.3013  0.1105
19439TIP3    H179732   2.660   5.377  15.907 -0.2660 -0.0903 -0.7573
19439TIP3    H279733   2.761   5.414  15.801  0.9211  1.2027  0.7731
19440TIP3   OH279734   6.757   2.554   4.713  0.3311  0.0496  0.0810
19440TIP3    H179735   6.694   2.625   4.699 -0.2554  0.2465  3.0750
19440TIP3    H279736   6.704   2.479   4.739  1.1984 -0.3465  0.7656
19441TIP3   OH279737   2.771   0.581   5.448 -0.2139  0.0640 -0.0503
19441TIP3    H179738   2.769   0.549   5.358 -0.5663 -0.1475  0.0279
19441TIP3    H279739   2.756   0.675   5.441  1.6895  0.3878 -0.3491
19442TIP3   OH279740   5.575   0.661  12.047  0.2009 -0.1399  0.4096
19442TIP3    H179741   5.543   0.748  12.022 -1.5176 -0.9229 -0.2425
19442TIP3    H279742   5.618   0.628  11.968  0.1416 -0.2103  0.4077
19443TIP3   OH279743   4.325   5.071  16.215 -0.1597  0.3570 -0.6228
19443TIP3    H179744   4.282   5.057  16.299  1.8037 -0.4960  0.3008
19443TIP3    H279745   4.262   5.122  16.164 -1.4617  0.7886  1.3067
19444TIP3   OH279746   5.648   2.928   1.399 -0.2601 -0.5600 -0.4494
19444TIP3    H179747   5.668   2.975   1.318 -0.0125  0.1286  0.0094
19444TIP3    H279748   5.565   2.883   1.380  0.7840 -2.0356 -1.7605
19445TIP3   OH279749   6.374   2.224   4.429  0.3996  0.2349 -0.1873
19445TIP3    H179750   6.421   2.306   4.438  0.3379  0.0849  2.0472
19445TIP3    H279751   6.359   2.194   4.519 -0.6461 -1.6123 -0.9036
19446TIP3   OH279752   6.436   3.706   0.091  0.2313  0.5494 -0.1745
19446TIP3    H179753   6.353   3.743   0.061  0.5869  1.5737  0.0576
19446TIP3    H279754   6.412   3.624   0.133 -0.5369  0.2817 -1.0880
19447TIP3   OH279755   5.089   3.448   0.989 -0.3897  0.0228 -0.0528
19447TIP3    H179756   5.137   3.529   0.971 -0.6930  0.7985  2.2477
19447TIP3    H279757   5.143   3.403   1.055 -1.5173 -0.3639  0.6335
19448TIP3   OH279758   5.719   0.759  14.414 -0.4723 -0.6007  0.0747
19448TIP3    H179759   5.799   0.771  14.361 -0.1607 -0.4687  0.5667
19448TIP3    H279760   5.698   0.847  14.445 -2.3841 -0.1580 -2.2593
19449TIP3   OH279761   0.895   1.705   3.863  0.5855 -0.5226 -0.4421
19449TIP3    H179762   0.856   1.790   3.843 -0.7184 -0.6700  1.3090
19449TIP3    H279763   0.976   1.726   3.909  1.7502 -0.2504 -2.4623
19450TIP3   OH279764   4.458   4.277   0.130  1.0642  0.5278 -0.0307
19450TIP3    H179765   4.524   4.309   0.068  1.0774 -0.5774 -0.5957
19450TIP3    H279766   4.478   4.185   0.142  1.6393  0.9107  2.3649
19451TIP3   OH279767   1.833   6.662   3.106 -0.0252 -1.0564 -0.4645
19451TIP3    H179768   1.900   6.644   3.172 -0.4167  0.3460  0.3790
19451TIP3    H279769   1.876   6.722   3.044 -0.9452  1.3570  1.0905
19452TIP3   OH279770   5.107   3.781  16.148 -0.7720  0.6755 -0.7213
19452TIP3    H179771   5.156   3.849  16.102 -0.9789  1.0411 -0.4120
19452TIP3    H279772   5.055   3.739  16.080  0.2788 -0.0027 -1.1271
19453TIP3   OH279773   1.719   3.893   2.887 -0.4648 -0.6221 -0.2647
19453TIP3    H179774   1.787   3.847   2.837  3.3339  1.9017  2.0309
19453TIP3    H279775   1.681   3.955   2.825  0.8849 -0.6356 -1.1490
19454TIP3   OH279776   5.156   2.431   3.979 -0.2901 -0.4849 -0.3297
19454TIP3    H179777   5.142   2.346   3.938  0.6959 -0.1811 -1.3407
19454TIP3    H279778   5.115   2.423   4.065 -2.8715 -0.9989 -1.4993
19455TIP3   OH279779   5.868   5.118  10.680  0.3071  0.0971  0.1259
19455TIP3    H179780   5.817   5.198  10.672  0.6663  0.3155  0.0279
19455TIP3    H279781   5.876   5.104  10.774  0.0191  0.0315  0.1416
19456TIP3   OH279782   1.947   3.060   0.578  0.6223  0.2571  0.4038
19456TIP3    H179783   1.896   3.119   0.522  0.8270 -0.6365 -0.7777
19456TIP3    H279784   1.961   3.109   0.659 -0.0057  1.4571 -0.1883
19457TIP3   OH279785   2.189   6.047   3.344 -0.0891  0.2545 -0.1228
19457TIP3    H179786   2.217   6.094   3.422 -0.0613  0.1072 -0.0423
19457TIP3    H279787   2.268   6.038   3.291 -0.0886  0.2752 -0.1253
19458TIP3   OH279788   4.848   5.330   4.745  0.2888 -0.0415  0.6599
19458TIP3    H179789   4.901   5.255   4.718  0.1121 -0.8399  2.4027
19458TIP3    H279790   4.911   5.397   4.771  0.4342  0.2138 -0.2867
19459TIP3   OH279791   3.743   4.978   3.541  0.0232  0.4004  0.6283
19459TIP3    H179792   3.671   4.984   3.477  0.7718 -1.3927 -0.4489
19459TIP3    H279793   3.706   4.929   3.614 -0.0529  0.0665  0.3680
19460TIP3   OH279794   6.488   0.197   4.547  0.3856 -0.1484 -0.5649
19460TIP3    H179795   6.526   0.254   4.614  1.1298 -2.2921  0.9525
19460TIP3    H279796   6.559   0.137   4.524 -0.5327 -0.8519 -1.6559
19461TIP3   OH279797   1.089   5.971  14.158 -0.1557  0.2442  0.7536
19461TIP3    H179798   1.060   5.885  14.190 -2.2149  1.5143  2.6041
19461TIP3    H279799   1.184   5.969  14.170 -0.1762 -1.6793  0.9896
19462TIP3   OH279800   5.113   6.392   4.758  0.4667  0.5001 -0.1656
19462TIP3    H179801   5.071   6.477   4.749  0.3049  0.3668 -0.7088
19462TIP3    H279802   5.049   6.338   4.805  0.0716  0.3393 -0.8663
19463TIP3   OH279803   3.966   2.533  10.447 -0.3496  0.2648 -0.1843
19463TIP3    H179804   4.019   2.476  10.393 -1.5573 -0.5144 -0.5941
19463TIP3    H279805   4.020   2.611  10.460  1.2584 -0.8804  0.2513
19464TIP3   OH279806   4.472   6.652   5.436  0.0742  0.5590 -0.2854
19464TIP3    H179807   4.438   6.701   5.361 -0.9061  2.3604  1.2610
19464TIP3    H279808   4.567   6.664   5.430 -0.0890  2.0838 -0.3864
19465TIP3   OH279809   1.898   0.943   5.053  0.0054 -0.3178  0.2006
19465TIP3    H179810   1.889   0.917   5.145 -1.1855  0.4794  0.3285
19465TIP3    H279811   1.808   0.944   5.019  0.5029 -1.8557 -1.3427
19466TIP3   OH279812   6.217   0.118  12.896  0.5749 -0.0282  0.1728
19466TIP3    H179813   6.168   0.141  12.817 -0.2054  1.5268  1.0599
19466TIP3    H279814   6.258   0.200  12.923 -0.7284 -0.0627  2.4233
19467TIP3   OH279815   5.439   0.743   0.475 -0.6756  0.4340  0.1511
19467TIP3    H179816   5.386   0.688   0.533 -1.3010  1.0151  0.1499
19467TIP3    H279817   5.382   0.817   0.453  0.0907  1.0082  0.0330
19468TIP3   OH279818   2.562   3.803   1.167  0.2295  0.4662 -0.0458
19468TIP3    H179819   2.578   3.815   1.073  0.0388  0.9825 -0.0165
19468TIP3    H279820   2.473   3.768   1.172  0.2164  0.4976 -0.0561
19469TIP3   OH279821   6.045   0.383   2.039 -0.1991 -0.2643 -0.6498
19469TIP3    H179822   5.970   0.384   2.099  1.4131 -0.8811  1.5293
19469TIP3    H279823   6.036   0.463   1.988 -0.8683  1.1434  1.5217
19470TIP3   OH279824   2.148   2.733   1.646  0.1308  0.0325  0.6718
19470TIP3    H179825   2.119   2.644   1.631  1.3170 -0.8221  2.9833
19470TIP3    H279826   2.199   2.755   1.568 -2.5833 -0.1145 -1.3051
19471TIP3   OH279827   1.519   1.693   6.197 -0.4144  0.1229 -0.6749
19471TIP3    H179828   1.595   1.745   6.171 -0.8906  0.2298 -1.9148
19471TIP3    H279829   1.553   1.604   6.206 -0.0121  0.2860 -0.5416
19472TIP3   OH279830   1.467   4.888  11.265  0.2868 -0.1169  0.5008
19472TIP3    H179831   1.511   4.941  11.199 -2.2775  2.0649  0.3599
19472TIP3    H279832   1.475   4.798  11.233  2.2966  0.4662 -0.8038
19473TIP3   OH279833   6.138   2.560   2.233  0.1136 -0.2037 -0.1563
19473TIP3    H179834   6.166   2.650   2.245  1.1911 -0.2700 -1.7562
19473TIP3    H279835   6.076   2.543   2.304  0.0042  1.7324  0.2420
19474TIP3   OH279836   2.887   4.719   4.396  0.2152  0.3346 -0.5609
19474TIP3    H179837   2.931   4.728   4.480  0.2992 -0.6710 -0.4846
19474TIP3    H279838   2.956   4.693   4.335 -0.3305 -1.9038 -0.3065
19475TIP3   OH279839   3.900   0.144   2.232 -0.6583 -0.0246 -0.4083
19475TIP3    H179840   3.828   0.080   2.225 -2.4330  1.8713 -0.5203
19475TIP3    H279841   3.899   0.190   2.149  0.2180  0.5347 -0.1217
19476TIP3   OH279842   6.199   5.068  11.821  0.3104 -0.5322 -0.3163
19476TIP3    H179843   6.269   5.050  11.884  0.7989 -0.7071 -0.8921
19476TIP3    H279844   6.242   5.118  11.752 -1.0724  3.5883  1.4660
19477TIP3   OH279845   4.999   1.317  15.753 -0.3187 -0.3915  0.0720
19477TIP3    H179846   4.978   1.358  15.669  0.2765 -1.2725 -0.5269
19477TIP3    H279847   4.915   1.282  15.784 -0.3057 -1.2174 -0.8042
19478TIP3   OH279848   0.399   2.606   2.142  0.3678 -0.3503 -0.4358
19478TIP3    H179849   0.401   2.539   2.074 -1.5042 -0.6768 -0.2434
19478TIP3    H279850   0.490   2.628   2.158  0.8629 -0.4619 -2.8378
19479TIP3   OH279851   1.136   4.265  15.392  0.2795  0.0737  0.7776
19479TIP3    H179852   1.151   4.325  15.466 -0.8519 -0.3258  1.3538
19479TIP3    H279853   1.119   4.180  15.434 -0.4207 -0.1489  0.0621
19480TIP3   OH279854   3.534   1.989  16.029 -0.3877  0.4266  0.4220
19480TIP3    H179855   3.507   1.909  16.074 -0.4661  0.7405  0.9460
19480TIP3    H279856   3.510   1.974  15.937  1.4416 -0.9702  0.1263
19481TIP3   OH279857   6.190   6.542   3.431  0.8536  0.3064  0.2625
19481TIP3    H179858   6.220   6.503   3.349  1.0852  1.4465 -0.2133
19481TIP3    H279859   6.222   6.632   3.428 -0.7950  0.9456  0.7076
19482TIP3   OH279860   4.288   4.131  12.639  0.6248 -0.2550  0.2400
19482TIP3    H179861   4.354   4.196  12.617  1.5213 -0.0125  3.1658
19482TIP3    H279862   4.298   4.063  12.572  2.7311  0.5390 -0.3409
19483TIP3   OH279863   4.104   2.175   5.524  0.0162 -0.4333  0.2394
19483TIP3    H179864   4.151   2.094   5.546  1.1059  0.5182  1.6968
19483TIP3    H279865   4.036   2.182   5.591  1.2737  0.8634  1.4570
19484TIP3   OH279866   4.235   5.839   1.102  0.0965 -0.2671 -0.2276
19484TIP3    H179867   4.200   5.789   1.029  1.3243  1.7773 -2.3970
19484TIP3    H279868   4.190   5.923   1.098  0.0557 -0.1582  1.5362
19485TIP3   OH279869   2.279   3.155  10.607 -0.0031  0.0200 -0.1534
19485TIP3    H179870   2.359   3.124  10.564 -0.1964  0.8285 -1.1331
19485TIP3    H279871   2.281   3.250  10.597  0.0583  0.2654  1.8822
19486TIP3   OH279872   3.625   4.428  12.488  0.4277  0.1589 -0.1381
19486TIP3    H179873   3.544   4.378  12.472  0.1036  0.2297  1.2051
19486TIP3    H279874   3.689   4.361  12.514  0.3335  0.2906  0.4428
19487TIP3   OH279875   3.034   2.573  14.047  0.5206  0.2491 -0.0367
19487TIP3    H179876   3.044   2.624  14.127  0.9326  0.2373 -0.0796
19487TIP3    H279877   2.994   2.634  13.984 -0.4160  0.0681  0.3684
19488TIP3   OH279878   3.607   2.917   0.754  0.4608  0.7219  0.5898
19488TIP3    H179879   3.542   2.957   0.696 -1.0064  0.0822  1.7172
19488TIP3    H279880   3.613   2.976   0.829 -0.0251  0.0072  1.2135
19489TIP3   OH279881   1.243   1.022   3.196  0.2810 -0.8055  0.1255
19489TIP3    H179882   1.261   1.093   3.134 -0.7855  0.3819  1.0962
19489TIP3    H279883   1.160   0.984   3.165 -0.2626 -0.2000  0.7819
19490TIP3   OH279884   0.860   0.540   0.144  0.4053 -0.0470  0.0977
19490TIP3    H179885   0.820   0.454   0.131 -1.3079  0.7908 -0.4417
19490TIP3    H279886   0.919   0.528   0.219 -0.7385 -1.3969  0.8344
19491TIP3   OH279887   6.622   3.005  11.598 -0.2363 -0.1257 -0.0324
19491TIP3    H179888   6.686   3.011  11.526  1.1131  1.0277  1.2054
19491TIP3    H279889   6.537   3.018  11.556  0.7116  4.6061 -1.0512
19492TIP3   OH279890   4.111   5.257  12.110 -0.6322  0.0469  0.4726
19492TIP3    H179891   4.021   5.265  12.142 -1.9124  1.9016 -3.0408
19492TIP3    H279892   4.104   5.196  12.037  1.0402 -0.0097  0.3408
19493TIP3   OH279893   0.778   0.519   5.490  0.3708 -0.2094  0.6130
19493TIP3    H179894   0.822   0.447   5.535  3.1806  1.2101  0.3567
19493TIP3    H279895   0.830   0.596   5.511 -0.7373  1.2454 -1.5588
19494TIP3   OH279896   3.249   3.921   0.760 -0.3907 -0.2639 -0.5704
19494TIP3    H179897   3.207   3.931   0.675 -0.5474 -0.2422 -0.4899
19494TIP3    H279898   3.343   3.918   0.740 -0.2100  2.6266 -0.5130
19495TIP3   OH279899   1.052   2.039  16.695 -0.2117  0.7041  0.0722
19495TIP3    H179900   1.125   2.086  16.736  1.2680 -2.3482  1.2484
19495TIP3    H279901   0.999   2.007  16.769  0.4904 -1.8419 -0.4277
19496TIP3   OH279902   2.964   4.338   4.415  0.2697  0.1864  0.2223
19496TIP3    H179903   2.917   4.256   4.403  1.4474 -0.4047 -0.4957
19496TIP3    H279904   2.911   4.386   4.479  0.3552 -1.7735  1.8909
19497TIP3   OH279905   2.945   5.500  13.191 -0.0846 -0.4517 -0.0597
19497TIP3    H179906   2.861   5.546  13.182  0.5022  0.3743 -1.6940
19497TIP3    H279907   2.962   5.500  13.286 -0.5256  2.0007  0.0860
19498TIP3   OH279908   0.776   0.439   4.927 -0.1927  0.0527  0.2730
19498TIP3    H179909   0.693   0.448   4.881 -1.5719 -3.5988  1.6702
19498TIP3    H279910   0.752   0.411   5.015  2.4701  3.4666  2.3648
19499TIP3   OH279911   2.054   6.709  15.864  0.6802 -0.0648  0.6333
19499TIP3    H179912   1.974   6.686  15.910  1.3702 -3.1621  0.4761
19499TIP3    H279913   2.025   6.730  15.775 -0.0214 -0.4739  0.7594
19500TIP3   OH279914   6.683   5.551  13.057  0.3414 -0.4526 -0.2696
19500TIP3    H179915   6.755   5.537  13.118 -1.4284 -2.0971  1.6081
19500TIP3    H279916   6.696   5.640  13.024  1.0857  0.8220  3.0459
19501TIP3   OH279917   4.018   3.007   0.027  0.3722  0.1330  0.6176
19501TIP3    H179918   4.005   3.101   0.037  0.2908  0.3117 -0.8785
19501TIP3    H279919   3.953   2.981  -0.038  1.1803 -0.7243  0.1286
19502TIP3   OH279920   0.043   2.096  11.668  0.0157 -0.0945  0.3515
19502TIP3    H179921   0.122   2.139  11.633 -0.7525  2.5661  1.6296
19502TIP3    H279922   0.062   2.083  11.761 -0.6508 -0.3950  0.4502
19503TIP3   OH279923   1.504   4.446  14.048 -0.5286 -0.0274 -0.3737
19503TIP3    H179924   1.463   4.416  13.967  1.2071 -1.3556 -0.8194
19503TIP3    H279925   1.543   4.368  14.086  1.1995  1.0652  0.2388
19504TIP3   OH279926   4.514   4.991   3.902  0.0288 -0.1329  0.4571
19504TIP3    H179927   4.476   4.952   3.823 -1.4403 -3.1772  2.5022
19504TIP3    H279928   4.443   5.044   3.939 -1.0705 -2.6716  2.2107
19505TIP3   OH279929   2.277   4.281   1.575 -0.3414 -0.8768 -0.4249
19505TIP3    H179930   2.181   4.282   1.570 -0.2852 -0.8125 -2.0948
19505TIP3    H279931   2.306   4.272   1.484  1.2871  1.8027 -0.2996
19506TIP3   OH279932   5.144   5.193  13.670  0.5232 -0.6076  0.0748
19506TIP3    H179933   5.197   5.172  13.592  0.7742  0.6175 -0.1048
19506TIP3    H279934   5.126   5.286  13.662 -0.6743 -0.7617  0.7640
19507TIP3   OH279935   2.056   0.948  12.850 -0.2624  0.3022  0.0680
19507TIP3    H179936   2.134   0.982  12.894 -0.8895  0.6336  0.9548
19507TIP3    H279937   1.983   0.991  12.894 -1.0533 -1.4520  0.5633
19508TIP3   OH279938   5.581   4.143  16.498  0.2037  0.3461 -0.1099
19508TIP3    H179939   5.619   4.117  16.582 -0.4588 -0.0843  0.0660
19508TIP3    H279940   5.531   4.222  16.519  1.1467  1.0396 -0.3833
19509TIP3   OH279941   1.857   5.424  17.020 -0.4661  0.0907 -0.3191
19509TIP3    H179942   1.839   5.403  16.928 -2.5497  0.6764 -0.0956
19509TIP3    H279943   1.863   5.339  17.063  0.5213 -0.1887 -0.9691
19510TIP3   OH279944   2.174   1.573   5.807 -0.3584 -0.7920 -0.4659
19510TIP3    H179945   2.146   1.591   5.896  1.9243  0.6616  0.0535
19510TIP3    H279946   2.228   1.495   5.814  0.3928 -0.2808 -0.4193
19511TIP3   OH279947   0.854   4.535  14.536  0.0019 -0.1211  0.1492
19511TIP3    H179948   0.766   4.544  14.498  0.0451 -0.9351 -0.1781
19511TIP3    H279949   0.847   4.574  14.623 -1.0260 -1.2527  0.6116
19512TIP3   OH279950   6.449   5.413   3.754  0.1217 -0.4894 -0.7284
19512TIP3    H179951   6.527   5.420   3.699  1.4945  0.4474  1.2112
19512TIP3    H279952   6.392   5.483   3.722  2.6066  2.8446  1.4638
19513TIP3   OH279953   1.579   6.367  16.995  0.2300  0.0171 -0.3823
19513TIP3    H179954   1.500   6.354  17.047  0.2617  0.9895 -0.0597
19513TIP3    H279955   1.618   6.280  16.986  0.6132 -0.0896  1.8496
19514TIP3   OH279956   4.043   5.221  12.541  0.0853  0.1075  0.7892
19514TIP3    H179957   3.993   5.169  12.604  1.1244 -0.0051  1.5514
19514TIP3    H279958   4.090   5.285  12.595  0.8394  0.1406  0.1101
19515TIP3   OH279959   3.719   4.439   0.715 -0.2913 -0.0304 -0.0699
19515TIP3    H179960   3.765   4.447   0.798 -1.8702 -0.1481  0.8498
19515TIP3    H279961   3.690   4.528   0.695 -0.7242 -0.1569 -0.0119
19516TIP3   OH279962   0.892   0.994   4.465 -0.1721  0.2014 -0.0731
19516TIP3    H179963   0.891   1.070   4.523  0.5040  0.6153 -0.5934
19516TIP3    H279964   0.950   0.931   4.508 -0.7466 -0.0361  0.3670
19517TIP3   OH279965   0.393   2.335   1.996  0.1976 -0.3603  0.1206
19517TIP3    H179966   0.415   2.292   1.914 -0.8267  0.6878 -0.7363
19517TIP3    H279967   0.301   2.359   1.987  0.0014 -0.3879  1.6611
19518TIP3   OH279968   2.314   4.712  11.928  0.0385  0.1805  0.1420
19518TIP3    H179969   2.388   4.760  11.889 -0.2723  0.7259  0.2216
19518TIP3    H279970   2.348   4.623  11.940  0.9405  0.6008  0.8808
19519TIP3   OH279971   6.027   2.817  16.534  0.0902  0.0860  0.8472
19519TIP3    H179972   6.098   2.768  16.575  0.4615  0.6639  0.9080
19519TIP3    H279973   5.950   2.796  16.587 -0.0273 -1.4034  0.1296
19520TIP3   OH279974   1.384   0.980  15.943 -0.2881  0.2519  0.0601
19520TIP3    H179975   1.452   1.047  15.952  2.0887 -1.3916 -3.4510
19520TIP3    H279976   1.430   0.897  15.955 -1.6477 -0.9332 -2.1689
19521TIP3   OH279977   4.415   2.597  13.819  0.2009  0.1081 -0.1928
19521TIP3    H179978   4.474   2.628  13.888  0.4430  0.6489 -0.6377
19521TIP3    H279979   4.346   2.663  13.815 -0.4157 -0.4860  0.2817
19522TIP3   OH279980   3.394   2.968   6.071  0.2130 -0.5598  0.5198
19522TIP3    H179981   3.376   2.895   6.130 -0.7993 -1.3467 -0.7190
19522TIP3    H279982   3.377   2.933   5.984 -1.7051  1.5357 -0.0402
19523TIP3   OH279983   0.525   4.975   0.823 -0.4294 -0.4229  0.0611
19523TIP3    H179984   0.571   4.976   0.739  0.0593 -0.9665  0.3156
19523TIP3    H279985   0.438   4.941   0.802 -0.2766 -0.6519 -0.2062
19524TIP3   OH279986   1.734   4.568   3.826 -0.3315  0.2441  0.1259
19524TIP3    H179987   1.797   4.628   3.867  0.2270  0.9406 -1.6352
19524TIP3    H279988   1.724   4.497   3.889  0.4114  1.2700  1.4763
19525TIP3   OH279989   2.833   6.399   2.762 -0.6902  0.9499 -0.7120
19525TIP3    H179990   2.777   6.472   2.736 -3.0641 -0.1205  1.0254
19525TIP3    H279991   2.778   6.321   2.754  0.5275 -0.1880  1.0418
19526TIP3   OH279992   0.055   4.954   5.334  0.3940 -0.2475 -0.0368
19526TIP3    H179993   0.107   4.874   5.318 -1.5475 -0.9951 -3.6064
19526TIP3    H279994   0.097   5.021   5.280 -0.4294  0.0184 -0.3522
19527TIP3   OH279995   2.653   0.747   2.248 -0.2888  0.1076  0.5246
19527TIP3    H179996   2.738   0.763   2.290  1.0589 -0.1454 -1.8701
19527TIP3    H279997   2.593   0.807   2.290  0.9771  0.0105  2.5970
19528TIP3   OH279998   5.553   4.015  11.682 -0.3822  0.3137 -0.8960
19528TIP3    H179999   5.560   3.963  11.602 -0.3713  0.4204 -0.9645
19528TIP3    H280000   5.529   3.952  11.750 -2.1515  0.5029 -1.3178
19529TIP3   OH280001   5.646   4.338  14.056 -0.7159 -0.2031  0.7901
19529TIP3    H180002   5.683   4.252  14.039  0.2682  0.1097  1.2402
19529TIP3    H280003   5.625   4.338  14.149 -0.7330  0.0283  0.7884
19530TIP3   OH280004   3.512   2.410  12.754 -0.6771  0.3957  0.6265
19530TIP3    H180005   3.447   2.463  12.799  1.0666  0.2297  3.6402
19530TIP3    H280006   3.467   2.375  12.678 -4.4952 -0.6664  3.1248
19531TIP3   OH280007   3.030   6.686   2.271 -0.2822 -0.0657 -0.3342
19531TIP3    H180008   3.082   6.676   2.351  0.1970 -0.0543 -0.6456
19531TIP3    H280009   3.055   6.772   2.237  1.4017 -1.0958 -1.8446
19532TIP3   OH280010   1.477   4.450  16.122 -0.0093 -0.3691  0.0349
19532TIP3    H180011   1.393   4.461  16.077 -0.5057 -0.6948  0.8650
19532TIP3    H280012   1.535   4.514  16.081 -1.0233  0.7736  0.3277
19533TIP3   OH280013   3.324   5.705  13.384  0.3863 -0.2069  0.3105
19533TIP3    H180014   3.374   5.720  13.303 -0.8885 -1.5851 -0.8162
19533TIP3    H280015   3.366   5.760  13.449  2.0498  0.2649 -1.0742
19534TIP3   OH280016   2.522   0.479  13.373  0.3304 -0.5107 -0.0493
19534TIP3    H180017   2.614   0.450  13.371  2.0143  3.9714  0.4293
19534TIP3    H280018   2.503   0.489  13.467 -0.0610  0.0873 -0.1891
19535TIP3   OH280019   6.787   1.802  15.197 -0.7966 -0.0769  0.3453
19535TIP3    H180020   6.711   1.780  15.143  0.4151 -1.4466 -0.8568
19535TIP3    H280021   6.837   1.720  15.203  1.2401  1.0955  0.0572
19536TIP3   OH280022   2.383   1.414  14.752 -0.1823 -0.8470 -0.7261
19536TIP3    H180023   2.395   1.446  14.663  5.3203 -0.7073 -0.2772
19536TIP3    H280024   2.391   1.492  14.807 -0.2544 -1.3275 -0.0211
19537TIP3   OH280025   6.154   1.495   2.035  0.3629 -0.4244  0.3990
19537TIP3    H180026   6.108   1.489   2.118  2.2954 -0.4785  1.5364
19537TIP3    H280027   6.205   1.576   2.041 -0.0046 -0.0574 -1.0406
19538TIP3   OH280028   0.191   0.326   6.648  0.1488  0.3567 -0.4862
19538TIP3    H180029   0.113   0.276   6.623 -0.0990  1.5862 -2.4401
19538TIP3    H280030   0.163   0.378   6.723 -0.8453  0.6029 -1.0179
19539TIP3   OH280031   3.541   3.414  14.152 -0.4318  0.0609 -0.0945
19539TIP3    H180032   3.589   3.333  14.172  0.9718  0.6570 -0.8988
19539TIP3    H280033   3.449   3.388  14.152 -0.1160 -1.1989  1.1878
19540TIP3   OH280034   0.208   6.379   3.225 -0.3793  0.1745 -0.2875
19540TIP3    H180035   0.213   6.435   3.302 -3.3189 -0.7092  0.6525
19540TIP3    H280036   0.299   6.355   3.206  0.5776  2.0734  1.6251
19541TIP3   OH280037   1.327   3.098  12.732 -0.2283 -0.4520  0.0301
19541TIP3    H180038   1.347   3.184  12.767  2.5162 -1.3095  0.7793
19541TIP3    H280039   1.250   3.069  12.782 -0.4216  1.0339  0.6341
19542TIP3   OH280040   6.582   4.250  16.919  0.6521  0.2529 -0.5707
19542TIP3    H180041   6.638   4.216  16.850  2.5151  0.6282  0.6792
19542TIP3    H280042   6.643   4.288  16.983 -1.0459  0.8397  0.7765
19543TIP3   OH280043   2.329   0.270  16.402 -0.8818 -0.0574  0.6659
19543TIP3    H180044   2.249   0.319  16.381 -1.2123 -1.1952 -0.8894
19543TIP3    H280045   2.345   0.215  16.326  0.3982 -1.1789  1.6818
19544TIP3   OH280046   5.845   5.750  16.640 -0.5531 -0.4094 -0.0390
19544TIP3    H180047   5.769   5.770  16.585 -0.3191 -1.3882 -0.7551
19544TIP3    H280048   5.848   5.654  16.643  0.5221 -0.3840  0.1546
19545TIP3   OH280049   2.031   1.821  15.493 -0.0746 -0.0065 -0.3399
19545TIP3    H180050   2.055   1.729  15.506  0.6428  0.2614  0.3233
19545TIP3    H280051   1.947   1.817  15.448 -0.9385 -1.0116  1.2457
19546TIP3   OH280052   3.430   2.246   5.955 -0.2122 -0.2489  0.1979
19546TIP3    H180053   3.515   2.263   5.995  0.5130 -0.2203 -1.2843
19546TIP3    H280054   3.416   2.321   5.897 -1.3216 -0.1882  0.5242
19547TIP3   OH280055   0.955   4.429  13.365  0.3040  0.0949 -0.0947
19547TIP3    H180056   0.898   4.369  13.413  0.3575 -0.0176 -0.1727
19547TIP3    H280057   1.001   4.374  13.301  0.1865  0.2547 -0.3187
19548TIP3   OH280058   6.349   2.811  16.285  0.2077 -0.0933  0.4641
19548TIP3    H180059   6.399   2.817  16.203  0.5842 -2.1113  0.5034
19548TIP3    H280060   6.376   2.888  16.335  1.5249  0.0959 -0.4863
19549TIP3   OH280061   6.683   3.851  11.713  0.6073 -0.2112  0.2123
19549TIP3    H180062   6.660   3.846  11.620 -1.1637 -2.3871  0.6594
19549TIP3    H280063   6.755   3.789  11.723 -1.4856 -2.7487  0.7568
19550TIP3   OH280064   3.898   6.334  10.658 -0.3287  0.6989 -0.6828
19550TIP3    H180065   3.970   6.272  10.669 -0.3458  0.3681 -2.1931
19550TIP3    H280066   3.820   6.279  10.649 -0.6968  1.0357  0.2500
19551TIP3   OH280067   2.903   2.771   0.549  0.4267 -0.2818 -0.2157
19551TIP3    H180068   2.833   2.710   0.524  0.5307 -0.3137 -0.4390
19551TIP3    H280069   2.963   2.769   0.474  0.6839 -0.2821 -0.0087
19552TIP3   OH280070   6.355   1.946   1.546  0.1261 -0.5162  0.3650
19552TIP3    H180071   6.426   1.963   1.483  0.0901 -1.0191  0.1829
19552TIP3    H280072   6.279   1.989   1.508 -0.1258 -1.6267 -0.4346
19553TIP3   OH280073   4.644   4.982  14.497  0.1681 -0.5873  0.1349
19553TIP3    H180074   4.737   5.003  14.481  0.3134 -0.2523  1.3416
19553TIP3    H280075   4.597   5.057  14.460  0.5580  0.6944  2.0983
19554TIP3   OH280076   5.889   5.762   4.167  0.5187 -0.1099  0.2344
19554TIP3    H180077   5.842   5.801   4.240 -0.9415 -2.2225  0.4949
19554TIP3    H280078   5.826   5.760   4.095  1.3634  0.2368 -0.5517
19555TIP3   OH280079   5.140   1.440  13.050 -0.0279 -0.2546 -0.1951
19555TIP3    H180080   5.052   1.401  13.045  0.5584 -1.5610 -0.6553
19555TIP3    H280081   5.191   1.377  13.100  0.5292  0.7656  0.5532
19556TIP3   OH280082   4.866   3.519  14.323 -0.1268 -0.1062  0.1772
19556TIP3    H180083   4.798   3.515  14.390  0.9140  0.3445  1.2982
19556TIP3    H280084   4.828   3.571  14.252 -1.3742 -0.9054  0.2347
19557TIP3   OH280085   0.328   3.143   3.830  0.1315 -0.2006  0.0611
19557TIP3    H180086   0.323   3.099   3.915  1.7551 -1.5829 -0.4977
19557TIP3    H280087   0.237   3.152   3.802 -0.3843 -0.3617  1.6201
19558TIP3   OH280088   0.688   6.053   2.369 -0.6391 -0.1426 -0.2205
19558TIP3    H180089   0.773   6.009   2.361  0.2910  1.7237 -1.3570
19558TIP3    H280090   0.624   5.983   2.359  0.7032 -1.8444  2.0895
19559TIP3   OH280091   3.101   6.624  16.355  0.4542  0.1510  0.3097
19559TIP3    H180092   3.053   6.589  16.429 -0.1004 -1.4601 -0.7546
19559TIP3    H280093   3.045   6.606  16.279  1.4644  0.8131 -0.6289
19560TIP3   OH280094   1.921   5.816  11.465  0.5918  0.3849 -0.2192
19560TIP3    H180095   1.885   5.806  11.377  1.0564  1.5155 -0.5526
19560TIP3    H280096   1.934   5.727  11.496 -0.9975 -0.0532 -0.7039
19561TIP3   OH280097   4.591   5.459  16.188 -0.5327 -0.1394  0.6275
19561TIP3    H180098   4.543   5.380  16.213 -0.4231  0.0341  1.4066
19561TIP3    H280099   4.528   5.510  16.137 -0.3049 -1.1565 -0.7294
19562TIP3   OH280100   4.514   6.633   0.934 -0.4242 -0.7529 -0.0482
19562TIP3    H180101   4.569   6.616   0.857  0.8519 -1.3192  0.9437
19562TIP3    H280102   4.433   6.586   0.917  0.0426 -1.3050 -0.8131
19563TIP3   OH280103   2.644   6.029  15.926 -0.1953  0.3892 -0.1971
19563TIP3    H180104   2.704   6.096  15.958  0.8606 -0.5542 -0.1300
19563TIP3    H280105   2.565   6.040  15.978  0.7841  0.1406  1.4229
19564TIP3   OH280106   5.339   6.633  16.159 -0.0234 -0.3597  0.0140
19564TIP3    H180107   5.279   6.570  16.198 -0.3418  0.9555  1.7643
19564TIP3    H280108   5.282   6.703  16.126  0.4411  0.1024  0.1813
19565TIP3   OH280109   4.649   6.676   2.393 -0.0828  0.1948 -0.3772
19565TIP3    H180110   4.593   6.746   2.428 -1.6495 -0.1640 -1.9998
19565TIP3    H280111   4.735   6.717   2.385 -0.2495  1.0214  1.4236
19566TIP3   OH280112   1.857   4.269   3.793  0.0363  0.6095  0.9353
19566TIP3    H180113   1.800   4.320   3.851  1.4213  1.5252  1.5409
19566TIP3    H280114   1.891   4.199   3.848 -1.2233 -0.5286  0.3170
19567TIP3   OH280115   2.193   3.735  15.955  0.5258 -0.0907 -0.9322
19567TIP3    H180116   2.117   3.753  16.011  1.8293  0.7451  0.6573
19567TIP3    H280117   2.165   3.661  15.900 -0.4885 -1.7409  1.5986
19568TIP3   OH280118   3.186   1.598  13.664  0.1405  0.0663 -0.2039
19568TIP3    H180119   3.251   1.573  13.599  0.4416  0.2561  0.0156
19568TIP3    H280120   3.178   1.693  13.654  0.9673  0.2602  0.7178
19569TIP3   OH280121   4.043   6.288  13.267  0.7088  0.2112  0.5227
19569TIP3    H180122   3.976   6.270  13.200 -1.4107  1.3723  2.2112
19569TIP3    H280123   4.041   6.383  13.278  0.1404 -0.0390  3.0267
19570TIP3   OH280124   3.631   3.412   5.089  0.3612  0.2493 -0.0878
19570TIP3    H180125   3.556   3.433   5.145 -0.7702 -1.8846 -0.6812
19570TIP3    H280126   3.636   3.485   5.027 -0.6059  0.9165  0.6014
19571TIP3   OH280127   3.801   1.123  11.940  0.1646 -0.0042  0.3253
19571TIP3    H180128   3.809   1.107  12.034 -0.1622  0.6127  0.4610
19571TIP3    H280129   3.796   1.219  11.932  0.5170 -0.0352 -0.3428
19572TIP3   OH280130   2.577   6.160   3.291 -0.1124 -0.3202 -0.2991
19572TIP3    H180131   2.582   6.070   3.323  1.4893  0.0115  0.4675
19572TIP3    H280132   2.575   6.151   3.196  0.0122 -1.1637 -0.2303
19573TIP3   OH280133   5.160   5.717   4.559 -0.4128  0.0646  0.0881
19573TIP3    H180134   5.221   5.659   4.604  1.2483  2.2058  0.7559
19573TIP3    H280135   5.119   5.661   4.493  1.4614 -1.7554  0.3484
19574TIP3   OH280136   0.832   3.035   3.753  0.1524  0.5025  0.3082
19574TIP3    H180137   0.890   3.111   3.756  0.1365  0.4997  0.7958
19574TIP3    H280138   0.749   3.066   3.789  0.1097  0.2901  0.3998
19575TIP3   OH280139   6.504   3.809   4.746  0.2487  0.1564 -0.0497
19575TIP3    H180140   6.419   3.805   4.790  0.4426  0.7500  0.4093
19575TIP3    H280141   6.483   3.819   4.653 -0.1986  0.6767  0.0976
19576TIP3   OH280142   5.371   1.836  10.871 -0.3230  0.8692 -0.6805
19576TIP3    H180143   5.303   1.828  10.937  0.2197 -2.0312 -0.3345
19576TIP3    H280144   5.326   1.821  10.788 -0.4308  0.9409 -0.6350
19577TIP3   OH280145   0.357   0.273  11.038  0.5857  0.1088 -0.3758
19577TIP3    H180146   0.370   0.310  10.951  1.5602 -0.1676 -0.3559
19577TIP3    H280147   0.284   0.212  11.028 -1.7962  2.7186 -0.1891
19578TIP3   OH280148   3.185   1.871  16.801 -0.0796  0.4760  0.3844
19578TIP3    H180149   3.255   1.806  16.790 -0.4092  0.1419  0.2568
19578TIP3    H280150   3.112   1.836  16.750 -0.1359  1.1375 -0.0046
19579TIP3   OH280151   6.603   0.719  15.517 -0.0612 -0.3510 -0.3290
19579TIP3    H180152   6.612   0.719  15.422 -0.0456  0.7847 -0.3368
19579TIP3    H280153   6.629   0.630  15.543 -0.1549 -0.7029 -1.3815
19580TIP3   OH280154   2.797   4.146   1.598  0.1233  0.0652 -0.3006
19580TIP3    H180155   2.816   4.067   1.649 -0.1938  0.7273  0.8596
19580TIP3    H280156   2.702   4.159   1.608  0.3505  1.2349  0.4700
19581TIP3   OH280157   1.787   5.830   4.384 -0.1717 -0.3134 -0.3651
19581TIP3    H180158   1.825   5.892   4.446  1.6542 -0.3387 -1.3588
19581TIP3    H280159   1.697   5.819   4.413 -0.2878  2.0430  0.4171
19582TIP3   OH280160   1.573   3.399  15.643 -0.0546  0.0090  0.4499
19582TIP3    H180161   1.638   3.408  15.713  0.2426 -0.6023  0.2573
19582TIP3    H280162   1.541   3.488  15.630  1.7643  0.5952 -0.4109
19583TIP3   OH280163   4.736   1.683   4.668  0.1201 -0.3940 -0.1765
19583TIP3    H180164   4.661   1.686   4.610  1.7201 -1.0198 -2.4165
19583TIP3    H280165   4.707   1.630   4.743 -1.5826 -0.7778 -1.0593
19584TIP3   OH280166   4.387   0.256   2.689 -0.2367 -0.0955  0.1081
19584TIP3    H180167   4.316   0.316   2.665 -0.2068 -0.2571 -0.4015
19584TIP3    H280168   4.348   0.169   2.682  0.1932 -0.2270 -0.8745
19585TIP3   OH280169   4.067   1.462   3.925 -0.0459  0.2631  0.3501
19585TIP3    H180170   4.063   1.394   3.858 -0.4170 -1.2248  1.8077
19585TIP3    H280171   4.102   1.417   4.002 -0.8687  1.5693  1.5327
19586TIP3   OH280172   3.244   1.362  12.212  0.2273 -0.3701 -0.1677
19586TIP3    H180173   3.284   1.275  12.207  0.9486 -0.1292  0.9785
19586TIP3    H280174   3.152   1.348  12.190  0.2862 -1.4732  0.2438
19587TIP3   OH280175   2.278   2.938   4.011  1.0087  0.3707 -0.1466
19587TIP3    H180176   2.328   2.998   3.956  1.5491  0.1654  0.1143
19587TIP3    H280177   2.300   2.964   4.101 -0.4266  1.1780 -0.0010
19588TIP3   OH280178   4.034   3.509  16.827 -0.4713 -0.5806  0.3644
19588TIP3    H180179   4.079   3.564  16.892 -1.0031  0.4632 -0.1414
19588TIP3    H280180   4.000   3.435  16.879  0.5252 -0.6302  0.9967
19589TIP3   OH280181   1.920   1.213   1.972 -0.0475  0.0751 -0.0400
19589TIP3    H180182   1.888   1.292   2.016 -0.4719  0.7463 -1.4872
19589TIP3    H280183   2.012   1.207   1.996 -0.4627 -0.1047  1.6491
19590TIP3   OH280184   5.458   6.083  12.870  0.4423  1.1446 -0.0724
19590TIP3    H180185   5.531   6.136  12.901  0.6299  0.4112  0.7510
19590TIP3    H280186   5.497   6.021  12.809  0.4304  1.0574  0.0094
19591TIP3   OH280187   2.177   1.587  15.502  0.2744 -0.3365 -0.3756
19591TIP3    H180188   2.213   1.622  15.420 -1.1081 -1.5902 -1.5723
19591TIP3    H280189   2.232   1.511  15.521  0.3076 -0.3161 -0.3886
19592TIP3   OH280190   1.539   6.072  12.197  0.3964  0.5383 -0.2340
19592TIP3    H180191   1.550   6.091  12.104 -1.3498 -0.7546 -0.7634
19592TIP3    H280192   1.448   6.093  12.215  0.3695 -0.4011  0.8705
19593TIP3   OH280193   3.949   1.201   5.017  0.4263 -1.2484 -0.1676
19593TIP3    H180194   3.876   1.140   5.004  0.4627 -1.4072  0.3299
19593TIP3    H280195   4.026   1.146   5.023  0.7293 -1.0106 -1.6701
19594TIP3   OH280196   0.252   1.091  15.521  0.4281 -0.3374 -0.3945
19594TIP3    H180197   0.223   1.169  15.569  1.5384  0.3506 -0.8141
19594TIP3    H280198   0.189   1.024  15.546 -0.8183  0.7936 -0.3682
19595TIP3   OH280199   1.927   1.739  16.373 -0.0330 -0.2873  0.1840
19595TIP3    H180200   2.015   1.735  16.337 -0.7910  0.4043 -1.9212
19595TIP3    H280201   1.935   1.794  16.451  1.2617  0.4977 -0.4726
19596TIP3   OH280202   6.556   0.960   2.681 -0.2972 -0.1200 -0.2068
19596TIP3    H180203   6.473   0.946   2.636 -0.7478 -0.4992  0.7053
19596TIP3    H280204   6.577   0.875   2.720  0.3443  0.0596 -0.1517
19597TIP3   OH280205   2.869   1.717  15.432 -0.2179 -0.1843 -0.3076
19597TIP3    H180206   2.957   1.737  15.465 -0.1905  1.5231 -1.2911
19597TIP3    H280207   2.877   1.631  15.392  1.4042  0.5384 -1.6479
19598TIP3   OH280208   5.422   5.372  16.219 -1.1488 -0.1061  0.2983
19598TIP3    H180209   5.430   5.355  16.313 -1.4875 -0.2625  0.3006
19598TIP3    H280210   5.463   5.458  16.207 -0.3885 -0.4294  0.4597
19599TIP3   OH280211   5.138   3.469   4.178 -0.3873  0.2396 -0.5066
19599TIP3    H180212   5.072   3.400   4.184  1.4762 -1.5847 -0.2993
19599TIP3    H280213   5.107   3.536   4.239 -1.6172 -0.9493  0.2377
19600TIP3   OH280214   4.442   1.689   4.880  0.6500  0.7896  0.4763
19600TIP3    H180215   4.389   1.713   4.803 -0.6608 -0.2026  1.0342
19600TIP3    H280216   4.452   1.594   4.873 -1.0342  0.4050  2.4392
19601TIP3   OH280217   1.772   6.347   6.515 -0.1883 -0.0981  0.3962
19601TIP3    H180218   1.808   6.270   6.558 -1.0643 -1.5550 -1.3265
19601TIP3    H280219   1.814   6.422   6.558 -0.6019 -1.4248  3.3286
19602TIP3   OH280220   1.122   0.782  11.746 -0.5547  0.0678 -0.4311
19602TIP3    H180221   1.187   0.755  11.811  1.6561  0.1521 -2.4783
19602TIP3    H280222   1.089   0.866  11.778  0.5538  0.1619  0.5245
19603TIP3   OH280223   6.182   4.656  14.711 -0.0763  0.2155 -0.2614
19603TIP3    H180224   6.121   4.700  14.771 -0.9409  0.0308 -0.9926
19603TIP3    H280225   6.140   4.660  14.626  2.0243  2.2846 -1.3279
19604TIP3   OH280226   3.993   1.900  13.928  0.3139  0.0454  0.0663
19604TIP3    H180227   3.934   1.934  13.995 -2.0907  0.1800 -1.9691
19604TIP3    H280228   3.977   1.955  13.851 -0.2246 -2.6115 -1.8887
19605TIP3   OH280229   2.392   4.144   4.195 -0.4840  0.2659  0.0721
19605TIP3    H180230   2.339   4.223   4.189 -0.0400  0.7326  1.7595
19605TIP3    H280231   2.373   4.095   4.114 -1.2674  1.7624 -0.6769
19606TIP3   OH280232   4.004   4.579  12.645  0.6718  0.1977  0.4849
19606TIP3    H180233   3.962   4.664  12.662  0.2304 -0.1869  1.3350
19606TIP3    H280234   3.931   4.520  12.625  0.7363 -0.5586  2.2996
19607TIP3   OH280235   3.840   0.057  13.988 -0.5976  0.4766  0.2099
19607TIP3    H180236   3.929   0.021  13.980 -0.3363  1.3155 -0.8362
19607TIP3    H280237   3.783  -0.021  13.988  0.0146  0.0019 -1.0807
19608TIP3   OH280238   3.804   5.477   2.890  0.4363  0.7051  0.3853
19608TIP3    H180239   3.761   5.523   2.962  0.3923 -0.4283  1.1055
19608TIP3    H280240   3.775   5.524   2.811  0.1971  1.7387  1.0655
19609TIP3   OH280241   0.019   1.889  13.342  0.0265 -0.2987 -0.3616
19609TIP3    H180242  -0.060   1.926  13.383 -0.3971 -2.1745  0.6444
19609TIP3    H280243   0.043   1.952  13.274 -1.1708  1.3103  0.6360
19610TIP3   OH280244   1.555   0.094   0.725 -0.6524 -0.3237 -0.5389
19610TIP3    H180245   1.560  -0.001   0.737 -1.1190 -0.4159 -1.0671
19610TIP3    H280246   1.606   0.111   0.645  0.8862  0.0792  0.4725
19611TIP3   OH280247   1.354   4.901  12.621  0.4052 -0.1775  0.5306
19611TIP3    H180248   1.325   4.889  12.711  0.8229  1.3424  0.8921
19611TIP3    H280249   1.415   4.974  12.625 -0.4209  0.6549 -1.1469
19612TIP3   OH280250   5.851   2.051  10.560  0.0236 -0.4134  0.1899
19612TIP3    H180251   5.826   2.126  10.614  0.8784 -0.3787  0.5539
19612TIP3    H280252   5.874   1.982  10.622 -1.7883 -1.3744 -0.1325
19613TIP3   OH280253   5.058   0.119   4.372 -0.2415  1.1466  0.0301
19613TIP3    H180254   5.117   0.161   4.435 -1.9583  1.5323  1.4550
19613TIP3    H280255   5.009   0.055   4.424 -0.4703  0.2041 -1.3040
19614TIP3   OH280256   4.152   6.641   2.786  0.5492  0.1074 -0.0895
19614TIP3    H180257   4.109   6.725   2.795  0.9058  0.1880  0.9682
19614TIP3    H280258   4.140   6.597   2.871  0.6534 -0.7680 -0.5090
19615TIP3   OH280259   1.597   2.183  17.116  0.2635 -0.0105 -0.3810
19615TIP3    H180260   1.656   2.259  17.114 -0.9741  1.0280  0.5568
19615TIP3    H280261   1.641   2.120  17.173  0.2304  0.9941  0.7920
19616TIP3   OH280262   5.206   1.953  13.662  0.0032  0.0212  0.8635
19616TIP3    H180263   5.272   1.884  13.666  0.3997  0.4678  2.6872
19616TIP3    H280264   5.248   2.022  13.610  0.8802  0.1889  1.7743
19617TIP3   OH280265   0.789   1.523  11.658  0.3960 -0.2205  0.2952
19617TIP3    H180266   0.772   1.515  11.564  0.0098  0.9500  0.2470
19617TIP3    H280267   0.846   1.449  11.678  0.5913 -0.4188 -0.8865
19618TIP3   OH280268   6.724   4.772  11.367  0.2243 -0.2656 -0.1289
19618TIP3    H180269   6.652   4.809  11.316 -0.5735 -1.9157 -0.2479
19618TIP3    H280270   6.683   4.704  11.421  1.6710 -1.1487 -0.1024
19619TIP3   OH280271   0.672   6.142  11.259  0.2114  0.1441  0.4916
19619TIP3    H180272   0.756   6.160  11.217 -0.8076 -2.2011 -2.9765
19619TIP3    H280273   0.609   6.198  11.214 -0.2626  1.6474  2.8312
19620TIP3   OH280274   2.280   3.066   6.081 -0.2184 -0.0434 -1.0041
19620TIP3    H180275   2.331   3.079   6.161 -1.5090 -1.0837  0.0305
19620TIP3    H280276   2.338   3.015   6.024  1.3222  2.0437 -1.4281
19621TIP3   OH280277   1.849   1.177  11.152  0.0606 -0.0721  0.2757
19621TIP3    H180278   1.753   1.185  11.155  0.1317  0.6897  0.7989
19621TIP3    H280279   1.875   1.176  11.244  0.6609  1.2501  0.1412
19622TIP3   OH280280   4.775   3.996   4.143 -0.3063  0.5227 -0.3315
19622TIP3    H180281   4.731   4.081   4.139  0.7025  1.1230  0.7679
19622TIP3    H280282   4.865   4.014   4.118 -0.2516 -0.3771 -0.8258
19623TIP3   OH280283   1.217   1.828  13.249  0.1021  0.0512  0.2369
19623TIP3    H180284   1.263   1.907  13.278 -0.6396  0.2894  0.7839
19623TIP3    H280285   1.285   1.776  13.206  0.5732  1.0550 -0.2900
19624TIP3   OH280286   0.370   5.606   0.344  0.0350 -0.0165  0.0599
19624TIP3    H180287   0.419   5.671   0.295 -0.8397 -0.2337 -1.1438
19624TIP3    H280288   0.278   5.625   0.324 -0.4277  0.3573  2.2070
19625TIP3   OH280289   3.328   1.880  13.871 -0.0083 -0.8383  0.6298
19625TIP3    H180290   3.312   1.809  13.809 -1.9399 -0.7685  0.9738
19625TIP3    H280291   3.353   1.955  13.817 -0.8495 -1.0099 -0.0106
19626TIP3   OH280292   4.179   2.692  11.170 -0.4782  0.2665  0.0849
19626TIP3    H180293   4.201   2.656  11.083  0.7412  0.3228  0.3563
19626TIP3    H280294   4.248   2.659  11.227 -0.5729  1.2556  0.7884
19627TIP3   OH280295   5.974   1.365  15.836 -0.0546  0.1970 -0.2656
19627TIP3    H180296   6.003   1.290  15.889 -1.1478  0.9458  1.4757
19627TIP3    H280297   5.886   1.342  15.808  0.5382 -0.2198 -1.8901
19628TIP3   OH280298   3.236   0.235   2.646 -0.1624  0.4104  0.3112
19628TIP3    H180299   3.149   0.198   2.661  0.4881 -1.6662 -0.6728
19628TIP3    H280300   3.253   0.221   2.553  2.1310 -1.4497  0.9166
19629TIP3   OH280301   4.715   3.368  14.912 -0.0865 -0.2718  0.2089
19629TIP3    H180302   4.622   3.359  14.892  0.0269  1.0645 -1.1266
19629TIP3    H280303   4.758   3.353  14.828  0.6359  2.7591 -0.0635
19630TIP3   OH280304   5.116   1.969   2.426 -0.0859 -0.3577 -0.3300
19630TIP3    H180305   5.158   1.910   2.488  0.6148  0.8071  0.3585
19630TIP3    H280306   5.022   1.953   2.435 -0.0120 -0.0117  1.2596
19631TIP3   OH280307   2.660   1.314  13.591  0.2610  0.2190  0.3266
19631TIP3    H180308   2.746   1.303  13.551  1.2128  2.5994  1.4419
19631TIP3    H280309   2.636   1.405  13.571  0.0348  0.9902  3.5301
19632TIP3   OH280310   6.409   5.381   4.250 -0.1489 -0.0535 -0.2767
19632TIP3    H180311   6.466   5.304   4.253 -0.4013 -0.2520 -0.4623
19632TIP3    H280312   6.329   5.349   4.209 -1.1248 -0.2383  1.6935
19633TIP3   OH280313   6.199   5.148  16.134 -0.5142 -0.4834 -0.2033
19633TIP3    H180314   6.203   5.168  16.041 -0.0061 -1.4742 -0.4143
19633TIP3    H280315   6.171   5.056  16.137  2.1418 -1.3797  0.4770
19634TIP3   OH280316   0.002   0.114   6.896 -0.1743 -0.5582 -0.3221
19634TIP3    H180317  -0.024   0.054   6.966 -0.7426 -0.3025 -0.3147
19634TIP3    H280318  -0.071   0.114   6.835  0.4577 -1.0448 -1.1049
19635TIP3   OH280319   2.277   6.239   1.668  0.5797 -0.1408  0.2333
19635TIP3    H180320   2.313   6.164   1.619  0.7401  0.4421 -0.5527
19635TIP3    H280321   2.205   6.271   1.614  0.8643  0.6169  0.2946
19636TIP3   OH280322   4.245   1.385  14.425  0.1091 -0.3629  0.1829
19636TIP3    H180323   4.328   1.357  14.464 -0.3736 -1.0571  0.7291
19636TIP3    H280324   4.179   1.368  14.493 -0.3249  1.3765  0.2400
19637TIP3   OH280325   1.042   1.941   4.294  0.3203 -0.1735 -0.3022
19637TIP3    H180326   1.114   1.967   4.237 -0.4820  3.0140 -0.0820
19637TIP3    H280327   0.963   1.963   4.244 -0.4238 -0.0146  0.9070
19638TIP3   OH280328   0.659   2.306   2.529 -0.6920  0.0707 -0.4431
19638TIP3    H180329   0.663   2.225   2.478 -0.8718  0.3331 -0.8829
19638TIP3    H280330   0.704   2.370   2.474  2.4733 -0.4338  1.3156
19639TIP3   OH280331   2.326   5.939   4.099  0.1595  0.3688 -0.5713
19639TIP3    H180332   2.416   5.912   4.081 -0.0211 -0.8852  0.2666
19639TIP3    H280333   2.329   5.976   4.187 -0.1889 -0.0259 -0.3851
19640TIP3   OH280334   3.008   6.725  11.545  0.5233 -0.2921 -0.8398
19640TIP3    H180335   2.988   6.720  11.639 -0.4174 -1.7988 -1.0917
19640TIP3    H280336   2.925   6.706  11.501  1.4028 -1.8303 -1.9427
19641TIP3   OH280337   4.303   4.754   3.201  0.6488 -0.0417 -0.1853
19641TIP3    H180338   4.315   4.659   3.198  1.2835 -0.1097  2.3556
19641TIP3    H280339   4.209   4.767   3.192  0.6405 -0.8230 -1.4190
19642TIP3   OH280340   4.154   0.252  11.945  0.1127  0.5122  0.1389
19642TIP3    H180341   4.247   0.258  11.924  0.2404 -1.6440 -0.1093
19642TIP3    H280342   4.113   0.224  11.864 -0.4531 -0.4733  0.7421
19643TIP3   OH280343   1.962   2.434  14.039 -0.4340 -0.0551  0.3554
19643TIP3    H180344   1.956   2.508  14.099 -2.3788  0.8144 -0.8084
19643TIP3    H280345   1.886   2.379  14.060  1.8115 -2.6778  2.2746
19644TIP3   OH280346   4.481   3.178   0.764  0.8103  0.6316 -0.2737
19644TIP3    H180347   4.459   3.085   0.760  0.4413  0.6196  1.3836
19644TIP3    H280348   4.571   3.184   0.731  1.0110 -0.3709  0.0790
19645TIP3   OH280349   2.870   2.257   2.039  0.2331 -0.4694 -0.1989
19645TIP3    H180350   2.931   2.327   2.017  0.0586 -0.0066  0.7545
19645TIP3    H280351   2.925   2.178   2.043  1.3521  0.3150  3.2442
19646TIP3   OH280352   5.746   6.573  16.570 -0.4206  0.6157 -0.1719
19646TIP3    H180353   5.722   6.594  16.479 -1.0791 -1.0428 -0.4261
19646TIP3    H280354   5.828   6.524  16.561  0.0531  1.3406  0.2163
19647TIP3   OH280355   4.037   6.741  13.549 -0.4412 -0.3343 -0.5457
19647TIP3    H180356   4.119   6.699  13.574  0.1708  0.3206 -1.3551
19647TIP3    H280357   3.968   6.687  13.587  0.3422 -1.5261 -0.7881
19648TIP3   OH280358   5.484   4.317  13.783 -0.0867 -0.5643  0.1476
19648TIP3    H180359   5.391   4.323  13.804 -0.2047  0.7045 -0.6263
19648TIP3    H280360   5.527   4.300  13.867 -1.0955 -2.5284  0.3253
19649TIP3   OH280361   0.830   1.137   3.653 -0.0517  0.1771 -0.0895
19649TIP3    H180362   0.864   1.082   3.582  1.8417 -0.6816  1.3956
19649TIP3    H280363   0.894   1.208   3.662  0.5700 -0.5439  1.6675
19650TIP3   OH280364   5.027   4.417   3.667 -0.2157  0.1528 -0.6059
19650TIP3    H180365   5.095   4.485   3.656 -0.8681  0.6293 -1.9838
19650TIP3    H280366   4.952   4.451   3.618 -1.6153 -0.1829  1.1931
19651TIP3   OH280367   0.875   0.057   2.069 -0.3020  0.2985  0.2024
19651TIP3    H180368   0.868   0.068   1.975 -0.1126 -0.8135  0.0459
19651TIP3    H280369   0.961   0.093   2.092  0.1243 -0.4316 -0.2201
19652TIP3   OH280370   4.750   2.655   1.746 -0.3729  0.2808  0.5533
19652TIP3    H180371   4.771   2.619   1.660  1.8760 -0.5895  1.3944
19652TIP3    H280372   4.657   2.638   1.757 -0.4694 -0.5747 -1.2454
19653TIP3   OH280373   6.158   2.491  10.609  0.5529  0.5580  0.0016
19653TIP3    H180374   6.189   2.421  10.551  0.6861  2.0703 -1.8150
19653TIP3    H280375   6.235   2.544  10.627  0.2515  0.8133  0.5943
19654TIP3   OH280376   0.048   4.264  11.314  0.5334 -0.2285  0.4188
19654TIP3    H180377   0.034   4.189  11.372  0.1001 -0.7925 -0.3859
19654TIP3    H280378   0.012   4.338  11.363 -0.8668 -0.8755  0.4317
19655TIP3   OH280379   5.314   5.342   3.978  0.2210 -0.1382 -0.2988
19655TIP3    H180380   5.409   5.334   3.972  0.3184  0.5168  0.2978
19655TIP3    H280381   5.297   5.436   3.974 -0.3595 -0.2159  0.1599
19656TIP3   OH280382   5.512   1.923   2.585 -0.1760  0.5400 -0.3431
19656TIP3    H180383   5.446   1.947   2.651 -0.4380 -0.0007 -0.4018
19656TIP3    H280384   5.483   1.838   2.552  0.1804  0.6158 -0.8635
19657TIP3   OH280385   6.269   1.603   3.627  0.3642  0.4769 -0.1613
19657TIP3    H180386   6.308   1.673   3.679 -1.1291  0.0406  1.6639
19657TIP3    H280387   6.214   1.649   3.563  1.9370  1.0093 -1.1820
19658TIP3   OH280388   6.449   6.305  10.860 -0.0411  0.2067 -0.6819
19658TIP3    H180389   6.482   6.215  10.863 -0.2320  0.1171 -1.1369
19658TIP3    H280390   6.528   6.359  10.854  0.1638  0.1801  1.2804
19659TIP3   OH280391   0.619   1.799   4.498  0.1323  0.5443 -0.5716
19659TIP3    H180392   0.568   1.763   4.571  0.7390  0.3697 -0.2296
19659TIP3    H280393   0.591   1.748   4.422  0.0214  0.2436 -0.3307
19660TIP3   OH280394   5.199   2.934   2.422 -0.5295 -0.2620 -0.1684
19660TIP3    H180395   5.114   2.914   2.383 -1.2732  1.1221  0.6770
19660TIP3    H280396   5.251   2.855   2.407 -1.2861 -0.3863 -2.4839
19661TIP3   OH280397   3.759   4.173  10.804 -0.4306  0.2373 -0.2229
19661TIP3    H180398   3.704   4.230  10.750  0.2589  0.3880 -0.7852
19661TIP3    H280399   3.763   4.216  10.889 -1.0815  0.2891 -0.2186
19662TIP3   OH280400   6.408   4.376  14.566 -0.5682 -0.1944  0.0190
19662TIP3    H180401   6.393   4.469  14.584 -0.2175 -0.2954  0.8796
19662TIP3    H280402   6.468   4.348  14.634 -0.5995 -1.0375 -0.2898
19663TIP3   OH280403   2.819   3.620  15.313  0.3032 -0.4000 -0.5297
19663TIP3    H180404   2.790   3.531  15.292  0.4949 -0.5672 -0.0932
19663TIP3    H280405   2.738   3.669  15.328  0.2199 -0.7177  0.0949
19664TIP3   OH280406   2.385   4.114   3.316  0.5111 -0.3644  0.0274
19664TIP3    H180407   2.414   4.024   3.299  0.8518 -0.3032  0.2749
19664TIP3    H280408   2.446   4.147   3.382 -0.8239 -0.6075  1.4387
19665TIP3   OH280409   1.350   1.531  11.631 -0.3331  0.2397 -0.9412
19665TIP3    H180410   1.413   1.481  11.684 -0.3573  0.3246 -0.8313
19665TIP3    H280411   1.321   1.602  11.689 -1.4453 -0.4979 -0.5602
19666TIP3   OH280412   2.656   5.435  12.917 -0.2333 -0.4124 -0.0474
19666TIP3    H180413   2.725   5.495  12.888 -0.8601  0.6742  0.6558
19666TIP3    H280414   2.693   5.392  12.994 -0.6546  0.8520  0.8900
19667TIP3   OH280415   0.264   2.963  13.076  0.8940 -0.2356  0.5612
19667TIP3    H180416   0.219   2.934  13.156  0.7708 -0.1525  0.5218
19667TIP3    H280417   0.304   2.883  13.042 -1.0360 -0.7750 -0.5773
19668TIP3   OH280418   5.894   1.871  10.766 -0.3809  0.1853  0.6506
19668TIP3    H180419   5.941   1.792  10.793 -0.0630  0.5162  1.0755
19668TIP3    H280420   5.809   1.863  10.809 -0.0161  0.5207  1.4543
19669TIP3   OH280421   2.988   1.329  15.459 -0.8141 -0.3498  0.6542
19669TIP3    H180422   2.949   1.369  15.382 -0.3874  1.2616  1.2369
19669TIP3    H280423   2.919   1.333  15.526  0.0491  1.9299  1.4993
19670TIP3   OH280424   0.743   1.989  16.801 -0.1412  0.1048 -0.4041
19670TIP3    H180425   0.712   1.952  16.884  1.1967 -0.1204  0.0107
19670TIP3    H280426   0.665   1.991  16.745 -0.8614 -0.6069  0.5481
19671TIP3   OH280427   0.494   6.697  13.627 -0.2539 -0.1133  0.6850
19671TIP3    H180428   0.576   6.745  13.620 -0.8088  0.5953 -1.9886
19671TIP3    H280429   0.500   6.628  13.561 -2.7084  1.5190 -1.4635
19672TIP3   OH280430   6.436   1.192  12.891  0.3633  0.4162  0.0812
19672TIP3    H180431   6.349   1.204  12.853  1.3056  1.6846 -1.8542
19672TIP3    H280432   6.465   1.280  12.916  1.4563  0.1540 -0.1744
19673TIP3   OH280433   3.654   0.924   0.883  0.1218 -0.3582  0.2850
19673TIP3    H180434   3.630   0.892   0.970 -1.2686 -1.6494 -0.5193
19673TIP3    H280435   3.683   1.014   0.898 -2.1781  0.2258  1.8291
19674TIP3   OH280436   4.690   5.511  13.274  0.1013 -0.1410  0.4425
19674TIP3    H180437   4.761   5.497  13.212  0.2666 -0.8664  0.7853
19674TIP3    H280438   4.644   5.589  13.241  0.2468 -0.4457 -0.5237
19675TIP3   OH280439   6.103   5.937   5.884  0.7185 -0.6448 -0.1559
19675TIP3    H180440   6.192   5.965   5.905 -0.0460  1.4050  0.6806
19675TIP3    H280441   6.101   5.933   5.789  1.3407  0.7147 -0.2530
19676TIP3   OH280442   0.521   1.000   6.891  0.1414  1.0093  0.4539
19676TIP3    H180443   0.568   0.925   6.853  3.1125  0.5926  4.3438
19676TIP3    H280444   0.451   0.960   6.943 -0.5859  1.2303 -0.3356
19677TIP3   OH280445   3.827   3.973  14.904 -0.5471  0.2804  0.6963
19677TIP3    H180446   3.841   3.965  14.999 -1.1940 -2.8232  0.6592
19677TIP3    H280447   3.732   3.984  14.895 -0.8338 -1.8341  0.4516
19678TIP3   OH280448   5.079   2.818   0.428  0.3237  0.2145 -0.3946
19678TIP3    H180449   5.079   2.794   0.336 -0.9294 -0.4239 -0.2493
19678TIP3    H280450   5.030   2.748   0.471 -0.4698  1.2999  0.5259
19679TIP3   OH280451   1.510   2.957   5.384  0.4623  0.1834  0.0963
19679TIP3    H180452   1.601   2.981   5.398  0.6977 -0.5388 -0.1482
19679TIP3    H280453   1.463   2.995   5.458  1.2526 -1.1145  1.3229
19680TIP3   OH280454   3.151   2.398   1.785 -0.1844  0.4670  0.2724
19680TIP3    H180455   3.238   2.367   1.759 -0.6624 -0.3166 -0.4561
19680TIP3    H280456   3.119   2.445   1.708  0.0125  1.6749  0.9151
19681TIP3   OH280457   3.558   1.212   3.659  0.5090 -0.1699  0.0407
19681TIP3    H180458   3.488   1.167   3.707  0.3633 -1.1613 -1.0694
19681TIP3    H280459   3.629   1.221   3.723 -1.1584  2.3469  1.7069
19682TIP3   OH280460   4.840   2.501  13.598 -0.4247  0.1861  0.1789
19682TIP3    H180461   4.759   2.468  13.637 -0.6385  1.7229  1.1167
19682TIP3    H280462   4.813   2.579  13.548  0.2121 -0.3616 -1.0746
19683TIP3   OH280463   0.767   4.049  16.112 -0.1642 -0.3497  0.6625
19683TIP3    H180464   0.692   3.989  16.103  0.3853 -0.8663 -0.7488
19683TIP3    H280465   0.728   4.136  16.109 -0.9132 -0.5939  2.1178
19684TIP3   OH280466   6.347   6.086  13.613 -0.4559  0.1718  0.0819
19684TIP3    H180467   6.317   6.131  13.535 -0.4309  0.6916  0.3672
19684TIP3    H280468   6.420   6.139  13.645  0.4796 -0.8121 -0.3394
19685TIP3   OH280469   2.641   4.823  14.135 -0.3989  0.0588  0.2745
19685TIP3    H180470   2.674   4.872  14.059 -0.6859 -0.6013 -0.2825
19685TIP3    H280471   2.719   4.786  14.176 -0.3646 -0.8745 -0.6037
19686TIP3   OH280472   3.320   6.388   3.531  0.2204  0.7218  0.1021
19686TIP3    H180473   3.248   6.367   3.473 -0.2213  0.2675  0.7964
19686TIP3    H280474   3.382   6.316   3.519  0.9084  1.4804 -1.0303
19687TIP3   OH280475   6.380   0.338   2.369 -0.0648 -0.2594 -0.3721
19687TIP3    H180476   6.341   0.276   2.308 -1.6744 -0.3016  0.6674
19687TIP3    H280477   6.378   0.293   2.454 -0.6627  0.9602  0.2731
19688TIP3   OH280478   5.213   0.547   4.926  0.2053 -0.5089 -0.2960
19688TIP3    H180479   5.182   0.600   4.852  2.5082  0.5685 -0.5786
19688TIP3    H280480   5.208   0.456   4.894 -2.3464 -0.4034 -0.3608
19689TIP3   OH280481   1.681   4.729  14.792  0.6002  0.2844  0.1024
19689TIP3    H180482   1.626   4.775  14.729 -1.3944 -0.4623  1.2248
19689TIP3    H280483   1.729   4.665  14.739  0.0508  0.6356 -0.8528
19690TIP3   OH280484   0.182   2.486   1.879 -0.1539  0.5704 -0.0579
19690TIP3    H180485   0.093   2.515   1.858 -0.1921  0.6045  0.1466
19690TIP3    H280486   0.214   2.552   1.941 -0.4767 -0.1743  0.9313
19691TIP3   OH280487   1.885   0.061  13.993 -0.3431  0.0137 -0.3215
19691TIP3    H180488   1.803   0.094  14.031  0.6784  0.9479  1.2051
19691TIP3    H280489   1.923   0.138  13.951 -0.0209 -0.3006 -0.6025
19692TIP3   OH280490   1.811   6.721  16.005  0.5857 -0.1041 -0.8211
19692TIP3    H180491   1.800   6.816  16.008  0.1764 -0.1550 -0.3811
19692TIP3    H280492   1.722   6.687  15.993  0.5171 -0.4738  0.5492
19693TIP3   OH280493   2.783   1.329   1.492  0.4699 -0.1384  0.2655
19693TIP3    H180494   2.844   1.395   1.456  0.0958  0.6521  1.0371
19693TIP3    H280495   2.696   1.365   1.474  0.2059 -1.2774 -0.8495
19694TIP3   OH280496   1.259   1.331  14.569  0.1491  0.1315  0.4599
19694TIP3    H180497   1.200   1.388  14.519  1.4208  0.6563 -0.5195
19694TIP3    H280498   1.303   1.390  14.630 -0.2279 -0.2366  1.1033
19695TIP3   OH280499   1.662   4.208   1.944 -0.0529  0.3873 -0.4432
19695TIP3    H180500   1.657   4.288   1.996 -1.7263  0.0740 -0.0517
19695TIP3    H280501   1.755   4.186   1.942  0.2371  1.3244  0.9944
19696TIP3   OH280502   5.445   2.853   4.373 -0.4876  0.1224  0.3154
19696TIP3    H180503   5.500   2.910   4.320 -1.4288  1.7550  1.0240
19696TIP3    H280504   5.362   2.850   4.326  0.3454 -3.1469 -1.2956
19697TIP3   OH280505   4.039   2.529  11.494  0.9856  0.2077 -0.6798
19697TIP3    H180506   4.059   2.570  11.410  2.5600 -2.8134 -1.9539
19697TIP3    H280507   4.047   2.435  11.477 -1.1930 -0.6516  2.2720
19698TIP3   OH280508   4.106   0.394   1.589  0.2884 -0.3111 -0.7299
19698TIP3    H180509   4.174   0.461   1.595 -0.2484  0.2703 -0.9879
19698TIP3    H280510   4.112   0.361   1.500 -2.0029  2.2202 -1.9706
19699TIP3   OH280511   1.543   2.610  17.080  0.2127 -0.2307  0.6154
19699TIP3    H180512   1.551   2.625  16.986  0.7946 -0.3322  0.6459
19699TIP3    H280513   1.618   2.556  17.103 -1.4238 -2.6118  0.6647
19700TIP3   OH280514   5.444   5.487   2.827  0.4386 -0.1229  0.0335
19700TIP3    H180515   5.442   5.501   2.732  0.4329 -2.6567 -0.4212
19700TIP3    H280516   5.353   5.499   2.855  0.1535 -0.8582 -0.5560
19701TIP3   OH280517   6.379   5.164   0.239  0.1110  0.5564  0.4257
19701TIP3    H180518   6.322   5.094   0.207  0.2961  0.5298  0.1490
19701TIP3    H280519   6.369   5.161   0.334 -1.2157  1.2803  0.3374
19702TIP3   OH280520   0.467   4.384  13.686  0.0421 -0.2367 -0.3684
19702TIP3    H180521   0.456   4.295  13.720 -0.1918 -0.0825 -0.0354
19702TIP3    H280522   0.378   4.412  13.664  0.3024 -0.8583 -2.4958
19703TIP3   OH280523   6.569   4.297   5.401  0.0314  0.4682 -0.1860
19703TIP3    H180524   6.619   4.379   5.399 -1.8526  1.6751  0.2726
19703TIP3    H280525   6.528   4.292   5.315  0.9338 -0.5640 -0.5872
19704TIP3   OH280526   1.085   4.652   3.456  0.4921  0.7417 -0.0270
19704TIP3    H180527   1.060   4.687   3.370  0.0553  0.5986  0.0387
19704TIP3    H280528   1.179   4.669   3.463  0.4377  1.1757 -0.3353
19705TIP3   OH280529   4.359   0.105   4.658  0.5267 -0.0860 -0.1545
19705TIP3    H180530   4.360   0.010   4.668 -1.3027  0.0299  2.0053
19705TIP3    H280531   4.272   0.125   4.624  1.4475  0.7723 -2.1606
19706TIP3   OH280532   0.940   1.721   1.182 -0.0980 -0.0002  0.1785
19706TIP3    H180533   0.908   1.649   1.128  2.2820  0.4322 -1.9656
19706TIP3    H280534   1.025   1.691   1.215 -0.5832  0.5653  2.0834
19707TIP3   OH280535   2.102   3.891  14.717 -0.1064 -0.3219 -0.5678
19707TIP3    H180536   2.125   3.959  14.780  1.1705 -1.2238 -0.0102
19707TIP3    H280537   2.015   3.861  14.744  0.0607 -0.0950  0.2472
19708TIP3   OH280538   2.967   0.654   3.811  0.2904 -0.4024  0.1840
19708TIP3    H180539   2.961   0.650   3.907  3.6102 -0.9735  0.4684
19708TIP3    H280540   2.927   0.573   3.781 -2.7598  0.7006  0.8050
19709TIP3   OH280541   6.708   3.050   4.253  0.0512  0.2591 -0.2803
19709TIP3    H180542   6.629   3.082   4.298  0.8094 -1.1903  2.3145
19709TIP3    H280543   6.781   3.081   4.306  1.1428 -0.0948 -1.5134
19710TIP3   OH280544   4.621   4.262   4.988 -0.1571 -0.6068  0.0738
19710TIP3    H180545   4.594   4.195   4.926  0.2429 -0.7817  0.0860
19710TIP3    H280546   4.689   4.220   5.041 -1.8823 -1.1574  1.9881
19711TIP3   OH280547   4.574   2.944   1.499 -0.3435  0.2060  0.1911
19711TIP3    H180548   4.601   2.956   1.590  2.8343  1.7367 -0.8059
19711TIP3    H280549   4.509   3.013   1.484 -1.4610 -0.5214  1.4173
19712TIP3   OH280550   5.789   5.486  14.960  0.6623 -0.0236 -0.1465
19712TIP3    H180551   5.843   5.535  15.021  1.2029 -0.9978  0.1789
19712TIP3    H280552   5.728   5.551  14.925  1.5722  0.9468  0.0056
19713TIP3   OH280553   5.764   4.020  13.147 -0.5792  0.0597  0.2749
19713TIP3    H180554   5.672   4.008  13.126 -0.5642  1.9993 -1.2361
19713TIP3    H280555   5.766   4.096  13.205  0.0403 -0.1056  0.4793
19714TIP3   OH280556   6.185   1.728   0.775  0.0871 -0.6254  0.6264
19714TIP3    H180557   6.280   1.717   0.772  0.1359 -0.1327 -0.0118
19714TIP3    H280558   6.166   1.784   0.700 -0.7246 -0.8295  0.6739
19715TIP3   OH280559   6.045   1.145  10.735 -0.6837 -0.1804  0.6673
19715TIP3    H180560   6.098   1.085  10.789  1.4670  1.1538  0.1881
19715TIP3    H280561   6.021   1.216  10.794  2.6568  1.8766 -0.1792
19716TIP3   OH280562   1.925   3.490  13.247  0.1706  0.2316 -0.4199
19716TIP3    H180563   1.978   3.508  13.169 -0.7746 -1.5862 -1.5416
19716TIP3    H280564   1.980   3.519  13.320  1.5764  0.8996 -1.6867
19717TIP3   OH280565   6.624   4.048  15.503 -0.4946  0.1124 -0.4413
19717TIP3    H180566   6.530   4.040  15.522 -0.1561  2.1757  3.1904
19717TIP3    H280567   6.632   4.134  15.461 -0.2473 -0.2689 -1.1865
19718TIP3   OH280568   4.762   3.716  11.315  0.4139 -0.2253  0.0234
19718TIP3    H180569   4.852   3.717  11.282  0.5034 -0.4491  0.2547
19718TIP3    H280570   4.765   3.769  11.395  0.1720  0.4229 -0.3848
19719TIP3   OH280571   1.077   6.587  13.636 -0.1521 -0.0734  0.1723
19719TIP3    H180572   1.106   6.502  13.602  0.5222 -0.0194  0.5986
19719TIP3    H280573   0.991   6.600  13.596 -1.5468 -2.2188  2.2167
19720TIP3   OH280574   1.105   6.637  15.767 -0.0448 -0.0236 -0.7111
19720TIP3    H180575   1.083   6.654  15.676 -1.1835  0.5890 -0.3376
19720TIP3    H280576   1.031   6.587  15.801 -0.0000  0.4290  0.0791
19721TIP3   OH280577   0.975   3.751   3.364  0.4925  0.4488  0.0431
19721TIP3    H180578   0.999   3.762   3.272  1.8451 -0.4380  0.2606
19721TIP3    H280579   0.880   3.764   3.366 -0.1805 -2.8969 -2.0862
19722TIP3   OH280580   3.859   5.243  15.631 -0.6725 -0.2728 -0.0218
19722TIP3    H180581   3.862   5.287  15.546  0.7402  0.7154  0.5040
19722TIP3    H280582   3.892   5.308  15.693 -1.4142 -1.0654  1.2521
19723TIP3   OH280583   4.285   4.398   6.227 -1.1869 -0.0492 -0.0100
19723TIP3    H180584   4.368   4.417   6.270 -1.3914 -0.4778  0.5762
19723TIP3    H280585   4.222   4.455   6.270 -0.9893  1.2327 -1.3190
19724TIP3   OH280586   6.082   6.001  17.078  0.9620  0.0748  0.1366
19724TIP3    H180587   6.069   6.094  17.059 -0.5826 -0.2352 -0.4392
19724TIP3    H280588   6.078   5.958  16.993 -1.7127 -0.8539  0.6230
19725TIP3   OH280589   2.595   5.182  14.697  0.0296 -0.4946 -0.0783
19725TIP3    H180590   2.677   5.177  14.746  1.4752 -1.4750 -2.4254
19725TIP3    H280591   2.554   5.262  14.727  0.9424 -0.8910  2.4654
19726TIP3   OH280592   5.250   3.960   2.785  0.4920  0.2242 -0.4183
19726TIP3    H180593   5.341   3.983   2.765  0.0088  2.1332 -0.5759
19726TIP3    H280594   5.227   3.894   2.720  2.5132 -2.2524  1.1711
19727TIP3   OH280595   0.989   2.432   0.498  0.1890  0.1697 -0.6155
19727TIP3    H180596   1.039   2.383   0.432  1.2289  1.4283 -0.8051
19727TIP3    H280597   1.052   2.495   0.533 -1.1066  1.3888 -0.4040
19728TIP3   OH280598   2.041   4.406  15.549  0.1409 -0.2595 -0.6127
19728TIP3    H180599   2.057   4.312  15.538  1.1807  0.0064 -1.5195
19728TIP3    H280600   1.947   4.412  15.565  0.4254 -1.6755  2.2591
19729TIP3   OH280601   6.015   3.361  13.403 -0.4000 -0.4825 -0.2453
19729TIP3    H180602   5.961   3.309  13.343  0.2152 -3.0886  1.2898
19729TIP3    H280603   6.091   3.306  13.419  0.0199  0.6584  1.9534
19730TIP3   OH280604   6.373   4.506   5.574 -0.0931  0.1569  0.1178
19730TIP3    H180605   6.449   4.522   5.519 -1.2957 -0.7100 -1.8780
19730TIP3    H280606   6.378   4.413   5.596 -1.6727 -0.4631 -1.8704
19731TIP3   OH280607   5.108   2.820  10.445 -0.1630 -0.2870 -0.6225
19731TIP3    H180608   5.050   2.885  10.485  0.8847  0.8548 -0.9019
19731TIP3    H280609   5.196   2.854  10.460  0.3469 -0.9097 -2.0345
19732TIP3   OH280610   0.585   4.160   3.603  0.0288 -0.0514 -0.7264
19732TIP3    H180611   0.631   4.186   3.683  0.2744 -1.6105 -0.3321
19732TIP3    H280612   0.499   4.202   3.610  0.1990  0.1635  0.1513
19733TIP3   OH280613   5.726   1.016   0.995  0.1673 -0.2804  0.0945
19733TIP3    H180614   5.652   1.074   1.009  0.7560  0.4777  0.1284
19733TIP3    H280615   5.687   0.933   0.966 -0.6087  0.5169 -1.1933
19734TIP3   OH280616   0.163   6.029  14.897 -0.6263  0.0068  0.2449
19734TIP3    H180617   0.167   5.949  14.844  0.2981  0.2044  0.0049
19734TIP3    H280618   0.084   6.074  14.866  1.0286  1.2441 -2.6660
19735TIP3   OH280619   6.454   2.570  13.635  0.1292 -0.7518 -0.3994
19735TIP3    H180620   6.434   2.602  13.723 -1.4472  0.3337 -1.0988
19735TIP3    H280621   6.370   2.573  13.589  0.6825 -2.4425 -1.6161
19736TIP3   OH280622   0.702   0.269  11.003 -0.5719  0.3057 -0.4599
19736TIP3    H180623   0.744   0.280  10.918  1.2748 -1.6383  0.1213
19736TIP3    H280624   0.668   0.180  11.002  0.6933 -0.2637  1.2808
19737TIP3   OH280625   5.837   2.669   5.447 -0.1541  0.0223  0.0851
19737TIP3    H180626   5.919   2.653   5.494  1.4328  2.6617 -1.5576
19737TIP3    H280627   5.850   2.628   5.361 -1.1155 -0.6481  0.2402
19738TIP3   OH280628   0.796   3.450   6.222 -0.1100  0.4532 -0.1590
19738TIP3    H180629   0.752   3.368   6.199 -0.0017  0.3610 -0.0388
19738TIP3    H280630   0.873   3.452   6.165  0.7312 -0.2907  0.9251
19739TIP3   OH280631   6.784   2.900  12.462 -0.3745 -0.3012 -0.9597
19739TIP3    H180632   6.781   2.968  12.529  1.5335 -0.4525 -0.6518
19739TIP3    H280633   6.697   2.861  12.463 -0.5378 -0.0162  1.1716
19740TIP3   OH280634   0.887   2.992  15.844 -0.0898 -0.1253  0.3207
19740TIP3    H180635   0.888   2.948  15.759 -0.0808 -1.0916  0.8020
19740TIP3    H280636   0.794   3.009  15.861 -0.0303  0.7714 -0.2257
19741TIP3   OH280637   4.676   2.108   5.195 -0.4397 -1.2250 -0.5591
19741TIP3    H180638   4.742   2.047   5.226 -1.3353 -1.7088  0.4689
19741TIP3    H280639   4.723   2.167   5.135  1.4443 -0.0951  1.8415
19742TIP3   OH280640   5.526   1.208  11.463  0.0344  0.8146  0.0358
19742TIP3    H180641   5.470   1.178  11.535  0.2153  0.7226  0.1382
19742TIP3    H280642   5.516   1.141  11.395  0.7056  0.3341  0.3967
19743TIP3   OH280643   3.409   2.931   0.079  0.2334 -0.1754 -0.0215
19743TIP3    H180644   3.408   3.026   0.090  0.7725 -0.2184  0.4723
19743TIP3    H280645   3.461   2.899   0.153 -1.4137 -1.0013  0.8460
19744TIP3   OH280646   6.427   1.571   0.757  0.1032  0.3330  0.1739
19744TIP3    H180647   6.489   1.530   0.817 -1.1484 -0.0817  1.2343
19744TIP3    H280648   6.481   1.604   0.686  1.2815 -2.5607 -0.4233
19745TIP3   OH280649   1.426   3.277  10.642  0.2307 -0.0065 -0.2991
19745TIP3    H180650   1.375   3.200  10.619  0.8628 -0.7797  0.7819
19745TIP3    H280651   1.386   3.310  10.723  1.8578 -1.1165  1.0390
19746TIP3   OH280652   6.563   1.518   6.386  0.7480  1.1991  0.8175
19746TIP3    H180653   6.618   1.531   6.463 -1.5181  0.4584  2.6558
19746TIP3    H280654   6.479   1.557   6.409 -0.5707 -0.6805 -0.5182
19747TIP3   OH280655   3.799   1.122   2.418 -0.4122  0.6035  0.1078
19747TIP3    H180656   3.812   1.045   2.364 -0.0724 -1.5723  3.0297
19747TIP3    H280657   3.880   1.130   2.469 -1.3956  1.3132  1.6496
19748TIP3   OH280658   6.530   0.911   0.998 -0.0017  0.6044 -0.2004
19748TIP3    H180659   6.614   0.871   1.023 -0.7636 -2.4892 -2.1188
19748TIP3    H280660   6.479   0.909   1.079  1.2852  1.3156  0.6774
19749TIP3   OH280661   3.005   5.372  14.446 -0.1490  0.1494 -0.2730
19749TIP3    H180662   2.972   5.434  14.510  0.4204 -0.2451  0.4152
19749TIP3    H280663   3.077   5.328  14.490 -0.1727 -0.5942 -0.9544
19750TIP3   OH280664   6.403   5.146   1.643 -0.5115 -0.7314  0.0139
19750TIP3    H180665   6.311   5.120   1.650 -0.5676 -0.5097  0.0835
19750TIP3    H280666   6.448   5.095   1.711 -0.7084 -0.2420  0.5110
19751TIP3   OH280667   4.400   3.752   5.737 -0.2670 -0.2990 -0.1746
19751TIP3    H180668   4.477   3.713   5.696  0.4313 -0.3789  1.1754
19751TIP3    H280669   4.431   3.835   5.774 -1.2232  0.4797 -1.0418
19752TIP3   OH280670   2.654   3.347   2.516  0.2831 -0.2413 -0.4926
19752TIP3    H180671   2.654   3.293   2.438 -2.1471 -1.6102  0.3417
19752TIP3    H280672   2.574   3.322   2.563  1.2843  0.9906  2.0981
19753TIP3   OH280673   0.546   5.968   5.640 -0.2698 -0.5834  0.1126
19753TIP3    H180674   0.613   6.009   5.585  1.3952 -0.9366  1.7828
19753TIP3    H280675   0.470   5.961   5.583  0.7823  0.7543 -1.5656
19754TIP3   OH280676   1.591   2.936  10.589 -0.3030 -0.7196 -0.9028
19754TIP3    H180677   1.530   2.887  10.644 -1.7225 -0.2376 -2.0009
19754TIP3    H280678   1.579   2.900  10.501  0.5059 -0.1394 -1.2614
19755TIP3   OH280679   1.281   3.179   5.941 -0.1453 -0.2422  0.2896
19755TIP3    H180680   1.360   3.143   5.980  0.1818  1.0337  0.8537
19755TIP3    H280681   1.280   3.271   5.968 -1.3666 -0.0163 -0.4249
19756TIP3   OH280682   5.959   2.683   1.335 -0.3984 -0.2880  0.5835
19756TIP3    H180683   5.868   2.664   1.311 -0.1770 -0.1153 -0.4450
19756TIP3    H280684   6.011   2.632   1.274  0.2319 -1.4081  1.9976
19757TIP3   OH280685   1.094   5.384   0.588  0.0931  0.7272 -0.6944
19757TIP3    H180686   1.102   5.407   0.496  0.3205  1.2062 -0.5577
19757TIP3    H280687   1.121   5.463   0.635  0.0241  0.4710 -0.2179
19758TIP3   OH280688   1.371   4.352   4.985  0.2537  0.2333 -0.5510
19758TIP3    H180689   1.355   4.435   5.029 -0.0963  0.0139 -0.2670
19758TIP3    H280690   1.297   4.341   4.925 -1.1798 -1.1889  1.3637
19759TIP3   OH280691   3.938   5.974  14.210  0.5613 -0.0099 -0.2536
19759TIP3    H180692   4.025   5.982  14.249  0.2740  0.5145  0.3068
19759TIP3    H280693   3.885   5.931  14.277  0.0368  1.0032  0.0165
19760TIP3   OH280694   2.835   4.389   5.219 -0.4419  0.3753  0.4250
19760TIP3    H180695   2.879   4.327   5.161 -2.1603 -1.6668  1.1841
19760TIP3    H280696   2.902   4.413   5.283  0.3068 -0.6167  0.0458
19761TIP3   OH280697   4.636   2.431   5.964  0.8601  0.3819 -0.5535
19761TIP3    H180698   4.629   2.503   5.901  0.4903  0.9656  0.1341
19761TIP3    H280699   4.629   2.474   6.050 -1.4745 -0.6682 -0.1565
19762TIP3   OH280700   4.527   2.435   4.826  0.1709  0.8457  0.3560
19762TIP3    H180701   4.554   2.443   4.918 -2.1109  2.6302  0.9535
19762TIP3    H280702   4.480   2.352   4.822  0.2086  0.7954  0.8156
19763TIP3   OH280703   1.385   4.104  11.598  0.1276  0.1976  0.1754
19763TIP3    H180704   1.453   4.055  11.550  0.9303  1.1325  0.3373
19763TIP3    H280705   1.313   4.041  11.607  1.6113 -1.4222  1.5339
19764TIP3   OH280706   2.207   1.985  15.293  0.0107 -1.1262  0.1499
19764TIP3    H180707   2.227   2.036  15.372 -0.3348  1.1405 -1.1511
19764TIP3    H280708   2.248   1.899  15.309 -2.2444 -1.7167  3.8698
19765TIP3   OH280709   4.829   1.910  12.558  0.6447 -0.0714 -0.5192
19765TIP3    H180710   4.744   1.895  12.516  0.6115  0.9350 -0.8374
19765TIP3    H280711   4.861   1.822  12.579 -0.5068 -0.4697 -0.3227
19766TIP3   OH280712   4.087   4.435  16.576  0.7333 -0.0603 -0.2191
19766TIP3    H180713   4.145   4.482  16.636  1.1392  0.0049 -0.6552
19766TIP3    H280714   4.005   4.485  16.577  0.4667 -0.5038  0.8725
19767TIP3   OH280715   2.943   2.460   4.289 -0.3889 -0.0918  0.3675
19767TIP3    H180716   2.893   2.402   4.232  0.6427  0.1400 -0.8281
19767TIP3    H280717   2.996   2.401   4.342  1.2662 -0.3128 -1.4105
19768TIP3   OH280718   5.593   5.320   0.866  0.3375 -0.6564  0.6078
19768TIP3    H180719   5.514   5.374   0.874  0.4471 -0.3921 -0.0488
19768TIP3    H280720   5.615   5.323   0.773  1.4541 -0.2385  0.8727
19769TIP3   OH280721   3.006   5.161  12.516  0.1122  0.2938 -0.3260
19769TIP3    H180722   2.963   5.171  12.601 -0.1755  2.1662 -0.6529
19769TIP3    H280723   2.947   5.204  12.454 -0.4724 -2.3747 -1.7879
19770TIP3   OH280724   5.225   5.154  16.625 -0.1619  0.0698 -0.5140
19770TIP3    H180725   5.253   5.063  16.637  0.3378  0.5405  2.6579
19770TIP3    H280726   5.137   5.157  16.662 -0.1937  0.8547 -0.6299
19771TIP3   OH280727   5.978   5.954  14.890 -0.1640  0.1832 -0.6119
19771TIP3    H180728   5.998   5.970  14.982  0.7632 -1.4512 -0.4951
19771TIP3    H280729   5.998   5.862  14.877 -4.3219 -0.8153 -1.3974
19772TIP3   OH280730   4.171   3.978   4.082 -0.4935 -0.0072  0.1547
19772TIP3    H180731   4.087   3.995   4.039 -1.7183  0.8043  2.7129
19772TIP3    H280732   4.178   3.883   4.084 -2.1220 -0.1323  1.2591
19773TIP3   OH280733   2.652   1.731  13.885  0.2721 -0.2345 -0.1927
19773TIP3    H180734   2.613   1.644  13.878  0.3315 -0.1500 -2.3701
19773TIP3    H280735   2.745   1.715  13.902  0.0420 -0.5407  0.8121
19774TIP3   OH280736   1.544   6.123   1.518  0.5504 -0.5849 -0.0715
19774TIP3    H180737   1.597   6.182   1.572  3.2451 -0.1646 -2.9362
19774TIP3    H280738   1.458   6.165   1.516  1.3809  1.3050  0.9159
19775TIP3   OH280739   4.199   4.082   2.943  0.3452  0.4238 -0.1270
19775TIP3    H180740   4.149   4.036   2.876  0.0694  1.1321 -0.4234
19775TIP3    H280741   4.196   4.025   3.020 -0.4115  0.1887 -0.3306
19776TIP3   OH280742   0.762   3.534  12.828  0.0727 -1.0032  0.2685
19776TIP3    H180743   0.789   3.590  12.756 -0.7000  0.3558  0.9862
19776TIP3    H280744   0.738   3.451  12.787  0.6992 -0.6242 -0.8976
19777TIP3   OH280745   2.059   5.929  12.816 -0.1581  0.1950 -0.3129
19777TIP3    H180746   2.135   5.981  12.841  0.7674  0.5355 -3.4193
19777TIP3    H280747   2.080   5.840  12.844  0.3660  0.6472  0.7859
19778TIP3   OH280748   2.586   5.164   3.613 -0.7014 -0.2040  0.2956
19778TIP3    H180749   2.675   5.149   3.644  0.4580  0.3656 -2.4302
19778TIP3    H280750   2.592   5.243   3.559 -3.3857  1.1914  1.8252
19779TIP3   OH280751   4.073   3.513  12.468  0.6098  0.1961 -0.4077
19779TIP3    H180752   4.105   3.521  12.558  1.4099  2.0424 -0.8235
19779TIP3    H280753   4.142   3.465  12.422  0.8039  0.4107 -0.3405
19780TIP3   OH280754   3.053   5.066   2.029  0.2330  0.1133  0.0349
19780TIP3    H180755   3.035   5.160   2.019  0.6371  0.2386  0.4781
19780TIP3    H280756   3.148   5.061   2.037  0.0400  0.1298  4.6870
19781TIP3   OH280757   0.915   4.118  14.089 -0.6179  0.2960  0.4722
19781TIP3    H180758   0.991   4.081  14.043  0.3876  1.9663  0.6989
19781TIP3    H280759   0.847   4.123  14.022  0.3545  1.3151 -0.4946
19782TIP3   OH280760   3.962   2.868  12.006  0.1217 -0.1450  0.0784
19782TIP3    H180761   4.019   2.860  11.929  0.4929 -1.4208  0.4632
19782TIP3    H280762   3.879   2.830  11.978  0.0369  0.0218  0.1010
19783TIP3   OH280763   6.018   4.438   0.699 -0.7650  0.4030  0.0505
19783TIP3    H180764   6.071   4.512   0.728  1.2294 -0.9297  0.0274
19783TIP3    H280765   6.018   4.444   0.603  2.7831 -1.6379 -0.2727
19784TIP3   OH280766   1.236   6.291   4.047 -0.1094 -0.1661 -0.8651
19784TIP3    H180767   1.316   6.329   4.009  0.3582 -0.7007 -0.4283
19784TIP3    H280768   1.180   6.274   3.971 -0.2703  1.2220 -1.0947
19785TIP3   OH280769   3.393   1.313   1.453  0.2822 -0.2481 -0.0913
19785TIP3    H180770   3.356   1.383   1.508 -1.1547 -1.5466  0.6588
19785TIP3    H280771   3.431   1.251   1.514 -0.2775 -1.1355 -0.6204
19786TIP3   OH280772   4.710   0.391  11.648 -0.2938  0.5569 -0.0517
19786TIP3    H180773   4.716   0.335  11.571 -0.0358  0.8527 -0.2500
19786TIP3    H280774   4.619   0.421  11.649 -0.7120 -0.6689  0.6338
19787TIP3   OH280775   1.434   1.074  14.860 -0.3751 -0.4967 -0.3711
19787TIP3    H180776   1.415   1.156  14.906 -0.5765 -1.0801  0.6003
19787TIP3    H280777   1.491   1.100  14.788  0.6868  0.3068  0.7266
19788TIP3   OH280778   1.603   0.036   1.284  0.1750  0.2672  0.1932
19788TIP3    H180779   1.558   0.075   1.209 -1.2616 -0.0923  0.8292
19788TIP3    H280780   1.570  -0.054   1.287  0.7307  0.0780  0.8578
19789TIP3   OH280781   4.954   2.845   4.632  0.1087 -0.3490 -0.2073
19789TIP3    H180782   4.950   2.761   4.678 -1.0108 -0.0034  0.3797
19789TIP3    H280783   4.945   2.911   4.702  0.0182  0.2261 -0.7535
19790TIP3   OH280784   0.282   2.211  14.779  0.1627  0.1110  0.0965
19790TIP3    H180785   0.369   2.250  14.771 -0.1931  0.7632 -0.6935
19790TIP3    H280786   0.225   2.267  14.726 -0.6152 -0.7049  0.0417
19791TIP3   OH280787   3.792   0.577   2.981  0.2264 -0.6084 -0.1731
19791TIP3    H180788   3.744   0.523   2.918 -0.8961  2.0726 -1.7877
19791TIP3    H280789   3.741   0.658   2.988  2.0961  0.5233  1.6847
19792TIP3   OH280790   2.816   3.107  11.633 -0.5032 -0.0232  0.0722
19792TIP3    H180791   2.829   3.016  11.606  1.7533  0.3641 -0.3651
19792TIP3    H280792   2.838   3.158  11.554 -0.8819  0.9187  0.5659
19793TIP3   OH280793   5.248   2.133   5.412  0.3491 -0.3120 -0.3879
19793TIP3    H180794   5.172   2.087   5.376 -0.7869  1.8060 -0.8510
19793TIP3    H280795   5.222   2.156   5.502  1.2989 -1.4063  0.1894
19794TIP3   OH280796   5.558   1.822   0.757 -0.5296 -0.4025 -0.2084
19794TIP3    H180797   5.644   1.784   0.738  0.0093  0.4865  0.3499
19794TIP3    H280798   5.497   1.772   0.704  0.4380 -0.5253 -1.2438
19795TIP3   OH280799   0.989   1.666   5.293  0.3665  0.4870 -0.4889
19795TIP3    H180800   1.075   1.627   5.306 -0.5559 -1.1276  1.2774
19795TIP3    H280801   0.979   1.728   5.364 -0.5109 -0.4943  0.2745
19796TIP3   OH280802   2.680   1.524  13.148  0.3847  0.2189  0.4429
19796TIP3    H180803   2.600   1.570  13.173  0.6586 -0.2546  2.3619
19796TIP3    H280804   2.652   1.435  13.127  0.0400  0.8218 -1.9556
19797TIP3   OH280805   2.334   0.013  15.341 -0.0021 -0.7197 -0.0163
19797TIP3    H180806   2.379  -0.030  15.414  0.3857  1.1539  0.9188
19797TIP3    H280807   2.246   0.032  15.374  0.5555  1.2506  0.5050
19798TIP3   OH280808   5.604   0.031  12.796 -0.1565 -0.6092  1.1567
19798TIP3    H180809   5.699   0.039  12.796 -0.1565  0.2780  3.3265
19798TIP3    H280810   5.587  -0.061  12.813  0.2598 -1.0537 -0.6763
19799TIP3   OH280811   2.887   1.949  16.541 -0.0757  0.5548  0.6925
19799TIP3    H180812   2.841   1.961  16.625 -0.6241 -0.7010  0.5974
19799TIP3    H280813   2.818   1.957  16.475  0.2726  1.0634  0.3845
19800TIP3   OH280814   2.298   0.514   6.248 -0.2078  0.0882 -0.2792
19800TIP3    H180815   2.377   0.514   6.302 -2.0609 -0.0470  2.6265
19800TIP3    H280816   2.308   0.590   6.191  1.6048  0.6255  0.6773
19801TIP3   OH280817   1.625   3.264  14.691  0.2945  0.8970 -0.2371
19801TIP3    H180818   1.634   3.326  14.764  0.8798  0.3159  0.1912
19801TIP3    H280819   1.570   3.310  14.628  0.8905  1.9441 -0.0201
19802TIP3   OH280820   4.780   4.867  17.134 -0.1957 -0.0824  0.5806
19802TIP3    H180821   4.785   4.958  17.165 -0.7579 -0.5000  1.9958
19802TIP3    H280822   4.762   4.874  17.041 -0.0659  1.2691  0.6387
19803TIP3   OH280823   2.476   3.733  14.538  0.2525  0.0107  0.7020
19803TIP3    H180824   2.481   3.829  14.542  1.5060  0.1709 -2.2649
19803TIP3    H280825   2.420   3.709  14.612 -1.9534  3.1862  0.2744
19804TIP3   OH280826   2.095   3.555  16.701  0.2455  0.0399  0.4323
19804TIP3    H180827   2.072   3.638  16.660  0.7723 -0.3012 -0.5868
19804TIP3    H280828   2.053   3.559  16.787 -0.3882  1.0242  0.1017
19805TIP3   OH280829   6.303   5.478  15.699  0.1380  0.0108 -0.0510
19805TIP3    H180830   6.357   5.556  15.712  0.0375  0.1918 -0.6980
19805TIP3    H280831   6.248   5.474  15.777  0.4931  0.3018  0.2191
19806TIP3   OH280832   5.406   5.776  12.262 -0.0670  0.7083 -0.4091
19806TIP3    H180833   5.383   5.787  12.170 -0.7463 -1.3382 -0.5303
19806TIP3    H280834   5.420   5.681  12.272  0.2815  0.9245  1.5251
19807TIP3   OH280835   2.535   0.101   0.969 -0.2070  0.4462  0.4676
19807TIP3    H180836   2.518   0.153   1.048  0.0073 -0.6983  1.2898
19807TIP3    H280837   2.454   0.053   0.954 -0.1167  0.3779  0.2012
19808TIP3   OH280838   6.328   4.348   4.174  0.4049  0.0322  0.0456
19808TIP3    H180839   6.242   4.381   4.199  0.6456 -0.1527  1.1815
19808TIP3    H280840   6.310   4.282   4.108 -0.4195 -0.7810  1.0534
19809TIP3   OH280841   4.407   3.849   2.356 -0.1033 -0.5402 -0.0277
19809TIP3    H180842   4.446   3.889   2.278 -1.7509  0.3099 -0.4671
19809TIP3    H280843   4.328   3.806   2.324 -0.5462 -0.6090  1.1019
19810TIP3   OH280844   3.800   4.372   4.768 -0.2109 -0.3182 -0.2943
19810TIP3    H180845   3.891   4.359   4.795  0.8151  0.4713 -3.0403
19810TIP3    H280846   3.772   4.287   4.736  0.4467 -0.0422 -1.6957
19811TIP3   OH280847   4.934   2.461   2.843 -0.2852 -0.3058 -0.5919
19811TIP3    H180848   4.955   2.371   2.819 -1.0918 -0.8695  0.6890
19811TIP3    H280849   4.969   2.514   2.772  1.2356 -1.5367 -0.8140
19812TIP3   OH280850   6.398   2.998  11.222 -0.0360 -0.0252  0.2131
19812TIP3    H180851   6.406   3.093  11.234  1.2249  0.2318 -2.0388
19812TIP3    H280852   6.315   2.987  11.174 -0.5479 -0.1568  1.1104
19813TIP3   OH280853   3.637   4.561   0.057 -0.0486 -0.5737  0.0769
19813TIP3    H180854   3.677   4.521  -0.020 -2.7235  1.7414 -2.8041
19813TIP3    H280855   3.645   4.656   0.043  0.3833  0.0172  3.3392
19814TIP3   OH280856   5.490   1.760   3.583  0.5164 -0.2318 -0.0660
19814TIP3    H180857   5.426   1.692   3.607  2.6278 -2.0726  0.6321
19814TIP3    H280858   5.463   1.789   3.496 -0.2998 -2.1656 -0.4976
19815TIP3   OH280859   6.638   1.100  14.858  0.2315  0.0497  0.4809
19815TIP3    H180860   6.705   1.079  14.793  0.2905  0.1612  0.5067
19815TIP3    H280861   6.687   1.113  14.939  0.2144  0.5195  0.4140
19816TIP3   OH280862   6.728   1.747  14.424  0.6120 -0.9223 -0.4450
19816TIP3    H180863   6.716   1.747  14.329 -0.3743  0.1160 -0.3489
19816TIP3    H280864   6.822   1.732  14.437  1.2647  1.5179 -1.6889
19817TIP3   OH280865   2.734   6.176   3.634  0.3888  0.3714  0.2643
19817TIP3    H180866   2.667   6.176   3.702  0.6092  0.7177  0.4908
19817TIP3    H280867   2.698   6.124   3.563 -0.0537  0.4272  0.4491
19818TIP3   OH280868   5.290   3.907   0.779  0.3513  0.4968 -0.1386
19818TIP3    H180869   5.222   3.974   0.785  0.1343  0.3067 -0.4174
19818TIP3    H280870   5.303   3.895   0.685 -0.7421 -0.9747 -0.1389
19819TIP3   OH280871   3.241   3.830  14.125 -0.1445  0.0031  0.4090
19819TIP3    H180872   3.197   3.861  14.046  1.0432  0.4947 -0.0911
19819TIP3    H280873   3.235   3.734  14.120  1.0747 -0.0443 -1.0203
19820TIP3   OH280874   6.190   1.874   4.689  0.4993  0.0284  0.8053
19820TIP3    H180875   6.180   1.895   4.596 -0.9012 -0.9662  0.7116
19820TIP3    H280876   6.251   1.801   4.690 -0.1916 -0.5620  0.5847
19821TIP3   OH280877   4.890   6.238   5.818 -0.5195  0.4305  0.4618
19821TIP3    H180878   4.938   6.286   5.885  1.0710 -0.6676  0.1539
19821TIP3    H280879   4.924   6.149   5.823 -2.2478 -0.2881 -0.0685
19822TIP3   OH280880   2.177   4.364  12.100 -0.5436 -0.1809 -0.5971
19822TIP3    H180881   2.255   4.324  12.138 -2.1339 -2.5743  0.3403
19822TIP3    H280882   2.165   4.445  12.150  0.9616 -0.0788 -0.3518
19823TIP3   OH280883   3.170   5.582  15.314  0.0664 -0.0098 -0.8000
19823TIP3    H180884   3.173   5.631  15.396 -0.8541 -0.5237 -0.4364
19823TIP3    H280885   3.248   5.610  15.266  0.9769 -0.1626  0.5157
19824TIP3   OH280886   4.046   1.105   2.686  0.0261 -0.2199 -0.3584
19824TIP3    H180887   4.107   1.115   2.758  0.4334 -3.7623 -0.0407
19824TIP3    H280888   3.965   1.074   2.726  0.3112 -2.4170 -1.3361
19825TIP3   OH280889   6.501   0.107   5.353  0.1092 -0.4895  0.3057
19825TIP3    H180890   6.570   0.160   5.312 -1.7060  0.7232 -1.3682
19825TIP3    H280891   6.420   0.156   5.336 -1.1433 -1.5466  2.7159
19826TIP3   OH280892   3.966   1.854  14.437 -0.0238  0.0715  0.4057
19826TIP3    H180893   4.027   1.802  14.384 -0.3295 -1.5278  1.5673
19826TIP3    H280894   3.973   1.817  14.525 -1.1133  1.2784  1.0297
19827TIP3   OH280895   2.344   3.319  11.839 -0.4809 -0.6005  0.0505
19827TIP3    H180896   2.409   3.293  11.774 -0.6827 -1.5029  0.2011
19827TIP3    H280897   2.320   3.238  11.884 -3.6908 -0.8409 -1.7768
19828TIP3   OH280898   2.574   1.803  14.811 -0.1391  0.3461  0.5319
19828TIP3    H180899   2.641   1.834  14.750  0.9401  0.7195  1.8593
19828TIP3    H280900   2.622   1.785  14.891 -1.7688  1.4486  1.8075
19829TIP3   OH280901   0.664   4.426   4.100  0.6132 -0.0301 -0.1646
19829TIP3    H180902   0.616   4.478   4.164 -0.2224  0.3089 -1.0332
19829TIP3    H280903   0.723   4.489   4.058  1.3581 -0.3077  0.4541
19830TIP3   OH280904   1.636   5.085  15.490  0.3365  0.1819  0.0619
19830TIP3    H180905   1.585   5.042  15.558  1.3839  0.9336  1.3705
19830TIP3    H280906   1.658   5.170  15.527 -0.3234  1.2293 -1.8213
19831TIP3   OH280907   4.850   6.624  16.190 -0.9983  0.1392  0.5936
19831TIP3    H180908   4.866   6.629  16.096  0.6971 -2.2404  0.6707
19831TIP3    H280909   4.767   6.670  16.203 -0.7705  1.4004 -1.8886
19832TIP3   OH280910   3.259   0.231  14.969  0.2735  0.2244  0.0683
19832TIP3    H180911   3.267   0.264  14.879 -0.4847 -0.0669 -0.1157
19832TIP3    H280912   3.349   0.225  15.001  0.6414 -0.7281 -1.0585
19833TIP3   OH280913   6.647   2.784  14.321 -0.3765 -0.3140 -0.0766
19833TIP3    H180914   6.573   2.756  14.267 -0.4691 -0.9850  0.3883
19833TIP3    H280915   6.663   2.875  14.295 -1.0939 -0.2993 -0.4763
19834TIP3   OH280916   0.736   4.861  13.763 -0.5315 -0.3506 -0.4612
19834TIP3    H180917   0.717   4.786  13.820 -0.4959  1.0408  1.4782
19834TIP3    H280918   0.650   4.892  13.735 -0.5853 -0.5003 -0.4668
19835TIP3   OH280919   4.792   5.774  13.416 -0.1867  0.0627  0.3850
19835TIP3    H180920   4.707   5.802  13.383 -0.0975 -1.4629 -1.3258
19835TIP3    H280921   4.810   5.692  13.370  1.3581 -0.6549  2.1276
19836TIP3   OH280922   0.204   1.290  15.722 -0.9920 -0.1720 -0.0392
19836TIP3    H180923   0.263   1.358  15.688 -1.9970  0.1428 -1.2825
19836TIP3    H280924   0.251   1.251  15.795  0.9859 -0.3137 -1.3030
19837TIP3   OH280925   6.635   5.354  16.715 -0.3523 -0.2725  0.0926
19837TIP3    H180926   6.620   5.354  16.620  1.4853  1.8214 -0.3056
19837TIP3    H280927   6.696   5.281  16.730 -0.2232 -0.2818 -0.4523
19838TIP3   OH280928   6.166   4.580   1.448 -0.1644 -0.4207  0.0917
19838TIP3    H180929   6.151   4.674   1.461 -0.1571 -0.2401 -1.1045
19838TIP3    H280930   6.259   4.568   1.466 -0.4239 -0.4587  1.5636
19839TIP3   OH280931   1.391   3.697   0.243 -0.4329 -0.0440 -0.2022
19839TIP3    H180932   1.337   3.742   0.308 -0.3144 -0.7938  0.4216
19839TIP3    H280933   1.338   3.624   0.214  0.6867 -1.5547  1.3559
19840TIP3   OH280934   2.872   1.568  11.627  0.1639 -0.0918  0.6641
19840TIP3    H180935   2.810   1.627  11.670  0.9878  0.8774  0.5527
19840TIP3    H280936   2.879   1.493  11.686 -0.0515  0.4271  1.3619
19841TIP3   OH280937   0.275   4.366  16.725 -0.4171 -0.0859  0.3246
19841TIP3    H180938   0.335   4.324  16.664 -1.0136  0.5792 -0.7412
19841TIP3    H280939   0.277   4.459  16.702 -0.4560  0.2275  1.4905
19842TIP3   OH280940   0.907   1.544  14.107 -0.2876 -0.1191  0.7300
19842TIP3    H180941   0.831   1.603  14.102 -0.2104 -0.1130 -1.4051
19842TIP3    H280942   0.868   1.456  14.112 -0.4179 -0.0207  1.4834
19843TIP3   OH280943   3.764   4.121   0.842 -0.1316 -0.1028 -0.1057
19843TIP3    H180944   3.852   4.156   0.830 -1.5398  3.4679 -1.4952
19843TIP3    H280945   3.717   4.144   0.761 -3.1297  1.0235  1.7760
19844TIP3   OH280946   0.294   1.891   0.206  0.7401  0.5868 -0.5294
19844TIP3    H180947   0.377   1.857   0.172  0.5562  1.0405 -1.4607
19844TIP3    H280948   0.259   1.944   0.135  0.4883  1.8384  0.5024
19845TIP3   OH280949   0.907   1.609   3.507  0.0893 -0.2168 -0.0822
19845TIP3    H180950   1.002   1.606   3.517  0.1517  1.1558 -0.1358
19845TIP3    H280951   0.873   1.579   3.592  0.5583 -0.9196 -0.1399
19846TIP3   OH280952   5.463   5.656   1.154 -0.2024 -0.2848 -0.1395
19846TIP3    H180953   5.546   5.639   1.198 -1.3123  0.3504  2.3949
19846TIP3    H280954   5.396   5.628   1.217 -1.9308  0.8974 -1.3440
19847TIP3   OH280955   0.899   0.382  12.555 -0.0859  0.3361 -0.1014
19847TIP3    H180956   0.905   0.397  12.649 -0.3096  0.7461 -0.1456
19847TIP3    H280957   0.970   0.321  12.535 -0.2541 -0.0230  0.3854
19848TIP3   OH280958   0.040   2.852  13.244  0.2292  0.1956 -0.4481
19848TIP3    H180959  -0.044   2.853  13.289 -0.8776 -1.2867 -2.3350
19848TIP3    H280960   0.022   2.812  13.159  2.4532  1.7368 -1.7524
19849TIP3   OH280961   4.299   5.577   4.549  0.0943 -0.3074 -0.0576
19849TIP3    H180962   4.249   5.657   4.532  2.2932  0.8357 -1.6239
19849TIP3    H280963   4.340   5.591   4.634 -0.2080 -0.1648  0.0679
19850TIP3   OH280964   0.238   0.306   6.024  0.1237  0.3290  0.1668
19850TIP3    H180965   0.307   0.242   6.006  0.0801  0.1048  0.7656
19850TIP3    H280966   0.269   0.353   6.102 -0.7801 -0.3632  0.9714
19851TIP3   OH280967   0.940   0.736   0.893  0.4007  0.4710  0.1358
19851TIP3    H180968   1.031   0.741   0.864  0.5745  0.7454  0.7223
19851TIP3    H280969   0.924   0.818   0.940  0.5095 -0.4580  1.8948
19852TIP3   OH280970   3.687   1.655  12.191 -0.4488  0.7351  0.2511
19852TIP3    H180971   3.669   1.683  12.102  0.2940 -1.5397 -0.6875
19852TIP3    H280972   3.606   1.674  12.239 -1.2811  0.9080 -1.1864
19853TIP3   OH280973   6.097   6.754  16.583  0.9136  0.6920  0.3613
19853TIP3    H180974   6.141   6.826  16.537  0.3733  1.4302  0.9598
19853TIP3    H280975   6.006   6.783  16.591  1.1223  0.9679  2.5380
19854TIP3   OH280976   1.058   3.268   1.571 -0.2582  0.0514 -0.5145
19854TIP3    H180977   1.027   3.258   1.660  0.4264 -0.5487 -0.3393
19854TIP3    H280978   1.150   3.242   1.574  0.1716  1.3770 -1.1047
19855TIP3   OH280979   4.038   5.517   4.421  0.5565  0.1932  0.2922
19855TIP3    H180980   4.118   5.521   4.474  0.0332 -0.8701  1.2032
19855TIP3    H280981   4.069   5.526   4.331  1.6939 -0.0481  0.6392
19856TIP3   OH280982   4.768   5.422   3.662  0.2652 -0.1758 -0.3611
19856TIP3    H180983   4.833   5.490   3.641 -0.7818  0.8090 -0.5115
19856TIP3    H280984   4.820   5.345   3.684  1.5025  0.8037  0.2549
19857TIP3   OH280985   1.525   6.563  14.786 -0.4361  0.4303 -0.6003
19857TIP3    H180986   1.557   6.602  14.868  1.4713 -1.3700 -0.4147
19857TIP3    H280987   1.506   6.638  14.730 -2.2547  1.7336  1.6068
19858TIP3   OH280988   3.576   3.395  11.617  0.2780  0.1372  0.1855
19858TIP3    H180989   3.671   3.394  11.627  0.3293 -0.3597 -0.3356
19858TIP3    H280990   3.545   3.455  11.685  0.9097 -0.2286  0.8019
19859TIP3   OH280991   2.238   2.954  16.370 -0.3526  0.1480 -0.6385
19859TIP3    H180992   2.233   2.868  16.329  0.6905  0.1847 -0.8533
19859TIP3    H280993   2.190   3.012  16.310 -2.8511 -0.5905  0.4899
19860TIP3   OH280994   2.309   5.371   0.097  0.2898  0.2265 -0.1710
19860TIP3    H180995   2.306   5.467   0.094 -2.2224  0.1902 -0.5514
19860TIP3    H280996   2.224   5.345   0.134  0.7270 -1.8791 -0.5192
19861TIP3   OH280997   3.407   2.154  13.734  0.5785  0.0505 -0.2358
19861TIP3    H180998   3.460   2.207  13.793  0.4422 -0.0446 -0.0254
19861TIP3    H280999   3.332   2.210  13.712 -0.0835 -0.4020  0.7797
19862TIP3   OH281000   2.055   1.520   4.193 -0.1078 -0.3554  0.1493
19862TIP3    H181001   1.968   1.499   4.161  0.3459 -2.3620  0.1084
19862TIP3    H281002   2.042   1.548   4.284 -0.8003 -0.3642  0.0512
19863TIP3   OH281003   3.804   3.160  16.857 -0.4388  0.4487  0.2041
19863TIP3    H181004   3.812   3.065  16.846  0.2424  0.5088  0.1147
19863TIP3    H281005   3.711   3.178  16.848 -0.7187 -0.3518  1.3200
19864TIP3   OH281006   0.975   2.895  16.478 -0.7844 -0.2000  0.5089
19864TIP3    H181007   1.040   2.856  16.536 -0.5511 -0.2022  0.2440
19864TIP3    H281008   0.897   2.842  16.491 -0.4547 -0.7907  0.1088
19865TIP3   OH281009   6.780   4.285  14.688  0.2605  0.3582  0.2111
19865TIP3    H181010   6.746   4.212  14.636  0.6151  0.6320 -0.4269
19865TIP3    H281011   6.703   4.327  14.725  0.1125 -1.3501  2.0230
19866TIP3   OH281012   6.035   4.999  15.145 -0.8317 -0.1568 -0.0093
19866TIP3    H181013   6.119   5.038  15.169 -1.4757  0.8845  0.6075
19866TIP3    H281014   5.981   5.073  15.118 -1.5841 -0.8032 -0.3042
19867TIP3   OH281015   3.200   2.620  16.963  0.0323  0.5218  0.0524
19867TIP3    H181016   3.230   2.624  17.053 -1.5586  1.0258  0.5900
19867TIP3    H281017   3.241   2.541  16.927 -1.9920 -1.7109  2.2716
19868TIP3   OH281018   6.373   2.391  16.088  0.4676 -0.8770  0.0083
19868TIP3    H181019   6.282   2.364  16.072  0.7162 -1.7516  0.0454
19868TIP3    H281020   6.368   2.445  16.167 -0.1039 -0.3858 -0.3493
19869TIP3   OH281021   0.765   3.093  11.238 -0.1835 -0.1389 -0.6067
19869TIP3    H181022   0.818   3.014  11.227 -0.3006 -0.3782  0.5106
19869TIP3    H281023   0.828   3.165  11.242 -0.1069 -0.0433 -2.4667
19870TIP3   OH281024   3.218   3.514   2.529  0.6137 -0.0984 -0.3953
19870TIP3    H181025   3.162   3.460   2.473 -0.2113 -1.8308  1.9495
19870TIP3    H281026   3.164   3.589   2.554  1.1581  0.9699 -2.1971
19871TIP3   OH281027   1.169   0.776  12.299 -0.1369  0.1044 -0.4127
19871TIP3    H181028   1.132   0.744  12.381 -0.1770 -0.1257 -0.5183
19871TIP3    H281029   1.103   0.753  12.233  0.7178 -1.4381 -0.7908
19872TIP3   OH281030   3.493   0.571  14.187 -0.2761 -0.0131 -0.5312
19872TIP3    H181031   3.566   0.603  14.134 -0.4639  0.4115 -0.5425
19872TIP3    H281032   3.421   0.632  14.168 -0.6276 -0.4114 -0.5086
19873TIP3   OH281033   5.083   0.230  11.984 -0.4607 -0.0667  1.0156
19873TIP3    H181034   5.120   0.288  12.051 -2.4231  1.0915  1.1751
19873TIP3    H281035   5.050   0.155  12.033 -1.3516  0.4973  1.3067
19874TIP3   OH281036   1.525   3.001  11.904 -0.3940  0.0075 -0.2176
19874TIP3    H181037   1.595   3.045  11.855 -0.7849 -0.0822 -0.8727
19874TIP3    H281038   1.445   3.041  11.871 -0.7235 -0.7790 -0.3949
19875TIP3   OH281039   6.691   0.238  12.956  0.2165 -0.0830  0.2047
19875TIP3    H181040   6.730   0.284  13.030 -2.4122  1.7264  0.5793
19875TIP3    H281041   6.708   0.294  12.881  1.7194 -1.2707 -0.3957
19876TIP3   OH281042   2.228   1.774   2.429 -0.2998 -0.6498 -0.9438
19876TIP3    H181043   2.133   1.782   2.432 -0.5230 -2.8281  0.6224
19876TIP3    H281044   2.260   1.825   2.503 -0.4291 -1.3945 -0.3620
19877TIP3   OH281045   6.417   3.253  16.962 -0.3286 -0.4448  0.3873
19877TIP3    H181046   6.343   3.194  16.945  0.4904 -1.1490 -0.9382
19877TIP3    H281047   6.404   3.283  17.052 -1.3180 -1.8955  0.7670
19878TIP3   OH281048   3.480   4.737  13.809 -0.4405  0.5075  0.8567
19878TIP3    H181049   3.567   4.698  13.809 -0.3754  0.2414 -3.1766
19878TIP3    H281050   3.440   4.707  13.890  2.8859 -0.0205  2.4540
19879TIP3   OH281051   1.758   2.869  17.002 -0.0126 -0.4541  0.3499
19879TIP3    H181052   1.813   2.935  17.043 -0.5693 -0.4568  1.1150
19879TIP3    H281053   1.803   2.786  17.018  1.0376 -0.2374 -1.1838
19880TIP3   OH281054   0.218   3.336  14.432  0.3701 -0.1326  0.4707
19880TIP3    H181055   0.240   3.412  14.379 -0.9713  0.6115  0.9504
19880TIP3    H281056   0.200   3.266  14.368 -2.0429  0.9642 -0.1374
19881TIP3   OH281057   2.151   0.728  13.382 -0.2356  0.3716  0.2693
19881TIP3    H181058   2.218   0.696  13.322 -1.7064 -1.6954 -0.3775
19881TIP3    H281059   2.071   0.729  13.330 -0.8473  2.3383  1.1524
19882TIP3   OH281060   0.338   1.981   4.602 -0.5210  0.0041 -1.1301
19882TIP3    H181061   0.339   1.908   4.665  2.9316  1.1599  0.4321
19882TIP3    H281062   0.355   2.059   4.655  2.8518  1.0194 -3.3379
19883TIP3   OH281063   5.554   2.338  16.738  0.1275 -1.0044  0.1315
19883TIP3    H181064   5.480   2.277  16.733  0.1363 -1.0231  0.2375
19883TIP3    H281065   5.583   2.347  16.647 -0.9789  0.2068 -0.1432
19884TIP3   OH281066   4.601   4.521   1.119 -0.0087 -0.1932  0.0864
19884TIP3    H181067   4.576   4.613   1.108  0.9437  0.0509 -0.1531
19884TIP3    H281068   4.694   4.524   1.140 -0.4949 -0.9523  2.7298
19885TIP3   OH281069   2.333   1.459   1.287 -0.3295 -0.4022 -0.6535
19885TIP3    H181070   2.253   1.422   1.249  0.7209 -3.3327 -0.2953
19885TIP3    H281071   2.349   1.406   1.365  0.5393  1.9039  0.8148
19886TIP3   OH281072   6.679   1.055  13.217 -0.0505 -0.2820  0.1474
19886TIP3    H181073   6.765   1.074  13.177  0.2104 -1.0589  0.3161
19886TIP3    H281074   6.662   1.130  13.273  0.7617 -0.3441  0.4958
19887TIP3   OH281075   6.761   0.602   1.281  0.5290  0.7016  0.6008
19887TIP3    H181076   6.772   0.586   1.375  0.7511 -0.5719  0.3796
19887TIP3    H281077   6.819   0.538   1.239 -0.3881  0.5095 -0.4168
19888TIP3   OH281078   4.780   0.885   0.657 -0.9334 -0.3635  0.5737
19888TIP3    H181079   4.723   0.933   0.716 -0.0243  0.4637  0.8056
19888TIP3    H281080   4.759   0.793   0.673 -2.5983 -0.0675  0.2216
19889TIP3   OH281081   0.267   3.810  14.664  0.2582 -0.3648 -0.1843
19889TIP3    H181082   0.314   3.839  14.742  0.5391  1.1414 -0.8719
19889TIP3    H281083   0.294   3.719  14.651 -0.5664 -0.9756  2.0087
19890TIP3   OH281084   0.057   5.305  15.685  0.2616  0.3339  0.1389
19890TIP3    H181085   0.049   5.366  15.758  0.6224  0.4324  0.0970
19890TIP3    H281086  -0.003   5.339  15.619  0.1346  0.3969  0.2866
19891TIP3   OH281087   6.716   4.623  16.127 -0.2064 -0.2959 -0.3295
19891TIP3    H181088   6.655   4.697  16.120 -0.7812 -0.5676  1.3640
19891TIP3    H281089   6.788   4.656  16.181 -0.3014 -0.8546  0.1466
19892TIP3   OH281090   2.825   5.797   4.387 -0.0316  0.7185  0.7139
19892TIP3    H181091   2.876   5.734   4.338 -0.9839  0.1948  0.3786
19892TIP3    H281092   2.839   5.880   4.342  1.7314  0.9183  1.5268
19893TIP3   OH281093   2.443   0.153  14.349 -0.2143  0.1529 -0.7385
19893TIP3    H181094   2.398   0.069  14.341 -0.0058  0.1449 -1.8903
19893TIP3    H281095   2.462   0.180  14.259 -0.6358  1.6341 -0.4094
19894TIP3   OH281096   1.169   2.033  15.367  0.1209 -0.3847  0.4272
19894TIP3    H181097   1.242   1.970  15.368 -0.2956 -0.9018  2.3004
19894TIP3    H281098   1.158   2.059  15.458 -1.5581  0.2623  0.0822
19895TIP3   OH281099   5.350   4.203  10.753  1.2564 -0.0956  0.3474
19895TIP3    H181100   5.278   4.265  10.751  0.7534 -0.6797 -0.2522
19895TIP3    H281101   5.379   4.197  10.662  0.1149 -2.0482  0.0353
19896TIP3   OH281102   0.538   4.667   3.894 -0.5417 -0.5536  0.2156
19896TIP3    H181103   0.625   4.634   3.915  0.1529  1.1913  0.2835
19896TIP3    H281104   0.487   4.651   3.973  0.1040 -0.3882  0.6791
19897TIP3   OH281105   3.140   3.502   5.488 -0.1543 -0.3871  0.0667
19897TIP3    H181106   3.175   3.421   5.525 -0.4890 -0.2369  0.7258
19897TIP3    H281107   3.045   3.493   5.496 -0.1829  1.0845  2.4611
19898TIP3   OH281108   1.448   0.876   2.853  0.1122 -0.6218  0.4041
19898TIP3    H181109   1.513   0.826   2.803 -0.7156 -0.3811 -0.9833
19898TIP3    H281110   1.364   0.853   2.812 -0.5303  0.0790  1.2922
19899TIP3   OH281111   5.495   0.211   5.021  0.1240  0.1830 -0.2177
19899TIP3    H181112   5.565   0.147   5.010 -0.9275 -0.7323 -1.9425
19899TIP3    H281113   5.424   0.180   4.965 -1.2113  1.7541  0.5048
19900TIP3   OH281114   3.409   2.007  15.768 -0.5410 -0.4290  0.3607
19900TIP3    H181115   3.382   2.097  15.786  1.5812  0.6678 -1.3390
19900TIP3    H281116   3.337   1.953  15.800 -1.5517  1.8022  2.1477
19901TIP3   OH281117   0.640   0.342   5.771 -0.4598  0.0695 -0.1228
19901TIP3    H181118   0.732   0.315   5.766  0.4074  2.4565  1.1319
19901TIP3    H281119   0.620   0.374   5.683 -0.3248 -1.1074 -0.5912
19902TIP3   OH281120   5.347   6.282  14.963  1.1490  0.1020 -0.0094
19902TIP3    H181121   5.322   6.326  14.882  0.9640 -0.2415 -0.1369
19902TIP3    H281122   5.268   6.234  14.990  1.5233 -0.6094 -0.1637
19903TIP3   OH281123   0.023   4.854  15.798  0.5235 -0.3053  0.3520
19903TIP3    H181124   0.084   4.832  15.869  1.0623  3.1492  1.1600
19903TIP3    H281125   0.076   4.902  15.735 -0.7769  0.2628 -0.3445
19904TIP3   OH281126   5.653   5.005  12.722  0.0601 -0.2478  0.1595
19904TIP3    H181127   5.586   5.029  12.657 -0.2166 -0.9716  0.1744
19904TIP3    H281128   5.711   5.081  12.725  0.3986 -0.3978 -1.3603
19905TIP3   OH281129   3.131   1.233   3.716 -0.4331  0.3728 -0.2715
19905TIP3    H181130   3.087   1.172   3.775  0.5901 -1.6551 -1.4896
19905TIP3    H281131   3.209   1.261   3.765  1.6577 -3.0793 -1.3203
19906TIP3   OH281132   6.133   0.956   4.312  0.3487 -0.4615 -0.4510
19906TIP3    H181133   6.058   0.954   4.252  0.6775  0.3676 -0.9218
19906TIP3    H281134   6.196   0.895   4.274 -0.8817 -2.8680  1.1175
19907TIP3   OH281135   0.303   1.003   3.254  0.4347 -0.3751 -0.1390
19907TIP3    H181136   0.331   1.075   3.197 -0.6086 -0.2013 -0.4491
19907TIP3    H281137   0.290   1.043   3.340  2.6654 -0.7608  0.4464
19908TIP3   OH281138   1.629   5.289   4.357  0.2928 -0.2981 -0.0972
19908TIP3    H181139   1.608   5.233   4.432  1.8866 -1.1954 -0.2850
19908TIP3    H281140   1.548   5.291   4.306 -0.8047  0.2753  1.5840
19909TIP3   OH281141   6.508   5.995   5.445 -0.0424  0.1360  0.2781
19909TIP3    H181142   6.429   6.047   5.455 -0.2671 -0.2290  0.4169
19909TIP3    H281143   6.559   6.041   5.378 -0.9012 -0.2686 -0.6622
19910TIP3   OH281144   3.617   4.742  16.556  0.4084  0.8593  0.0694
19910TIP3    H181145   3.583   4.775  16.473  1.6825 -0.0827 -0.8763
19910TIP3    H281146   3.712   4.754  16.550  0.4925  1.2434  1.6245
19911TIP3   OH281147   3.869   6.772   5.198  0.3564 -0.1312  0.0211
19911TIP3    H181148   3.817   6.838   5.152  1.1625 -0.7077 -1.8041
19911TIP3    H281149   3.879   6.701   5.135  0.7269 -1.3975  1.4366
19912TIP3   OH281150   0.192   3.519   1.138 -0.0092  0.2985  0.0402
19912TIP3    H181151   0.175   3.425   1.135 -0.8759  0.4597 -1.2700
19912TIP3    H281152   0.141   3.551   1.212 -1.9284  0.1073 -1.1458
19913TIP3   OH281153   0.015   3.493   3.194 -0.0573  0.2872 -0.3984
19913TIP3    H181154   0.002   3.587   3.189  0.4747  0.4087  0.3458
19913TIP3    H281155  -0.069   3.456   3.165 -0.9143  1.0147  1.0410
19914TIP3   OH281156   5.295   5.112   3.494 -0.3530 -0.5972 -0.4674
19914TIP3    H181157   5.244   5.193   3.486 -0.9618 -0.3717  3.6080
19914TIP3    H281158   5.386   5.141   3.488 -0.5436 -0.3351 -3.2114
19915TIP3   OH281159   0.766   6.510  17.055 -0.3903 -0.4756  0.0290
19915TIP3    H181160   0.861   6.519  17.053  0.1601 -4.5812 -1.8530
19915TIP3    H281161   0.743   6.520  17.147  1.9376 -0.0067  0.6258
19916TIP3   OH281162   6.527   1.032  12.059  0.2853 -0.1342  0.3965
19916TIP3    H181163   6.602   1.056  12.114  0.3154 -0.5428  0.5358
19916TIP3    H281164   6.470   1.108  12.063 -0.6893 -0.8786  2.6818
19917TIP3   OH281165   1.917   6.531  14.467  0.1507 -0.3913  0.1380
19917TIP3    H181166   1.856   6.600  14.443 -1.1109 -1.5562 -0.1356
19917TIP3    H281167   1.924   6.536  14.562 -1.5505 -1.1622  0.3318
19918TIP3   OH281168   0.198   6.644  15.524  0.0850 -0.4562  0.1162
19918TIP3    H181169   0.261   6.574  15.503  1.7313  1.0151 -0.1262
19918TIP3    H281170   0.242   6.725  15.497 -0.7992  0.8984  2.4007
19919TIP3   OH281171   4.344   1.062   0.753 -0.1697  0.0072  0.2846
19919TIP3    H181172   4.390   1.115   0.688  0.0121  1.5456  1.6139
19919TIP3    H281173   4.252   1.063   0.724 -0.1258  0.8518  0.1646
19920TIP3   OH281174   0.516   6.248   5.029  0.1661 -0.9105  0.5218
19920TIP3    H181175   0.434   6.201   5.012  0.3293 -1.1781  0.4700
19920TIP3    H281176   0.574   6.181   5.066  0.4263 -0.7671  0.3705
19921TIP3   OH281177   1.903   5.099  15.756  0.1973 -0.1428 -0.7252
19921TIP3    H181178   1.868   5.096  15.845 -0.9190 -2.0516 -1.1552
19921TIP3    H281179   1.920   5.007  15.734  0.4318  0.2800 -2.4938
19922TIP3   OH281180   2.117   4.465   2.287 -0.6960 -0.3068 -0.0525
19922TIP3    H181181   2.106   4.529   2.357  0.5108 -0.6237  0.4493
19922TIP3    H281182   2.204   4.428   2.301 -0.7038 -0.8740 -1.3106
19923TIP3   OH281183   4.915   2.860  13.266  0.0003  0.6794  0.5057
19923TIP3    H181184   4.994   2.880  13.317 -0.1403  1.7424  0.3242
19923TIP3    H281185   4.922   2.915  13.188  0.6197 -1.5120 -1.0817
19924TIP3   OH281186   0.895   3.330   3.788 -0.2110  0.1844  0.9570
19924TIP3    H181187   0.942   3.370   3.715  0.2394 -4.3946 -1.5959
19924TIP3    H281188   0.814   3.380   3.794  0.2864  1.5430 -1.8534
19925TIP3   OH281189   1.854   4.352   0.589  0.3142 -0.6830 -0.0545
19925TIP3    H181190   1.838   4.308   0.505  0.9378  0.4955 -0.8161
19925TIP3    H281191   1.923   4.300   0.630  0.2986 -1.0345 -0.4609
19926TIP3   OH281192   5.860   4.659   5.732 -0.4032  0.0061 -0.2162
19926TIP3    H181193   5.838   4.752   5.739  0.3498  0.1355  0.6756
19926TIP3    H281194   5.821   4.631   5.649 -3.2307  0.3984  0.8578
19927TIP3   OH281195   0.746   6.216   0.033  0.1239 -0.5520 -0.0899
19927TIP3    H181196   0.792   6.214  -0.051 -0.5579  0.7725 -0.5134
19927TIP3    H281197   0.737   6.309   0.053  0.4727 -0.8492  1.5719
19928TIP3   OH281198   2.881   5.110   6.169  0.6126 -0.3749 -0.6908
19928TIP3    H181199   2.847   5.198   6.156  1.7153 -0.0034 -1.1460
19928TIP3    H281200   2.928   5.090   6.088  3.4848  0.0684  0.7372
19929TIP3   OH281201   1.824   6.414  14.087  0.2693 -0.1913  0.1186
19929TIP3    H181202   1.905   6.461  14.065 -0.0053  0.4723  0.5038
19929TIP3    H281203   1.764   6.435  14.015  1.0178 -2.2350 -1.2012
19930TIP3   OH281204   3.492   3.316   3.737  0.2289  0.8463  1.0605
19930TIP3    H181205   3.444   3.309   3.655  0.1996 -1.6460  1.2034
19930TIP3    H281206   3.581   3.287   3.716  0.7421  1.9994  1.5450
19931TIP3   OH281207   3.849   0.509   2.682 -0.2541  0.3989  0.4552
19931TIP3    H181208   3.768   0.538   2.641 -1.3206  0.5541  2.5765
19931TIP3    H281209   3.882   0.441   2.623 -1.7865  0.5062 -0.5788
19932TIP3   OH281210   3.644   0.919   6.428  0.6421 -0.4396 -0.2169
19932TIP3    H181211   3.703   0.846   6.412  0.1763 -0.9913  0.4860
19932TIP3    H281212   3.652   0.974   6.351  1.6801 -0.7691 -0.3628
19933TIP3   OH281213   0.041   2.235   3.867 -0.4405 -0.1199  0.3008
19933TIP3    H181214   0.113   2.288   3.833 -2.5683  2.4640 -0.5531
19933TIP3    H281215   0.050   2.150   3.824  1.5180  0.4571 -0.4979
19934TIP3   OH281216   6.435   2.502   0.053  0.5106 -0.5908 -0.7733
19934TIP3    H181217   6.427   2.520  -0.041  1.9590  1.2440 -0.6193
19934TIP3    H281218   6.346   2.484   0.082  0.1732 -2.3812 -2.6794
19935TIP3   OH281219   4.789   6.639  14.696  0.0055 -0.2136  0.6406
19935TIP3    H181220   4.836   6.701  14.752 -1.2335  0.6743  0.7376
19935TIP3    H281221   4.781   6.685  14.612  1.1899 -1.2366 -0.0677
19936TIP3   OH281222   2.747   2.008  12.813  0.1823  0.0823 -0.2425
19936TIP3    H181223   2.825   2.004  12.757  0.7369  0.3077  0.5115
19936TIP3    H281224   2.709   2.094  12.794  0.4921  0.2493 -0.1086
19937TIP3   OH281225   3.914   4.239  14.542 -0.0154 -0.1829 -0.3216
19937TIP3    H181226   3.913   4.328  14.507  1.9083 -0.1437 -0.3816
19937TIP3    H281227   3.844   4.238  14.607  1.2849  2.0843  1.2510
19938TIP3   OH281228   1.484   1.112  17.059 -0.0306  0.0197 -0.2522
19938TIP3    H181229   1.540   1.044  17.022 -0.0787  0.5421 -1.3048
19938TIP3    H281230   1.544   1.185  17.078  0.0633 -0.3802  1.1008
19939TIP3   OH281231   1.792   5.138   5.809  0.3398  0.3871  0.0806
19939TIP3    H181232   1.832   5.175   5.888 -0.7150  1.1224  0.2748
19939TIP3    H281233   1.701   5.167   5.811  0.7920  2.3040 -2.5635
19940TIP3   OH281234   3.114   0.112  11.165  0.3778  0.7156  0.6220
19940TIP3    H181235   3.023   0.082  11.161  0.9894 -1.1315 -1.5893
19940TIP3    H281236   3.161   0.039  11.206  1.1071  0.8657  0.0696
19941TIP3   OH281237   4.192   2.085  15.470 -0.6808 -0.3080 -0.4727
19941TIP3    H181238   4.235   2.157  15.516 -1.3908 -0.4643  0.4829
19941TIP3    H281239   4.128   2.126  15.413 -0.7977 -0.1582 -0.2345
19942TIP3   OH281240   3.587   2.487  15.311 -0.6971  0.1358  0.0257
19942TIP3    H181241   3.507   2.539  15.308 -0.2312  0.8335 -1.5178
19942TIP3    H281242   3.599   2.456  15.221  0.4193 -0.5053  0.3688
19943TIP3   OH281243   3.591   2.882  15.001 -0.3090 -0.3554  0.2653
19943TIP3    H181244   3.578   2.886  15.095  1.5425  1.2479  0.5242
19943TIP3    H281245   3.649   2.807  14.988  1.4317  0.8529  0.7399
19944TIP3   OH281246   2.092   3.994  14.436  0.3036  0.2156  0.0182
19944TIP3    H181247   2.169   4.046  14.459  1.4875 -0.5288 -2.0134
19944TIP3    H281248   2.068   3.950  14.518  1.7930  0.7608  0.7971
19945TIP3   OH281249   4.437   4.393  12.432 -0.4185 -0.1052  0.2191
19945TIP3    H181250   4.531   4.386  12.448 -0.0020  0.7952 -1.5963
19945TIP3    H281251   4.411   4.305  12.406 -0.5773 -0.9157  2.8802
19946TIP3   OH281252   0.541   5.027   2.785 -0.3954 -0.2950 -0.1995
19946TIP3    H181253   0.573   4.980   2.862  0.4796  1.0917  0.3156
19946TIP3    H281254   0.522   5.115   2.817 -0.8924  0.0381 -1.3799
19947TIP3   OH281255   0.346   2.104  12.884  0.2745  0.0916 -0.4633
19947TIP3    H181256   0.394   2.180  12.915 -0.4000 -0.3834  1.9631
19947TIP3    H281257   0.258   2.137  12.867  0.1945  0.0197 -0.1935
19948TIP3   OH281258   1.687   2.779   0.642  0.0233  0.2230 -0.1807
19948TIP3    H181259   1.686   2.874   0.634 -0.7458  0.2136 -0.3277
19948TIP3    H281260   1.777   2.754   0.624 -0.0227  0.8292 -1.3770
19949TIP3   OH281261   3.283   0.252  11.802 -0.2893  0.3842  0.6670
19949TIP3    H181262   3.273   0.158  11.787 -0.7290  0.0177  2.8595
19949TIP3    H281263   3.284   0.261  11.898  0.0661  2.5835  0.5163
19950TIP3   OH281264   5.795   5.304   1.058  0.8946  0.5043  0.2389
19950TIP3    H181265   5.746   5.299   0.976  3.1984 -1.6266 -1.1510
19950TIP3    H281266   5.751   5.373   1.108 -0.9309  1.5195 -2.5204
19951TIP3   OH281267   0.825   3.004   1.752 -0.0095 -0.0968 -0.3261
19951TIP3    H181268   0.878   2.925   1.747  0.8025  0.5041 -2.8395
19951TIP3    H281269   0.888   3.075   1.757 -0.7286  0.4599  1.6905
19952TIP3   OH281270   2.885   3.403   4.231 -0.7711 -0.1451  0.4446
19952TIP3    H181271   2.933   3.320   4.222  0.0744  0.4823 -1.2179
19952TIP3    H281272   2.912   3.437   4.316  0.5149 -0.5866  0.2337
19953TIP3   OH281273   6.718   3.096   1.155 -0.4128  0.3979 -0.3761
19953TIP3    H181274   6.785   3.163   1.144 -1.7424  1.3729 -3.7683
19953TIP3    H281275   6.675   3.119   1.237  2.9053  0.0521  1.6315
19954TIP3   OH281276   6.225   3.273  11.894 -0.1032 -0.4163 -0.3789
19954TIP3    H181277   6.309   3.228  11.879  0.0694  0.0140 -0.7599
19954TIP3    H281278   6.168   3.206  11.930  0.4853 -0.6557  0.1328
19955TIP3   OH281279   3.482   6.076  14.142  0.3482 -0.2757 -0.3086
19955TIP3    H181280   3.495   6.032  14.226  0.7204 -1.2307 -0.8408
19955TIP3    H281281   3.431   6.154  14.162  0.0105 -0.7543  0.7349
19956TIP3   OH281282   5.678   3.754   5.628  0.0300 -0.1354  0.1808
19956TIP3    H181283   5.646   3.836   5.592  1.0064 -1.1700 -3.4679
19956TIP3    H281284   5.599   3.704   5.650 -0.6275  0.6411 -0.4040
19957TIP3   OH281285   3.835   6.479  16.710 -0.2105  1.0147  0.2023
19957TIP3    H181286   3.917   6.504  16.753  0.0052 -0.5296  0.7552
19957TIP3    H281287   3.780   6.557  16.715  0.5477  1.4871  1.5015
19958TIP3   OH281288   0.384   2.716  13.039 -0.1667 -0.3159 -0.5465
19958TIP3    H181289   0.466   2.741  13.082 -0.3612  0.4139 -0.5778
19958TIP3    H281290   0.337   2.665  13.105  1.0355 -2.2465 -1.1221
19959TIP3   OH281291   4.101   0.407   4.137  0.2840 -0.5138 -0.1217
19959TIP3    H181292   4.148   0.422   4.219 -0.3609  0.2954  0.1172
19959TIP3    H281293   4.151   0.457   4.072 -0.5108  0.7911  0.2309
19960TIP3   OH281294   3.813   3.297   4.858 -0.3981  0.0475  0.2305
19960TIP3    H181295   3.900   3.289   4.895 -0.6897 -1.4770  0.6601
19960TIP3    H281296   3.786   3.387   4.877  0.6506  0.2009  1.0481
19961TIP3   OH281297   4.093   5.042  10.579  0.0598 -0.1137  0.1852
19961TIP3    H181298   4.158   5.106  10.549 -0.1331 -0.4214 -0.9202
19961TIP3    H281299   4.074   4.990  10.502  0.9773 -2.1979  1.2861
19962TIP3   OH281300   5.716   4.741  14.813  0.1476 -0.3151  0.2917
19962TIP3    H181301   5.748   4.728  14.902  0.9460 -1.2372 -0.1174
19962TIP3    H281302   5.790   4.776  14.764 -0.4649  0.8030  0.1147
19963TIP3   OH281303   3.117   0.661   6.543  0.6085 -0.0266 -0.6581
19963TIP3    H181304   3.093   0.574   6.513  0.2512 -0.6309  1.2612
19963TIP3    H281305   3.035   0.710   6.541  0.4712 -0.2306 -0.1627
19964TIP3   OH281306   2.735   5.076  15.994 -0.1642  0.8182 -0.0341
19964TIP3    H181307   2.698   5.082  16.082 -0.1363  0.1115  0.0323
19964TIP3    H281308   2.763   5.166  15.973  0.0819  0.9387  0.7848
19965TIP3   OH281309   2.114   3.003   0.216 -0.4492  0.6012 -0.5119
19965TIP3    H181310   2.148   2.990   0.128 -1.5317  0.3151 -0.9006
19965TIP3    H281311   2.148   3.089   0.242  0.1165  0.5606 -1.0814
19966TIP3   OH281312   3.770   6.217  11.589  0.6671  0.5920  0.3110
19966TIP3    H181313   3.819   6.271  11.526  0.1355 -0.7125 -1.3001
19966TIP3    H281314   3.680   6.250  11.583  0.3029 -0.5262 -0.8164
19967TIP3   OH281315   5.188   3.001  10.689 -0.0161  0.5277  0.0235
19967TIP3    H181316   5.195   3.097  10.689 -2.2723  0.7409  0.5321
19967TIP3    H281317   5.095   2.983  10.679  0.2826 -1.6201  0.5366
19968TIP3   OH281318   1.742   3.914   0.829  0.3861  0.5472 -0.2151
19968TIP3    H181319   1.653   3.905   0.863  1.2063 -1.0070  1.6817
19968TIP3    H281320   1.787   3.969   0.892  1.1097  0.2704 -0.4722
19969TIP3   OH281321   2.334   1.315  15.050 -0.0491 -0.1275  0.7170
19969TIP3    H181322   2.379   1.300  14.967  0.3662 -0.2795  0.9677
19969TIP3    H281323   2.384   1.385  15.092 -1.9039  1.9913 -0.4006
19970TIP3   OH281324   6.278   6.202   0.500  0.3184 -1.2534 -0.1369
19970TIP3    H181325   6.236   6.201   0.586  2.8590 -0.1580  1.2435
19970TIP3    H281326   6.206   6.196   0.437 -1.7519 -0.5802  2.0372
19971TIP3   OH281327   5.475   1.810  14.583 -0.1715  0.2344 -0.0903
19971TIP3    H181328   5.444   1.767  14.503  1.0185 -0.1281 -0.3696
19971TIP3    H281329   5.468   1.743  14.650  2.7547 -0.8653 -0.7473
19972TIP3   OH281330   4.719   5.698  16.260  0.4675  0.3837  0.5603
19972TIP3    H181331   4.665   5.745  16.323  3.2878  0.4324  3.1469
19972TIP3    H281332   4.672   5.615  16.246 -1.7598  1.6123  0.1915
19973TIP3   OH281333   4.757   1.225   4.486  0.4290 -0.2155 -0.1151
19973TIP3    H181334   4.788   1.179   4.408  0.4548  1.9201 -1.4306
19973TIP3    H281335   4.763   1.318   4.464 -1.5957  0.4202  1.6437
19974LIG     O181336   1.437   5.131   8.582  0.2722  0.1223 -0.3369
19974LIG     O281337   1.548   4.864   8.231 -0.1786 -0.0607  0.9703
19974LIG     N181338   1.491   4.755   8.429 -0.1609  0.4393  0.9130
19974LIG     N281339   1.455   4.891   8.752  0.1570 -0.0979  0.1016
19974LIG     N381340   1.486   4.997   8.404  0.2143 -0.3580  0.0812
19974LIG     N481341   1.467   4.685   8.665  0.4366 -0.0467  1.1899
19974LIG     C181342   1.453   4.902   8.619 -0.1782 -1.7411 -0.0368
19974LIG     C281343   1.462   4.773   8.567 -0.5138  1.1848  0.3500
19974LIG     C381344   1.451   5.019   8.537  0.3522  0.0636 -0.7096
19974LIG     C481345   1.517   4.873   8.350 -0.2794  0.7313  0.4057
19974LIG     C581346   1.461   4.758   8.774 -0.3304  0.4496 -0.3256
19974LIG     C681347   1.509   4.630   8.359  0.7364 -0.2271 -0.6196
19974LIG     C781348   1.463   4.998   8.849 -0.6038 -0.2370  0.2191
19974LIG     C881349   1.525   5.118   8.320  0.5081 -0.9640 -0.5851
19974LIG     H181350   1.455   4.717   8.875 -0.6416 -0.5552 -0.7397
19974LIG     H281351   1.438   4.554   8.398 -0.3065  1.7258  1.5508
19974LIG     H381352   1.612   4.591   8.376  0.0892 -2.0278 -0.5773
19974LIG     H481353   1.492   4.624   8.250 -3.3620  0.2272 -0.1509
19974LIG     H581354   1.521   5.091   8.830 -1.9296  1.9543  5.3879
19974LIG     H681355   1.503   4.956   8.943  1.8534  0.5654 -0.4084
19974LIG     H781356   1.362   5.040   8.869 -1.4583 -0.5639 -2.8087
19974LIG     H881357   1.548   5.211   8.377 -2.5010  0.0496 -0.8680
19974LIG     H981358   1.441   5.160   8.260  0.6723  2.1194  1.1329
19974LIG    H1081359   1.598   5.090   8.241 -0.3851 -1.4179 -1.2682
   6.78809   6.78809  17.21556
